/*--------------------------------*- C++ -*----------------------------------*\
| =========                 |                                                 |
| \\      /  F ield         | OpenFOAM: The Open Source CFD Toolbox           |
|  \\    /   O peration     | Version:  2012                                  |
|   \\  /    A nd           | Website:  www.openfoam.com                      |
|    \\/     M anipulation  |                                                 |
\*---------------------------------------------------------------------------*/
FoamFile
{
    version     2.0;
    format      ascii;
    class       volScalarField;
    location    "0.9";
    object      p;
}
// * * * * * * * * * * * * * * * * * * * * * * * * * * * * * * * * * * * * * //

dimensions      [0 2 -2 0 0 0 0];


internalField   nonuniform List<scalar> 
42400
(
14194.1
13989.2
13646.5
13061.1
12202.6
11190.1
10136.1
9128.8
8211.59
7394.36
6677.75
6052.98
5503.99
5009.85
4543.76
4074.19
3572.26
3021.48
2413.76
1749.6
1063.14
449.809
20.1793
-196.494
-261.251
-249.802
-207.308
-153.864
-100.155
-53.3424
-17.2716
7.33175
21.7543
28.3358
29.7482
28.6093
27.1766
26.2317
26.2895
27.1215
28.5452
30.2471
31.8527
33.0395
33.5817
33.3575
32.3355
30.55
28.0751
25.003
21.4291
17.4431
13.1241
8.53957
3.74642
-1.20697
-6.27775
-11.4254
-16.6079
-21.7788
-26.8835
-31.8563
-36.6179
-41.0729
-45.1026
-48.5706
-51.4584
-53.541
-54.722
-54.9119
-54.0429
-52.0879
-49.0698
-45.0657
-40.2071
-34.6722
-28.6644
-22.4126
-16.1577
-10.6108
-4800.17
-4598.64
-4360.1
-4122.89
-3874.2
-3609.66
-3298.07
-2941.07
-2573.76
-2235.74
-1946.67
-1704.75
-1498.94
-1320.25
-1166.42
-1038.65
-933.681
-841.586
-751
-656.244
-560.711
-469.979
-383.794
-300.451
-224.52
-163.639
-119.392
-87.1075
-60.2087
-33.6106
-5.71914
22.3364
48.4032
70.4885
87.2903
98.2169
102.915
101.97
96.4248
87.9355
77.7331
66.8196
55.9681
45.6928
36.286
27.8704
20.4457
13.93
8.19399
3.08682
-1.54465
-5.84364
-9.93611
-13.9273
-17.9008
-21.9188
-26.0227
-30.2341
-34.5544
-38.9658
-43.4312
-47.8928
-52.2714
-56.47
-60.3743
-63.7788
-66.5148
-68.5199
-69.6232
-69.6717
-68.5558
-66.2132
-62.6389
-57.8966
-52.1245
-45.5388
-38.4001
-31.0749
-23.6325
-17.0191
-10291.5
-10044.9
-9710.93
-9341.01
-8945.22
-8595.67
-8320.28
-8120.63
-7958.86
-7779.69
-7537.26
-7210.72
-6796.08
-6297
-5731.38
-5136.19
-4552.08
-4005.02
-3502.54
-3044.51
-2631.05
-2263.02
-1937.77
-1650.02
-1394.15
-1166.6
-965.88
-791.322
-642.305
-517.862
-416.257
-334.72
-269.957
-218.835
-178.566
-146.816
-121.72
-101.808
-85.9236
-73.1705
-62.8929
-54.6317
-48.0644
-42.9461
-39.067
-36.2309
-34.2529
-32.9653
-32.2263
-31.9267
-31.9916
-32.3781
-33.0694
-34.0665
-35.3808
-37.0264
-39.0141
-41.3357
-43.9717
-46.8925
-50.0481
-53.3625
-56.7143
-60.0004
-63.1216
-65.9854
-68.3429
-70.038
-70.916
-70.8252
-69.6404
-67.2768
-63.7019
-58.9507
-53.1311
-46.4499
-39.1345
-31.5998
-23.8074
-16.484
13197.1
13061.9
12941
12781
12539.5
12217.9
11809.8
11318.4
10750.4
10095.6
9297.34
8270.81
6989.56
5584.57
4298.31
3292.46
2554.2
1992.5
1544.92
1187.52
906.659
687.658
515.626
379.113
269.556
180.339
106.378
44.1614
-8.33142
-51.9603
-86.8448
-112.882
-130.281
-139.933
-143.369
-142.264
-138.157
-132.248
-125.347
-117.945
-110.345
-102.741
-95.2855
-88.116
-81.3471
-75.0641
-69.3303
-64.181
-59.6268
-55.6602
-52.2635
-49.4205
-47.1232
-45.3666
-44.1458
-43.458
-43.4046
-43.8714
-44.7504
-46.0228
-47.6424
-49.5389
-51.6606
-53.8773
-56.0041
-57.9038
-59.4453
-60.4952
-60.9212
-60.5996
-59.4224
-57.3098
-54.2211
-50.1673
-45.2093
-39.4892
-33.1655
-26.5397
-19.669
-12.9124
527.798
464.372
353.805
180.496
-20.5651
-198.281
-309.25
-330.717
-246.649
-48.7221
243.964
578.69
890.026
1131.03
1288.7
1373.59
1399.23
1374.38
1306.39
1204.43
1078.86
939.927
796.719
656.631
525.289
406.513
302.431
213.739
139.987
79.9123
31.7723
-6.35554
-36.3267
-59.6367
-77.3369
-90.3176
-99.3145
-104.986
-108.006
-108.991
-108.469
-106.863
-104.55
-101.781
-98.7018
-95.3838
-91.8482
-88.109
-84.1631
-80.0005
-75.6318
-71.1223
-66.697
-62.5006
-58.6617
-55.2831
-52.3398
-49.9798
-48.2753
-47.1583
-46.5528
-46.3792
-46.5392
-46.9195
-47.3981
-47.8569
-48.1835
-48.2693
-48.0125
-47.3195
-46.1096
-44.3192
-41.9109
-38.8732
-35.2365
-31.0528
-26.4406
-21.4792
-16.394
-10.9819
-14700.7
-14118.7
-13391.4
-12587.7
-11640.2
-10616.7
-9558.34
-8533.61
-7602.9
-6794.21
-6104.04
-5514.15
-5005.96
-4565.79
-4183.55
-3849.26
-3550.19
-3272.47
-3004.94
-2737.94
-2468.46
-2196.53
-1923.87
-1653.26
-1390.66
-1146.3
-931.272
-753.017
-612.555
-505.531
-424.991
-363.807
-316.051
-277.424
-245.148
-217.637
-194.055
-173.955
-156.987
-142.79
-130.921
-120.963
-112.549
-105.363
-99.1355
-93.656
-88.7593
-84.3241
-80.2092
-76.1941
-72.2443
-68.2976
-64.3552
-60.5199
-56.8534
-53.4171
-50.274
-47.4819
-45.072
-43.044
-41.3755
-40.0272
-38.9478
-38.0792
-37.3612
-36.7352
-36.1466
-35.5463
-34.8898
-34.1343
-33.2379
-32.1555
-30.8425
-29.2473
-27.3351
-25.0503
-22.4243
-19.356
-16.1271
-12.1681
9097.78
9014.26
8839.34
8474.44
7896.36
7146.5
6296.15
5433.42
4638.06
3961.13
3422.14
3013.23
2706.44
2462.53
2240.07
2001.22
1716.11
1371.67
976.414
554.72
137.325
-245.522
-566.21
-801.306
-938.288
-981.965
-953.153
-879.137
-784.143
-684.635
-589.792
-504.056
-429.26
-365.792
-313.133
-270.205
-235.629
-207.894
-185.513
-167.144
-151.669
-138.242
-126.283
-115.451
-105.597
-96.6165
-88.363
-81.1345
-74.8988
-69.5031
-64.7296
-60.5703
-56.8629
-53.4543
-50.2668
-47.2525
-44.3831
-41.6484
-39.0514
-36.6017
-34.3107
-32.1907
-30.2544
-28.5146
-26.9848
-25.6775
-24.6028
-23.7652
-23.16
-22.7691
-22.5559
-22.4621
-22.4062
-22.2842
-21.9785
-21.3561
-20.3202
-18.7182
-16.6792
-13.7171
-249.7
-91.7535
156.158
478.792
894.164
1335.93
1750.54
2092.01
2341.53
2503.16
2585.12
2593.81
2539.28
2440.04
2321.69
2210.3
2124.56
2070.89
2045.52
2037.14
2028.1
1997.49
1927.42
1808.92
1644.04
1443.48
1222.26
995.589
776.395
573.811
394.169
241.385
117.817
23.1097
-45.5238
-92.2487
-121.621
-137.892
-144.667
-144.818
-140.543
-133.522
-125.051
-115.865
-106.241
-96.689
-87.7036
-79.2159
-71.3666
-64.2528
-57.8623
-52.1436
-47.0328
-42.4712
-38.4132
-34.823
-31.6689
-28.9172
-26.529
-24.4603
-22.6667
-21.1086
-19.7565
-18.5937
-17.6168
-16.8328
-16.2545
-15.8948
-15.7596
-15.8417
-16.1142
-16.5264
-17.0006
-17.4329
-17.6965
-17.6546
-17.1666
-16.1202
-14.4416
-12.0249
202.913
-16.3313
-287.711
-574.746
-877.464
-1148.72
-1381.93
-1587.31
-1779.43
-1966.97
-2150.59
-2327.19
-2493.07
-2645.1
-2778.8
-2885.59
-2951.38
-2958.65
-2892.96
-2749.3
-2536.36
-2274.89
-1990.86
-1706.33
-1434.44
-1181.2
-950.5
-747.264
-576.513
-441.156
-341.538
-273.149
-229.23
-202.232
-185.587
-174.581
-166.231
-158.747
-151.388
-143.862
-136.136
-128.045
-119.297
-109.911
-100.232
-90.4205
-80.7487
-71.5647
-63.1698
-55.7593
-49.3891
-43.9977
-39.4502
-35.5783
-32.2186
-29.2394
-26.5516
-24.1045
-21.8757
-19.8589
-18.0534
-16.4587
-15.0716
-13.8873
-12.8998
-12.1041
-11.4958
-11.0709
-10.8229
-10.7394
-10.7978
-10.9609
-11.1739
-11.3632
-11.4398
-11.305
-10.8623
-10.0308
-8.73739
-7.04523
-3042.06
-2964.04
-2835.85
-2661.22
-2465.33
-2302.01
-2191.56
-2127.12
-2091.66
-2072.71
-2067.06
-2077.29
-2106.93
-2157.36
-2226.39
-2306.58
-2384.19
-2441.81
-2464.42
-2444.87
-2385.51
-2296.81
-2190.04
-2072.79
-1947.36
-1811.51
-1661.56
-1496.57
-1320.29
-1140.71
-966.59
-805.511
-662.114
-538.17
-433.466
-346.674
-275.953
-219.44
-174.802
-139.893
-112.649
-91.3403
-74.5509
-61.2771
-50.6966
-42.289
-35.7103
-30.6588
-26.7639
-23.756
-21.4414
-19.6331
-18.1648
-16.9096
-15.784
-14.7399
-13.7537
-12.8167
-11.9277
-11.0882
-10.3
-9.56428
-8.88206
-8.25481
-7.68551
-7.17881
-6.74024
-6.37452
-6.08301
-5.86111
-5.69597
-5.56511
-5.43632
-5.26926
-5.01866
-4.63942
-4.09223
-3.35035
-2.41956
-1.28911
-2795.43
-2606.23
-2351.25
-2097.52
-1855.49
-1659.93
-1492.05
-1344.67
-1227.23
-1151.55
-1121.72
-1129.16
-1158.39
-1197.43
-1234.8
-1253.81
-1237.22
-1175.72
-1069.2
-926.423
-764.827
-605.221
-464.045
-347.317
-253.654
-180.837
-128.338
-95.3838
-79.8708
-77.3201
-82.3571
-90.4721
-98.7633
-105.706
-110.678
-113.545
-114.335
-113.038
-109.948
-105.288
-99.2071
-91.7779
-83.1197
-73.4604
-63.4316
-53.6862
-44.7474
-36.8688
-30.2275
-24.8497
-20.5834
-17.229
-14.5897
-12.4941
-10.8063
-9.42299
-8.26902
-7.28945
-6.44407
-5.70278
-5.04225
-4.44429
-3.89514
-3.3847
-2.90619
-2.4556
-2.03093
-1.63106
-1.25449
-0.898189
-0.556584
-0.221087
0.119967
0.480768
0.876816
1.32317
1.8321
2.40785
3.04215
3.77933
6189.68
6083.22
5958.73
5794.79
5559.62
5282.41
4982.19
4675.57
4375.11
4089.24
3825.93
3591.4
3385.42
3193.64
2990.81
2756.1
2482.55
2177.16
1853.74
1528.01
1219.55
950.973
738.092
582.562
474.763
401.19
349.631
309.843
274.185
239.849
206.784
175.301
145.466
117.401
91.388
67.992
47.777
30.9942
17.6573
7.45161
-0.0625398
-5.39261
-9.02665
-11.2473
-12.3492
-12.6078
-12.2602
-11.5031
-10.4947
-9.35724
-8.17682
-7.01043
-5.89282
-4.84315
-3.87006
-2.97562
-2.15868
-1.41611
-0.743508
-0.133609
0.420558
0.927496
1.39558
1.83224
2.24362
2.63417
3.00669
3.36283
3.70395
4.03204
4.35053
4.66462
4.98123
5.30837
5.65425
6.02637
6.43041
6.86867
7.34229
7.89012
1640.09
1526.01
1370.01
1178.08
932.943
668.882
397.352
132.386
-105.581
-299.006
-437.393
-518.086
-546.081
-531.467
-486.19
-420.244
-340.091
-250.847
-159.439
-74.7664
-4.13547
50.0072
89.4392
118.004
140.382
160.036
178.847
196.507
210.287
217.819
218.268
211.818
199.161
181.719
161.724
141.328
121.591
102.557
84.3209
67.3223
52.1138
38.974
27.9403
18.9757
11.7877
6.20771
2.05562
-0.870789
-2.776
-3.85256
-4.27248
-4.18383
-3.71131
-2.95907
-2.01407
-0.949295
0.173988
1.30521
2.40398
3.44007
4.39312
5.25234
6.01611
6.68861
7.27846
7.79628
8.25282
8.65786
9.01977
9.34573
9.64219
9.91546
10.172
10.4183
10.6607
10.905
11.1553
11.4141
11.6829
11.993
-10472.1
-9957.91
-9318.88
-8640.94
-7888.92
-7129.87
-6373.17
-5638.3
-4949.97
-4328.94
-3786.85
-3324.43
-2934.47
-2607.4
-2334.2
-2105.99
-1913.26
-1747.02
-1600.59
-1469.8
-1351.73
-1243.68
-1142.27
-1042.82
-939.218
-824.521
-692.499
-542.652
-385.459
-240.201
-122.511
-36.4201
22.5409
60.4953
81.8481
89.5525
86.4573
75.9827
61.8973
47.4595
34.5951
23.9198
15.2724
8.16661
2.48228
-1.96844
-5.29236
-7.61246
-9.04316
-9.69227
-9.66265
-9.05352
-7.96177
-6.48227
-4.70828
-2.73111
-0.639388
1.48276
3.55841
5.52159
7.32096
8.92223
10.3088
11.4803
12.449
13.2352
13.8636
14.3595
14.7466
15.046
15.2756
15.4507
15.5839
15.6859
15.7653
15.8286
15.8812
15.9263
15.9662
16.0299
9263.1
9090.03
8833.81
8423.32
7833.03
7107.18
6300.91
5463.17
4629.5
3825.93
3068.4
2361.54
1703.17
1090.53
529.245
36.1253
-375.898
-707.31
-965.63
-1160.25
-1302.37
-1404.56
-1476.84
-1525.94
-1552.72
-1548.54
-1498.45
-1392.85
-1240.24
-1064.83
-891.029
-732.783
-594.233
-475.138
-374.562
-291.694
-225.34
-173.476
-133.549
-103.13
-80.1577
-63.2272
-51.0794
-42.5478
-36.6129
-32.3845
-29.0146
-26.2984
-23.906
-21.5957
-19.221
-16.6963
-13.9813
-11.072
-7.99063
-4.78122
-1.50496
1.76284
4.93764
7.93335
10.6719
13.0929
15.1607
16.866
18.2237
19.2655
20.0332
20.5721
20.9257
21.1332
21.2277
21.2364
21.1808
21.0778
20.9404
20.7784
20.599
20.4074
20.2071
20.025
-4873.46
-4841.95
-4806.36
-4725.65
-4586.08
-4371.77
-4088.38
-3752.52
-3388.2
-3023.94
-2670.82
-2289.58
-1825.86
-1314.94
-886.626
-628.229
-512.341
-474.197
-478.919
-512.919
-565.053
-622.573
-675.506
-717.09
-741.725
-743.599
-718.46
-667.198
-597.448
-520.384
-445.516
-377.881
-318.534
-266.619
-221.079
-181.3
-147.035
-118.122
-94.2895
-75.1201
-60.074
-48.5338
-39.8507
-33.3829
-28.6115
-25.3417
-23.0581
-21.1453
-19.3472
-17.477
-15.4049
-13.0635
-10.4061
-7.49219
-4.32424
-0.943305
2.59432
6.21447
9.81957
13.2928
16.5123
19.3718
21.7981
23.7598
25.2654
26.3531
27.0792
27.5058
27.6938
27.6973
27.5618
27.3237
27.0113
26.6459
26.2435
25.8158
25.3713
24.916
24.4539
24.0092
-5448.45
-5190.17
-4846.77
-4436.1
-3951.77
-3444.86
-2972.75
-2602.29
-2381.72
-2329.56
-2405.57
-2495.79
-2520.69
-2503.31
-2454.26
-2324.99
-2101.21
-1823.52
-1532.6
-1252.28
-996.701
-772.363
-580.452
-419.674
-287.481
-180.358
-94.718
-27.891
22.0053
56.6808
78.2097
89.1499
92.3277
90.0595
84.1284
75.8677
66.2496
55.9769
45.5762
35.4715
26.0181
17.5064
10.0935
3.91791
-0.914312
-4.15302
-6.16634
-7.01376
-6.77994
-5.61306
-3.68801
-1.18858
1.71238
4.86979
8.18096
11.5804
15.0222
18.4566
21.8106
24.9825
27.8566
30.3278
32.326
33.8277
34.8533
35.4544
35.6984
35.6563
35.3938
34.9673
34.4226
33.7954
33.1127
32.3943
31.6547
30.904
30.1497
29.3966
28.6475
27.9224
8037.57
7691.49
7221
6638.49
5896.07
5154.93
4493.94
3942.43
3502.22
3167.41
2929.03
2752.68
2578.03
2371.76
2152.65
1951.7
1779.79
1633.02
1505.72
1394.17
1295.36
1207.09
1128.32
1058.35
996.121
939.199
885.234
831.384
775.116
714.803
650.037
581.624
511.24
441.291
374.233
312.089
256.227
207.354
165.636
130.86
102.584
80.1737
62.9148
50.0088
40.7352
34.4368
30.5157
28.4615
27.846
28.3095
29.5499
31.3093
33.3641
35.5215
37.6251
39.5643
41.2799
42.7558
43.9995
45.0174
45.8021
46.3342
46.596
46.5843
46.3151
45.82
45.1388
44.3125
43.3787
42.3693
41.3102
40.2217
39.1191
38.0136
36.9135
35.8246
34.751
33.6951
32.6579
31.6537
7036.15
7017.44
6966.34
6845.93
6671.32
6501.61
6352.3
6194.75
5994.58
5736.85
5425.41
5071.83
4685.72
4276.43
3855.66
3436.19
3029.46
2643.89
2286.69
1964.43
1678.41
1429.76
1217.44
1038.15
885.846
751.179
622.864
494.208
366.427
246.648
143.121
61.2729
2.27262
-35.8787
-56.8442
-64.7894
-63.5473
-56.2037
-45.0818
-31.889
-17.8801
-3.97542
9.15925
21.0623
31.4506
40.195
47.2942
52.8431
57.007
59.9941
62.028
63.3247
64.071
64.411
64.4434
64.2318
63.8232
63.2612
62.5877
61.832
61.0029
60.0901
59.0757
57.9473
56.7045
55.3594
53.9321
52.4458
50.9229
49.3828
47.8416
46.3112
44.8008
43.3165
41.8625
40.4414
39.0549
37.7034
36.3857
35.1109
-4676.77
-4475.27
-4236.12
-3981.4
-3702.55
-3413.85
-3118.68
-2831.9
-2572.51
-2354.3
-2183.19
-2059.44
-1979.16
-1934.76
-1916.61
-1913.86
-1915.72
-1912.45
-1896.27
-1861.73
-1805.21
-1725.12
-1621.94
-1498.09
-1357.8
-1206.76
-1051.88
-900.311
-757.794
-627.25
-509.625
-405.194
-313.964
-235.925
-170.616
-116.801
-72.6775
-36.2468
-5.69603
20.3681
42.8458
62.1958
78.5766
92.0078
102.5
110.136
115.097
117.658
118.175
117.048
114.696
111.518
107.854
103.962
100.017
96.1241
92.3474
88.7233
85.2703
81.9897
78.8683
75.8862
73.0253
70.2742
67.6283
65.0867
62.6487
60.312
58.0719
55.9224
53.8567
51.8682
49.951
48.0999
46.3104
44.579
42.9026
41.2785
39.7029
38.1789
-8253.55
-7537.17
-6580.73
-5534.09
-4413.71
-3437.29
-2660.25
-2044.89
-1543.08
-1148.76
-865.707
-678.123
-571.329
-544.309
-585.817
-658.887
-718.662
-732.409
-686.065
-585.326
-452.902
-317.955
-203.529
-120.221
-67.8497
-40.6023
-31.6657
-34.7834
-43.9469
-53.3867
-59.1274
-60.5132
-59.4323
-58.2644
-58.3479
-59.6041
-61.2054
-62.3774
-62.6076
-61.4706
-58.5085
-53.8019
-47.3083
-39.2952
-30.2451
-20.6944
-11.2647
-2.55288
5.01202
11.2674
16.2914
20.289
23.4808
26.0398
28.0906
29.6943
30.8849
31.6914
32.1482
32.2972
32.1848
31.8562
31.3527
30.709
29.9543
29.1119
28.2006
27.2353
26.2279
25.1876
24.1214
23.0346
21.9309
20.8127
19.6813
18.5371
17.3782
16.205
15.0143
13.8192
2530.8
2425.45
2281.06
2093.78
1855.23
1570.28
1242.26
885.511
520.077
158.366
-196.43
-544.249
-881.404
-1197.46
-1474.63
-1690.75
-1821.6
-1847.6
-1769.35
-1621.45
-1458.87
-1322.42
-1221.79
-1146.02
-1082.86
-1027.3
-977.835
-928.419
-865.675
-777.134
-665.737
-543.499
-421.484
-308.103
-212.085
-139.639
-90.7012
-60.4752
-43.2234
-34.2708
-30.2234
-27.9622
-25.2394
-21.1578
-15.3083
-8.31652
-0.736944
6.83837
13.897
20.1137
25.3597
29.6421
33.0356
35.6361
37.5422
38.8483
39.6432
40.0097
40.0228
39.7489
39.2452
38.5597
37.7319
36.7941
35.7719
34.6857
33.5514
32.3811
31.1838
29.9664
28.7334
27.4882
26.2326
24.9673
23.6925
22.4076
21.1102
19.8001
18.4726
17.132
361.796
394.211
443.524
506.657
581.758
654.354
713.68
749.958
755.779
726.906
662.302
564.174
437.921
291.415
133.139
-29.7061
-191.305
-344.365
-476.492
-571.463
-616.896
-608.065
-544.379
-430.876
-284.697
-132.139
3.73631
114.665
210.041
298.162
368.625
407.138
423.233
431.584
427.489
401.096
357.097
309.521
267.607
233.28
205.075
181.373
160.711
142.42
126.262
112.589
101.278
92.0568
84.6005
78.5775
73.6818
69.6502
66.2671
63.3626
60.8075
58.5061
56.3896
54.4096
52.532
50.7327
48.9947
47.3054
45.6561
44.0401
42.4529
40.8914
39.353
37.8357
36.3378
34.8574
33.3924
31.9404
30.4989
29.0648
27.6348
26.2056
24.7728
23.3347
21.8836
20.4097
-516.891
-481.734
-433.771
-379.194
-328.215
-283.503
-246.017
-218.924
-206.801
-210.329
-225.821
-247.686
-270.953
-292.307
-309.926
-323.345
-332.893
-339.023
-342.593
-346.368
-354.467
-367.559
-378.004
-372.14
-339.425
-278.836
-197.097
-106.129
-20.585
45.7408
90.1461
121.127
144.982
162.243
173.405
180.012
183.09
183.422
182.589
181.067
178.169
173.056
165.617
156.497
146.537
136.474
126.813
117.849
109.719
102.451
95.9994
90.281
85.1958
80.6446
76.5384
72.8024
69.3766
66.214
63.277
60.5355
57.9641
55.5407
53.2464
51.0642
48.9799
46.9806
45.0558
43.1962
41.3938
39.6415
37.9331
36.2628
34.6253
33.0153
31.4275
29.8566
28.2969
26.745
25.1927
23.6167
6257.69
6013.38
5657.86
5198.54
4656.85
4186.05
3821.06
3498.63
3149.54
2756.56
2337.22
1912.19
1496.45
1102.25
740.551
420.729
148.972
-73.2988
-249.103
-384.669
-487.567
-562.606
-609.509
-625.731
-610.763
-567.284
-501.642
-420.345
-329.196
-233.671
-137.294
-42.6311
46.2655
123.48
183.302
222.416
240.99
242.453
232.162
215.66
197.323
179.812
164.324
151.13
140.052
130.751
122.874
116.104
110.181
104.9
100.104
95.675
91.5302
87.611
83.8797
80.3136
76.9003
73.6334
70.5094
67.5249
64.6761
61.9575
59.3625
56.8835
54.5122
52.2399
50.0581
47.9582
45.9323
43.9732
42.0742
40.2293
38.4329
36.6796
34.9637
33.2791
31.6193
29.9793
28.3497
26.7008
-29.8866
375.348
862.734
1224.44
1468.36
1573.12
1620.7
1648.9
1652.39
1622.88
1562.34
1474.76
1363.32
1232.9
1087.71
931.912
774.565
625.319
487.531
361.808
251.944
162.532
94.7876
47.0987
16.7823
0.196809
-6.58723
-7.26133
-4.5932
0.753062
9.0143
20.682
35.6985
52.9666
70.825
87.5432
101.881
113.256
121.585
127.078
130.093
131.06
130.424
128.6
125.946
122.736
119.173
115.402
111.524
107.605
103.692
99.818
96.0061
92.2745
88.6371
85.1051
81.6866
78.3872
75.2095
72.1538
69.2188
66.4016
63.6985
61.1052
58.6164
56.226
53.9274
51.7137
49.5777
47.5128
45.5128
43.5722
41.6859
39.8495
38.0586
36.3081
34.5926
32.9087
31.2514
29.5819
-5660.99
-5568.19
-5441.13
-5281.97
-5094.84
-4924.41
-4771.07
-4620.89
-4460.34
-4282.81
-4088.4
-3880.94
-3663.85
-3441.01
-3215.36
-2988.47
-2761.43
-2535.31
-2311.66
-2092.02
-1877.91
-1670.95
-1472.94
-1286.23
-1114.24
-960.45
-826.889
-713.444
-617.487
-534.257
-458.308
-385.312
-313.368
-242.858
-175.742
-114.194
-59.8605
-13.6149
24.4506
54.6892
77.5717
94.2962
105.96
113.558
117.936
119.778
119.665
118.088
115.461
112.127
108.356
104.357
100.284
96.2437
92.3062
88.5131
84.8853
81.4291
78.1408
75.0113
72.0285
69.1799
66.4536
63.8391
61.3272
58.91
56.5804
54.3336
52.1646
50.0692
48.0436
46.0841
44.1869
42.3479
40.5628
38.8266
37.1345
35.4853
33.8742
32.2272
-359.844
-394.305
-418.946
-412.549
-363.938
-280.236
-177.028
-72.1248
18.7414
81.219
104.634
84.3813
22.7944
-71.7377
-186.918
-309.477
-427.096
-530.346
-613.713
-674.383
-710.788
-721.912
-707.285
-667.351
-604.023
-520.831
-423.037
-318.061
-213.817
-117.284
-33.4795
34.9902
87.824
126.981
155.512
176.192
191.249
201.853
208.039
209.347
205.957
198.591
188.814
178.058
167.198
156.657
146.627
137.21
128.476
120.478
113.237
106.747
100.972
95.8442
91.2756
87.177
83.4676
80.0795
76.9564
74.0511
71.3264
68.7518
66.3018
63.9568
61.701
59.5216
57.4086
55.3542
53.3523
51.3991
49.493
47.6346
45.8262
44.0707
42.3703
40.7253
39.1334
37.5942
36.1086
34.6044
4075.11
4074.43
4096.83
4132.36
4185.49
4244.77
4306.46
4366.04
4415.27
4443.21
4437.75
4389.44
4294.42
4155.24
3979.68
3778.81
3563.92
3344.42
3127.31
2916.18
2711.9
2513.7
2320.2
2130.43
1944.37
1762.34
1583.72
1407.49
1232.9
1060.85
894.853
739.532
599.183
476.729
373.644
290.257
226.176
180.905
152.888
138.418
132.158
129.174
126.568
123.377
119.572
115.343
110.872
106.325
101.86
97.5998
93.5757
89.813
86.4941
83.519
80.6982
78.0109
75.4465
72.9985
70.6821
68.472
66.368
64.3639
62.4617
60.6501
58.9132
57.2362
55.608
54.0212
52.4697
50.9468
49.4454
47.959
46.4832
45.0171
43.5635
42.1284
40.7193
39.3455
38.0253
36.7357
514.287
409.995
271.541
100.061
-104.393
-319.083
-531.902
-734.485
-920.8
-1085.52
-1222.91
-1327.98
-1397.85
-1433.17
-1438
-1418.46
-1381.43
-1333.82
-1282.13
-1231.01
-1181.84
-1130.92
-1069.28
-991.428
-900.503
-803.371
-703.976
-602.421
-497.477
-388.999
-279.158
-171.593
-70.4251
20
95.02
150.513
184.267
197.459
194.862
182.785
166.402
148.879
131.975
116.773
103.913
93.6128
85.7684
80.0648
76.134
73.4446
71.4482
69.9275
68.4112
66.7826
65.118
63.4054
61.6758
59.9855
58.3698
56.8931
55.5445
54.114
52.8791
51.8259
50.9125
50.1195
49.4257
48.8162
48.2754
47.779
47.2947
46.7866
46.2193
45.5642
44.8023
43.9269
42.9431
41.8664
40.7178
39.5625
-7790.39
-7511.53
-7146.02
-6695.97
-6118.15
-5442.6
-4698.08
-3933.1
-3200.74
-2540.93
-1975.88
-1515.08
-1161.62
-915.73
-774.263
-729.845
-770.94
-882.39
-1045.9
-1238.1
-1428.58
-1586.41
-1694.48
-1754.82
-1777.34
-1770.79
-1741.05
-1691.27
-1622.3
-1533.81
-1426.1
-1301.49
-1164.55
-1021.19
-877.294
-738.034
-607.76
-490.091
-387.748
-302.143
-233.131
-179.151
-137.728
-106.033
-81.3688
-61.4807
-44.5959
-29.9113
-17.4412
-6.01038
4.41689
13.3461
20.5473
26.0146
29.957
32.6999
34.5826
35.8842
36.8027
37.4681
37.9964
38.6587
39.1934
39.681
40.1904
40.752
41.3944
42.1303
42.9506
43.8251
44.7024
45.5155
46.1915
46.6621
46.873
46.79
46.4014
45.7171
44.758
43.6079
6930.08
6765.36
6585.46
6373.16
6060.65
5683.96
5242.48
4742.61
4198.23
3621.66
3027.44
2429.97
1842.47
1278.14
748.973
263.681
-173.334
-559.954
-894.177
-1172.37
-1389.64
-1543.13
-1637.12
-1679.9
-1679.81
-1641.25
-1566.76
-1463.44
-1343.52
-1220.34
-1103.24
-996.579
-900.648
-814.026
-735.27
-663.36
-597.573
-537.369
-482.393
-432.439
-387.309
-346.623
-309.74
-275.863
-244.156
-213.851
-184.18
-153.622
-122.457
-93.1901
-66.3985
-42.9747
-23.5365
-8.16073
3.52008
12.1333
18.3726
22.8666
26.1243
28.5313
30.3733
31.8981
33.3583
34.6519
35.9033
37.1987
38.5859
40.0811
41.6723
43.3219
44.9673
46.5266
47.9082
49.0221
49.7899
50.1544
50.0846
49.578
48.658
47.3715
-8402.52
-7898.39
-7217.22
-6434.02
-5539.47
-4632.11
-3757.7
-2949.12
-2222.25
-1583.13
-1034.79
-580.594
-225.145
29.1835
187.998
265.544
282.891
261.084
215.934
156.654
88.8996
17.0913
-55.5783
-125.898
-191.254
-249.749
-299.849
-340.39
-370.392
-390.766
-401.528
-403.273
-396.886
-383.712
-365.591
-344.505
-322.102
-299.433
-276.994
-254.951
-233.344
-212.176
-191.399
-170.907
-150.541
-129.958
-108.305
-85.9946
-63.0104
-40.3603
-19.2964
-0.978136
13.7499
24.6261
31.9896
36.553
39.1143
40.3624
40.8202
40.848
40.7111
40.5489
40.3863
40.4562
40.757
41.3179
42.1425
43.2111
44.4813
45.889
47.3518
48.774
50.0547
51.0956
51.8103
52.1318
52.0188
51.4566
50.4538
49.0615
3267.99
2896.29
2385.35
1768.26
1050.24
330.118
-331.178
-886.909
-1308.95
-1584.98
-1724.29
-1768.68
-1780.34
-1807.26
-1855.12
-1878.18
-1802.77
-1581.65
-1234.05
-842.302
-494.662
-229.971
-39.3743
97.401
192.711
252.838
283.517
291.361
283.05
264.462
240.258
213.813
187.375
162.312
139.401
119.058
101.497
86.8541
75.2125
66.5938
60.8724
57.7462
56.7264
57.1704
58.4234
59.9258
61.0195
61.5179
61.9064
62.2884
62.6091
62.7506
62.5775
61.97
60.9483
59.5421
57.8535
56.0006
54.0976
52.2468
50.5293
49.0169
47.7638
46.8123
46.1831
45.8844
45.9078
46.2278
46.8004
47.5643
48.4442
49.3549
50.2072
50.9136
51.3956
51.5893
51.4529
50.9634
50.1179
48.9438
-4640
-4032.26
-3178.64
-2226.19
-1248.2
-354.857
449.765
1148.27
1701.23
2094.89
2337.98
2418.6
2353.12
2223.7
2091.41
1961.73
1824.78
1676.07
1515.13
1352.07
1204.22
1083.73
992.255
924.833
874.294
833.66
797.583
762.639
726.618
688.303
647.373
604.214
559.641
514.63
470.132
426.995
385.97
347.627
312.184
280.342
251.943
226.839
204.69
185.002
167.273
151.156
136.571
123.751
113.034
104.462
97.7319
92.3435
87.7825
83.6523
79.7142
75.8593
72.0648
68.3542
64.7735
61.3772
58.2216
55.3602
52.8404
50.6989
48.9587
47.6277
46.6977
46.1446
45.9287
45.9964
46.2827
46.7156
47.2199
47.7206
48.1477
48.4406
48.5542
48.4603
48.1372
47.5149
9384.48
9143.66
8857.61
8477.36
7903.82
7161.68
6210.08
5021.32
3722.93
2636.15
1952.54
1477.65
1025.68
729.229
689.858
792.569
916.981
1024.12
1108.55
1169.3
1207.83
1227.13
1228.41
1212.45
1181.36
1136.92
1081.27
1016.8
945.867
870.711
793.527
716.625
642.42
573.065
510.023
453.877
404.496
361.582
324.647
292.87
265.558
242.421
223.189
207.469
194.677
184.018
174.606
165.677
156.753
147.655
138.422
129.171
120.034
111.13
102.566
94.4278
86.7871
79.6961
73.1896
67.2869
61.9959
57.3159
53.2407
49.7597
46.8577
44.5144
42.7028
41.3885
40.529
40.074
39.9664
40.1425
40.534
41.0724
41.6898
42.3227
42.9187
43.4309
43.7887
43.823
4.92944
572.715
1246.92
1796.37
2325.12
2874.5
3404.61
3847.14
4185.85
4407.37
4491.84
4450.52
4331.83
4183.13
4014.59
3803.94
3532.03
3207.62
2859.34
2515.88
2195.74
1907.37
1653.56
1433.49
1243.29
1078.6
935.333
809.806
699.38
603.186
521.794
456.236
406.343
370.195
344.098
324.24
307.516
291.746
275.83
260.054
244.725
230.051
216.306
203.65
192.04
181.252
170.962
160.867
150.807
140.802
130.981
121.484
112.397
103.745
95.5188
87.7021
80.2904
73.2929
66.7298
60.6276
55.015
49.9197
45.3653
41.3703
37.9459
35.0958
32.8146
31.0882
29.8922
29.1938
28.9503
29.1109
29.6176
30.4065
31.4099
32.56
33.794
35.0341
36.1525
37.0368
5569.51
5448.92
5337
5204.53
4966.26
4636.58
4237.24
3797.32
3338.12
2861.96
2356.42
1808.51
1225.92
646.434
131.824
-256.879
-494.787
-605.167
-630.88
-603.303
-538.237
-445.692
-337.196
-222.928
-110.508
-6.1777
83.7419
152.975
198.891
224.578
236.515
240.678
240.643
238.404
234.557
228.823
221.216
212.399
203.332
194.625
186.763
179.276
172.092
165.14
158.269
151.323
144.181
136.774
129.094
121.183
113.115
104.979
96.8665
88.8587
81.0276
73.4339
66.129
59.1571
52.5573
46.3654
40.615
35.338
30.5645
26.3227
22.6381
19.5322
17.0196
15.1024
13.7791
13.0381
12.8555
13.1951
14.0086
15.2369
16.8116
18.659
20.7042
22.8465
24.9289
26.939
-6089.57
-5939.11
-5753.52
-5521.87
-5221.04
-4883.55
-4523.13
-4146.41
-3757.43
-3368.09
-3010.9
-2737.32
-2578.74
-2501.74
-2428.02
-2301.22
-2115.01
-1891.42
-1654.39
-1421.87
-1204.46
-1009.09
-837.495
-688.519
-559.267
-445.85
-344.24
-252.067
-169.956
-97.891
-36.0758
15.9406
59.1453
94.4487
122.273
142.632
155.641
161.992
162.95
160.106
154.768
148.208
141.115
133.861
126.623
119.467
112.397
105.392
98.4254
91.4783
84.54
77.6104
70.6999
63.8288
57.0256
50.3254
43.7673
37.3935
31.2476
25.3745
19.8201
14.6312
9.85584
5.54432
1.74936
-1.47487
-4.08157
-6.07624
-7.3965
-8.02732
-7.97037
-7.24573
-5.89286
-3.96999
-1.55161
1.27667
4.42691
7.80666
11.2975
14.7722
-8197.99
-8018.47
-7757.19
-7366.67
-6849.16
-6245.97
-5593.54
-4917.93
-4243.53
-3596.54
-3001.48
-2471.58
-1997.28
-1550.07
-1110.75
-694.075
-339.163
-79.8252
78.9138
158.648
189.26
199.033
203.201
199.876
181.476
149.617
114.975
86.1797
64.8058
49.2222
38.4482
32.3528
30.9035
33.6404
39.6677
47.8617
56.8504
65.7167
73.6223
79.7116
83.6471
85.7209
86.1057
85.0145
82.6944
79.3877
75.3127
70.6548
65.5641
60.1568
54.5212
48.7237
42.8159
36.8395
30.831
24.825
18.856
12.9608
7.17917
1.55509
-3.86212
-9.01708
-13.8472
-18.2794
-22.2277
-25.6067
-28.3503
-30.3759
-31.624
-32.0381
-31.588
-30.2739
-28.1288
-25.2195
-21.643
-17.5192
-12.9677
-8.03979
-2.93503
1.91632
11.5861
8.31006
4.94421
1.51683
-1.92476
-5.30501
-8.56378
-11.6625
-14.5959
-17.3697
-19.9556
-22.2763
-24.2112
-25.6184
-26.3959
-26.5306
-25.9741
-24.7435
-22.9366
-20.6347
-17.9654
-15.0757
-12.0856
-9.15272
-6.43479
-4.05317
-2.0692
-0.485355
0.735719
1.64867
2.30939
2.76732
3.06333
3.23051
3.29555
3.2799
3.20042
3.06983
2.8971
2.68787
2.44504
2.16932
1.85977
1.51414
1.12891
0.699298
0.219278
-0.317639
-0.916723
-1.57974
-2.3035
-3.08085
-3.90452
-4.77201
-5.68901
-6.66954
-7.73311
-8.9001
-10.1863
-11.5979
-13.1265
-14.747
-16.4174
-18.0825
-19.6804
-21.1504
-22.4402
-23.5109
-24.3387
-24.9139
-25.2389
-25.3249
-25.1893
-24.8519
-24.3337
-23.6559
-22.8393
-21.9044
-20.8711
-19.7583
-18.5832
-17.3618
-16.1085
-14.8369
-13.561
-12.2947
-11.0527
-9.84898
-8.6964
-7.60517
-6.5823
-5.63136
-4.75281
-3.94464
-3.20317
-2.52378
-1.9015
-1.33145
-0.809028
-0.329982
0.109484
0.512725
0.882686
1.22196
1.53284
1.81736
2.07728
2.31417
2.52949
2.72467
2.90118
3.06049
3.20405
3.33333
3.44974
3.55468
3.64941
3.7351
3.81275
3.8833
3.94755
4.00621
4.05988
4.10907
4.15421
4.19564
4.23368
4.26863
4.30072
4.33013
4.35708
4.38176
4.40434
4.42495
4.44375
4.46086
4.47642
4.49059
4.50352
4.51534
4.52618
4.53617
4.54542
4.55408
4.56227
4.57011
4.57769
4.58511
4.59247
4.59986
4.60738
4.6151
4.62308
4.63135
4.63992
4.64878
4.65789
4.66716
4.6765
4.68576
4.6948
4.70343
4.71147
4.71868
4.72484
4.72967
4.73288
4.73417
4.73316
4.72942
4.72245
4.71167
4.69641
4.6759
4.64934
4.61578
4.57421
4.52349
4.46233
4.38925
4.30261
4.20057
4.08117
3.9424
3.78227
3.59903
3.39132
3.1584
2.90047
2.61878
2.31612
1.99645
1.66616
1.3317
1.00487
0.691257
0.415011
0.164333
0.0122072
-0.14419
14.609
10.9332
7.1748
3.35511
-0.470274
-4.21968
-7.83135
-11.2676
-14.5158
-17.5953
-20.4669
-23.0487
-25.2156
-26.7884
-27.6747
-27.9802
-27.5171
-26.3549
-24.5832
-22.2934
-19.6014
-16.6349
-13.5294
-10.4417
-7.53878
-4.9619
-2.79373
-1.05041
0.301604
1.31979
2.06535
2.59277
2.94689
3.16349
3.27101
3.29207
3.24445
3.14168
2.99357
2.80663
2.58455
2.32874
2.03887
1.71321
1.34876
0.941195
0.48504
-0.0256601
-0.595728
-1.22669
-1.91534
-2.65474
-3.43775
-4.26185
-5.13229
-6.06238
-7.07079
-8.17717
-9.39709
-10.737
-12.19
-13.7331
-15.3271
-16.9198
-18.4526
-19.8673
-21.1137
-22.1541
-22.965
-23.5366
-23.8702
-23.9755
-23.8683
-23.5671
-23.0919
-22.4629
-21.7003
-20.8238
-19.8522
-18.8034
-17.6935
-16.5378
-15.3507
-14.1462