/*--------------------------------*- C++ -*----------------------------------*\
| =========                 |                                                 |
| \\      /  F ield         | OpenFOAM: The Open Source CFD Toolbox           |
|  \\    /   O peration     | Version:  2012                                  |
|   \\  /    A nd           | Website:  www.openfoam.com                      |
|    \\/     M anipulation  |                                                 |
\*---------------------------------------------------------------------------*/
FoamFile
{
    version     2.0;
    format      ascii;
    class       volScalarField;
    location    "0.14";
    object      p;
}
// * * * * * * * * * * * * * * * * * * * * * * * * * * * * * * * * * * * * * //

dimensions      [0 2 -2 0 0 0 0];


internalField   nonuniform List<scalar> 
42400
(
-13645.5
-13175.3
-12562.4
-11864.4
-11051.8
-10196.6
-9322.35
-8459.92
-7646.52
-6913.74
-6276.18
-5727.28
-5243.98
-4796.94
-4361.8
-3925.81
-3487.65
-3052.85
-2631.21
-2234.54
-1874.66
-1560.2
-1294.31
-1074.55
-894.338
-745.437
-620.254
-513.256
-421.171
-342.496
-276.71
-223.525
-182.264
-151.159
-128.589
-112.852
-102.16
-94.9195
-89.8835
-86.1377
-83.0495
-80.2199
-77.4268
-74.5663
-71.5937
-68.4863
-65.2485
-62.0046
-58.6276
-55.1372
-51.5575
-47.9125
-44.2443
-40.6078
-37.0637
-33.6714
-30.4815
-27.5292
-24.8305
-22.3814
-20.1608
-18.1356
-16.2687
-14.5283
-12.8954
-11.3705
-9.9757
-8.75137
-7.74704
-7.00765
-6.55846
-6.3927
-6.46517
-6.69844
-7.0005
-7.27684
-7.44123
-7.43445
-7.19599
-6.94351
-2241.29
-2150.2
-2021.5
-1873.2
-1691.82
-1543.56
-1453.2
-1423.69
-1443.35
-1490.6
-1541.25
-1576.09
-1584.27
-1560.9
-1504.74
-1416.56
-1299.53
-1158.92
-1002.31
-839.21
-679.647
-533.129
-406.647
-301.858
-214.279
-137.192
-67.2753
-6.07865
42.6656
75.9215
93.0414
95.89
88.1015
73.9449
57.4433
41.6366
28.0337
16.9738
8.2211
1.33585
-4.1264
-8.52862
-12.1296
-15.0965
-17.5402
-19.5107
-20.8903
-21.6361
-22.0082
-21.9957
-21.6138
-20.9331
-20.0377
-19.0142
-17.9472
-16.9137
-15.9766
-15.1778
-14.5341
-14.0352
-13.6451
-13.307
-12.9513
-12.5058
-11.9083
-11.1193
-10.1323
-8.97908
-7.72816
-6.47302
-5.31477
-4.34031
-3.60846
-3.13759
-2.89677
-2.81226
-2.78614
-2.7292
-2.53081
-2.34008
4381.72
4286.26
4141.06
3927.75
3651.6
3340.8
3012.95
2681.41
2355.21
2040.8
1745.03
1475.97
1242.5
1053.81
917.023
833.185
796.346
792.298
799.744
796.723
768.934
712.439
624.197
498.922
340.695
170.171
16.2534
-96.5669
-155.79
-164.355
-138.484
-98.2642
-58.2905
-24.9142
0.849234
19.4997
32.3944
40.5839
44.9175
46.2047
45.2156
42.6388
39.0526
34.9124
30.5798
26.3312
22.2202
18.3952
14.993
11.9984
9.38474
7.13612
5.22846
3.62318
2.26754
1.09945
0.0553966
-0.920064
-1.86569
-2.79721
-3.70409
-4.54968
-5.27526
-5.80768
-6.07068
-5.99916
-5.5548
-4.74014
-3.60722
-2.25695
-0.825697
0.538251
1.70542
2.59114
3.17125
3.47547
3.56967
3.54398
3.46395
3.37027
-6444.75
-6118.83
-5672.09
-5121.79
-4450.65
-3718.11
-2970.42
-2260.28
-1632.69
-1117.2
-730.749
-479.868
-358.413
-344.72
-403.123
-493.758
-584.417
-654.814
-694.482
-700.184
-672.256
-613.738
-531.02
-432.571
-326.277
-218.414
-114.674
-21.3204
54.9868
108.941
139.042
148.579
144.214
132.299
117.736
103.23
89.6062
77.1456
65.9092
55.91
47.1717
39.7117
33.5138
28.5205
24.6203
21.6277
19.3338
17.5509
16.1371
14.9909
14.0444
13.2535
12.5866
12.0134
11.4985
11.0017
10.4827
9.90808
9.25772
8.52955
7.74169
6.9322
6.15602
5.47947
4.97232
4.69793
4.70209
5.00175
5.57629
6.36436
7.26909
8.17272
8.9583
9.53278
9.84358
9.8836
9.68475
9.30939
8.80139
8.25644
7152.21
6913.8
6640.03
6303.15
5812.81
5211.88
4531.25
3803.94
3048.89
2283.8
1560.22
963.648
562.21
351.89
268.695
247.87
256.106
282.252
318.844
356.583
387.554
407.236
414.392
410.035
396.253
375.284
348.994
318.76
285.801
251.777
218.552
187.768
159.967
135.76
115.248
98.5321
85.0203
73.9457
64.7111
56.9174
50.3253
44.7962
40.2351
36.5526
33.6468
31.4012
29.6926
28.401
27.4176
26.6497
26.022
25.4759
24.9678
24.4653
23.9439
23.3853
22.7752
22.1048
21.3724
20.5858
19.7631
18.9312
18.1231
17.3736
16.7157
16.1765
15.7735
15.5106
15.3748
15.335
15.3439
15.3439
15.2772
15.0956
14.7697
14.2932
13.6816
12.9652
12.1771
11.3478
2461.72
2503.81
2565.11
2583.09
2493.27
2308.99
2125.9
2030.76
2026.96
2045.99
2021.13
1928.36
1775.26
1580.58
1365.51
1150.11
948.337
767.165
608.237
470.266
351.125
248.729
161.326
87.5549
26.4145
-22.8842
-61.1128
-89.1127
-107.858
-118.583
-122.432
-120.85
-114.474
-104.602
-92.4678
-79.1542
-65.5618
-52.3318
-39.8431
-28.2833
-17.7304
-8.21165
0.267282
7.71207
14.1397
19.5808
24.0804
27.6987
30.5086
32.5929
34.0397
34.9381
35.3751
35.4327
35.1862
34.7018
34.035
33.2293
32.3185
31.3302
30.2902
29.2244
28.1583
27.1156
26.1154
25.1712
24.2895
23.4694
22.703
21.9761
21.2696
20.5622
19.8337
19.0684
18.257
17.3981
16.4973
15.5656
14.618
13.6547
-5803.9
-4985.73
-3946.53
-3007.16
-2153.16
-1427.51
-764.6
-154.677
365.901
751.219
984.046
1084.02
1082.94
1008.79
882.937
723.194
546.112
365.471
190.685
27.7146
-119.691
-248.645
-356.572
-441.273
-501.395
-537.074
-549.828
-542.274
-517.846
-480.461
-434.112
-382.548
-329.023
-276.169
-225.97
-179.798
-138.492
-102.432
-71.6049
-45.7348
-24.3569
-6.91341
7.16828
18.4248
27.329
34.281
39.6124
43.5968
46.4617
48.3998
49.5763
50.1339
50.1945
49.859
49.2073
48.2986
47.1749
45.8671
44.4022
42.8104
41.1276
39.3945
37.6519
35.9356
34.2731
32.6816
31.1695
29.7371
28.3791
27.0858
25.8453
24.6447
23.4721
22.3175
21.1743
20.0399
18.9151
17.8041
16.7137
15.641
5242.08
4902.92
4467.22
3929.61
3229.65
2459.02
1679.01
932.184
226.744
-450.251
-1102.32
-1711.57
-2244.84
-2670.05
-2960.79
-3097.06
-3071.63
-2901.15
-2628.06
-2304.54
-1972.96
-1657.37
-1367.19
-1104.19
-867.589
-656.889
-471.96
-313.596
-183.208
-81.5535
-7.30655
42.7948
73.2733
89.3365
95.6517
95.842
92.4497
87.6258
82.623
78.1608
74.6185
72.1182
70.6025
69.9018
69.7914
70.0352
70.4165
70.756
70.9198
70.8197
70.4077
69.6682
68.6079
67.2475
65.6137
63.7352
61.6414
59.3643
56.94
54.4104
51.8221
49.2222
46.6543
44.154
41.7469
39.4487
37.267
35.2023
33.2509
31.4057
29.6575
27.9969
26.4145
24.9021
23.453
22.0624
20.7275
19.4471
18.2226
17.0478
-10428.9
-10012.4
-9502.87
-8924.93
-8211.89
-7383.36
-6445.76
-5443.03
-4444.97
-3514.93
-2692.75
-1993.88
-1417.44
-954.495
-593.289
-320.807
-123.158
12.8431
99.6844
148.824
169.384
167.962
150.149
121.93
89.5866
59.2871
35.7965
19.7561
9.01152
1.02029
-6.17041
-12.761
-17.4144
-18.7564
-15.6095
-7.81946
3.71048
17.4702
31.5345
44.8429
56.8336
67.2344
75.9489
82.9982
88.4735
92.5056
95.2413
96.8275
97.4016
97.0871
95.9927
94.2155
91.8439
88.9621
85.6529
82.0019
78.0975
74.033
69.8993
65.7812
61.7522
57.8699
54.1738
50.6872
47.4194
44.3698
41.5311
38.8916
36.4375
34.1537
32.0247
30.0359
28.1733
26.4247
24.7794
23.2284
21.7646
20.3828
19.0795
17.8438
1610.92
1628.77
1653.02
1695.38
1764.45
1879.71
2034.28
2198.91
2338.63
2427.66
2455.44
2423.57
2341.99
2224.46
2083.59
1929.37
1769.43
1609.81
1455.61
1310.14
1174.2
1046.77
927.071
816.027
715.712
627.97
551.883
485.41
427.541
376.732
332.556
296.039
268.273
249.308
237.563
230.349
225.528
220.344
213.477
204.561
194.022
183.38
173.309
164.171
156.118
149.124
143.039
137.648
132.711
127.995
123.299
118.47
113.41
108.079
102.487
96.6953
90.7961
84.8993
79.1162
73.5437
68.2548
63.2952
58.6855
54.4269
50.5071
46.9068
43.6031
40.5718
37.7888
35.2307
32.875
30.7011
28.6898
26.8241
25.0891
23.472
21.9622
20.551
19.2314
17.9883
14725.6
14389.8
13943.2
13342.6
12531.7
11615
10649.1
9668.89
8695.44
7749.15
6849.88
6010.73
5236.06
4524.16
3873.39
3285.27
2763.03
2309.72
1925.97
1607.1
1341.54
1114.33
915.125
742.279
600.137
492.737
420.965
383.097
371.802
374.654
379.07
377.776
368.806
352.59
330.453
304.469
277.06
250.348
226.319
206.083
190.01
177.088
166.778
158.616
152.151
146.945
142.584
138.691
134.933
131.04
126.805
122.097
116.86
111.121
104.965
98.5283
91.9762
85.4751
79.1724
73.1802
67.5698
62.374
57.5966
53.2229
49.2289
45.5866
42.2676
39.2432
36.4856
33.9677
31.6639
29.5504
27.6055
25.8101
24.1477
22.6042
21.1682
19.8305
18.5826
17.4066
-4259.41
-4108.19
-3916.79
-3687.91
-3422.34
-3138.44
-2864.64
-2631.49
-2446.12
-2282.62
-2108.49
-1913.11
-1705.88
-1498.49
-1294.61
-1090.33
-883.318
-678.159
-493.78
-353.518
-269.194
-233.159
-228.387
-243.497
-275.052
-319.027
-365.212
-398.985
-402.796
-367.073
-298.738
-217.739
-141.434
-76.7832
-24.2625
17.2658
49.2397
73.1464
90.39
102.389
110.41
115.493
118.475
120.009
120.56
120.421
119.736
118.537
116.784
114.401
111.319
107.503
102.971
97.8101
92.1702
86.2456
80.2488
74.3783
68.7908
63.5853
58.802
54.4352
50.4526
46.8136
43.4812
40.4254
37.6228
35.0536
32.6989
30.5402
28.5586
26.7357
25.0541
23.498
22.0536
20.7092
19.4551
18.2837
17.1873
16.1473
-10626.4
-10456.6
-10225.1
-9912.57
-9554.76
-9145.43
-8665.66
-8103.69
-7473.79
-6818.88
-6190.04
-5621.19
-5113.97
-4643.56
-4184.63
-3741.18
-3338.59
-2988.3
-2677.34
-2387.87
-2110.92
-1845.49
-1593.98
-1358.21
-1137.91
-930.973
-734.113
-542.017
-349.811
-153.906
37.2743
200.899
313.161
367.754
377.866
360.848
329.634
292.226
253.499
216.611
183.507
155.214
132.056
113.843
100.042
89.9213
82.6707
77.4934
73.6711
70.6052
67.8393
65.0672
62.1296
58.9981
55.7461
52.5071
49.4273
46.6215
44.1422
41.9717
40.0375
38.2454
36.5135
34.7933
33.0721
31.3626
29.6882
28.0713
26.5277
25.0656
23.6867
22.3884
21.1659
20.0132
18.9248
17.8957
16.9219
16.0003
15.127
14.2857
8816.81
8602.24
8345.45
8019.02
7559.05
7059.52
6585.09
6160.01
5770.43
5382.33
4956.77
4453.56
3848.61
3188.23
2608.36
2214.93
1980.32
1825.81
1713.04
1625.87
1548.85
1470.7
1387.25
1298.98
1206.33
1108.77
1004.92
893.956
777.282
657.952
539.899
428.004
327.404
241.749
171.498
115.709
72.3911
39.4376
14.973
-2.5976
-14.5887
-22.0937
-26.0537
-27.3059
-26.6062
-24.6288
-21.9525
-19.0437
-16.2438
-13.7618
-11.6767
-9.94752
-8.43426
-6.93153
-5.21498
-3.09567
-0.472124
2.6316
6.05529
9.53113
12.7518
15.4562
17.4948
18.8468
19.5904
19.8532
19.7675
19.4456
18.9719
18.4048
17.783
17.1317
16.4665
15.7978
15.1323
14.4748
13.8292
13.1988
12.5845
11.9741
8758.02
8625.93
8422.41
8084.98
7636.53
7199.1
6844.16
6556.84
6287.27
6001.45
5687.66
5343.03
4957.31
4512.45
4010.15
3493.09
3009.85
2573.73
2173.46
1799.32
1448.61
1122.33
823.367
556.317
327.754
143.317
5.45945
-88.7532
-147.543
-181.551
-200.015
-209.126
-212.637
-212.529
-209.803
-204.97
-198.348
-190.206
-180.842
-170.61
-159.899
-149.091
-138.527
-128.477
-119.124
-110.569
-102.846
-95.9366
-89.7712
-84.2112
-79.0428
-73.9954
-68.7804
-63.1338
-56.8562
-49.8504
-42.1555
-33.968
-25.6359
-17.6061
-10.3269
-4.13619
0.810441
4.54257
7.22095
9.06075
10.2751
11.0379
11.4813
11.6985
11.7541
11.6923
11.5439
11.3307
11.0687
10.7704
10.4459
10.1033
9.74801
9.37259
-13788.7
-13160.8
-12373.5
-11506.3
-10483.6
-9389.24
-8293.02
-7279.26
-6389.11
-5618.07
-4947.79
-4362.35
-3847.92
-3393.26
-2991.45
-2640.88
-2341.64
-2092.45
-1889.08
-1724
-1588.45
-1475.46
-1381.4
-1304.83
-1243.5
-1192.48
-1145.05
-1095.46
-1041.25
-982.351
-920.127
-855.563
-789.066
-721.234
-653.051
-585.763
-520.754
-459.361
-402.707
-351.569
-306.317
-266.944
-233.171
-204.552
-180.544
-160.541
-143.904
-129.996
-118.221
-108.039
-98.9692
-90.597
-82.5549
-74.5482
-66.3736
-57.9433
-49.2988
-40.6111
-32.1602
-24.2807
-17.2812
-11.3664
-6.59482
-2.88892
-0.0871758
1.95442
3.49372
4.6261
5.45686
6.06299
6.49736
6.79759
6.99099
7.09802
7.13464
7.11394
7.04714
6.94368
6.81048
6.64347
-625.908
-744.747
-918.667
-1145.72
-1412.78
-1694.66
-1980.3
-2259.22
-2515.81
-2735.69
-2913.07
-3052.83
-3165.66
-3260.06
-3339.65
-3404.6
-3453.04
-3480.83
-3481.81
-3448.68
-3374.83
-3256.65
-3095.19
-2896.6
-2670.32
-2427.17
-2178.18
-1932.55
-1697.6
-1478.11
-1277.49
-1097.01
-937.003
-796.733
-674.909
-570.188
-481.256
-406.664
-344.722
-293.531
-251.15
-215.825
-186.133
-160.977
-139.507
-121.067
-105.187
-91.5256
-79.8285
-69.8711
-61.4194
-54.2201
-48.0069
-42.5192
-37.5247
-32.8425
-28.362
-24.0512
-19.9485
-16.1358
-12.7012
-9.70617
-7.16809
-5.06186
-3.33493
-1.92498
-0.768874
0.185408
0.974727
1.62856
2.16885
2.61202
2.9709
3.25598
3.47642
3.64071
3.75702
3.83282
3.87435
3.87925
-137.554
64.9193
369.549
755.237
1227.64
1714.17
2172.56
2572.33
2896.17
3137.13
3294.9
3373.1
3377.27
3315.13
3196.83
3033.89
2837.97
2619.77
2388.76
2152.86
1918.94
1692.48
1477.64
1277.34
1094.01
928.975
782.002
652.057
538.082
437.59
348.774
270.281
202.437
145.916
100.59
65.092
37.3418
15.4786
-1.57315
-14.1719
-22.4373
-26.7479
-27.9022
-26.9278
-24.8077
-22.3148
-19.9685
-18.0604
-16.6669
-15.7713
-15.2747
-15.0386
-14.913
-14.7634
-14.4912
-14.0414
-13.3997
-12.5836
-11.6316
-10.5927
-9.51593
-8.44362
-7.40721
-6.42677
-5.51294
-4.66932
-3.89545
-3.18875
-2.54636
-1.96527
-1.44268
-0.976083
-0.562995
-0.200634
0.114379
0.386157
0.619446
0.819069
0.989731
1.1295
8201.45
8012.79
7793.95
7530.97
7179.74
6779.32
6341.98
5882.08
5416.34
4960.44
4529.28
4134.25
3780.15
3464.28
3179.41
2916.29
2666.71
2425.8
2192.94
1970.46
1761.78
1569.85
1396.18
1241.16
1104.35
984.602
880.151
788.409
706.023
629.93
558.004
488.26
420.112
354.031
291.212
232.942
181.06
137.103
101.755
74.6422
54.4564
39.4333
27.9404
18.9043
11.8932
6.82622
3.56598
1.72137
0.738849
0.105911
-0.51607
-1.27811
-2.19523
-3.20711
-4.22783
-5.17901
-5.98842
-6.62187
-7.06775
-7.33309
-7.43769
-7.40761
-7.26975
-7.04868
-6.76518
-6.43606
-6.07471
-5.69186
-5.29649
-4.89637
-4.49839
-4.1086
-3.73207
-3.37257
-3.03236
-2.71215
-2.41137
-2.12863
-1.86175
-1.6138
-8004.42
-7800.15
-7540.54
-7230.55
-6875.31
-6504.98
-6134.04
-5773.51
-5429.52
-5101.8
-4785.16
-4471.95
-4155.56
-3833.79
-3510.97
-3196.65
-2900.24
-2625.82
-2372.5
-2137.35
-1917.65
-1712.12
-1521.19
-1347.12
-1192.09
-1057.92
-945.385
-853.022
-777.215
-713.343
-657.44
-606.106
-557.503
-511.162
-467.179
-424.075
-379.888
-332.847
-282.063
-228.264
-173.898
-122.357
-76.8649
-39.6761
-11.7966
6.91622
17.5139
21.6876
21.4027
18.5107
14.4654
10.2234
6.30773
2.93343
0.147041
-2.09055
-3.85144
-5.21453
-6.25125
-7.02917
-7.59741
-7.99668
-8.25853
-8.40694
-8.46028
-8.43293
-8.33652
-8.18104
-7.97548
-7.72836
-7.4478
-7.14154
-6.81661
-6.47915
-6.13406
-5.78498
-5.43432
-5.08342
-4.73244
-4.38605
-4883.32
-4613.03
-4234.65
-3783.78
-3193.83
-2552.63
-1922.97
-1375.4
-969.802
-742.277
-693.229
-789.285
-976.327
-1195.76
-1395.5
-1537.52
-1603.32
-1593.35
-1519.42
-1395.98
-1235.56
-1050.83
-854.529
-658.879
-474.866
-312.187
-177.42
-73.1559
1.79356
51.4403
81.2746
96.9428
103.352
104.305
102.496
99.6948
96.9844
94.9355
93.7402
93.3261
93.4587
93.8072
94.0291
93.7503
92.6048
90.3336
86.8187
82.0755
76.2207
69.4538
62.0309
54.2342
46.3382
38.5809
31.1454
24.1549
17.6782
11.7436
6.34688
1.46469
-2.93735
-6.89929
-10.463
-13.6698
-16.5591
-19.1678
-21.5294
-23.674
-25.6279
-27.4136
-29.0498
-30.5509
-31.9277
-33.1867
-34.3309
-35.3603
-36.2738
-37.066
-37.7316
-38.2309
10053.4
9907.12
9753.75
9586.01
9405.77
9208.92
8956.55
8603.65
8126.08
7534.29
6867.39
6169.86
5474.87
4814.72
4216.29
3678.08
3172.55
2677.18
2192.02
1735.05
1327.94
985.319
709.706
495.131
331.574
209.523
120.394
56.902
13.2298
-14.9727
-30.8288
-36.4583
-33.4048
-23.1491
-7.22171
12.7582
35.0578
57.9004
79.559
98.4831
113.437
123.656
128.973
129.826
127.08
121.74
114.698
106.609
97.9
88.8515
79.6754
70.5488
61.6211
53.0112
44.8059
37.0628
29.8153
23.0785
16.8541
11.1333
5.8995
1.12985
-3.20392
-7.13422
-10.6964
-13.9275
-16.8644
-19.5426
-21.995
-24.2506
-26.3341
-28.2648
-30.0571
-31.7199
-33.2568
-34.6672
-35.9499
-37.0992
-38.0999
-38.8897
-5095.59
-4996.41
-4837.79
-4605.28
-4286.16
-3908.21
-3488.59
-3057.06
-2640.68
-2243.03
-1851.73
-1486.27
-1205.41
-1035.08
-923.743
-802.353
-636.133
-429.305
-205.464
10.3059
199.39
351.559
463.965
538.262
579.042
592.67
585.697
563.828
531.85
493.723
452.692
411.402
371.892
335.535
303.126
274.948
250.871
230.469
213.151
198.28
185.25
173.539
162.729
152.503
142.63
132.947
123.339
113.736
104.107
94.473
84.8907
75.4443
66.2273
57.3285
48.8242
40.7741
33.2213
26.1935
19.7039
13.7531
8.32989
3.41176
-1.0337
-5.04706
-8.67456
-11.965
-14.9668
-17.7252
-20.2806
-22.667
-24.9112
-27.033
-29.0448
-30.9525
-32.7552
-34.4471
-36.0208
-37.4662
-38.7595
-39.8246
-5932.89
-5693.27
-5408.07
-5127.53
-4827.14
-4481.34
-4107.08
-3737.29
-3362.3
-2968.41
-2574.94
-2215.41
-1906.57
-1628.79
-1356.31
-1085.44
-822.919
-574.302
-343.909
-136.525
43.8225
195.226
317.862
413.282
483.819
532.124
561.092
573.64
572.532
560.332
539.412
512.076
480.283
445.728
409.918
374.164
339.533
306.815
276.489
248.754
223.606
200.92
180.509
162.158
145.635
130.704
117.134
104.714
93.259
82.6226
72.6946
63.4001
54.6929
46.5472
38.9489
31.888
25.3532
19.3298
13.8013
8.7505
4.16046
0.0112144
-3.72473
-7.08605
-10.1226
-12.8913
-15.4501
-17.8514
-20.1388
-22.3452
-24.4929
-26.5944
-28.654
-30.6681
-32.6267
-34.5144
-36.314
-38.0065
-39.5618
-40.9022
12619.5
12235
11642.6
10852.5
9906.65
9052.73
8292.94
7575.63
6912.02
6319.51
5785.74
5289.13
4814.52
4354.36
3910.93
3492.2
3104.12
2749.42
2427.49
2135.15
1869.21
1628.57
1412.86
1222.49
1057.46
916.892
798.894
700.643
618.652
549.392
489.868
437.788
391.871
351.456
316.052
285.114
257.936
233.771
211.894
191.769
173.06
155.6
139.322
124.204
110.223
97.3425
85.4998
74.6196
64.6199
55.4191
46.9411
39.1176
31.8906
25.2147
19.0582
13.4042
8.24878
3.59888
-0.531954
-4.13084
-7.19695
-9.75548
-11.8679
-13.631
-15.1631
-16.5856
-18.0029
-19.4876
-21.0803
-22.7927
-24.6167
-26.5337
-28.5199
-30.5491
-32.5929
-34.6215
-36.6043
-38.5119
-40.3079
-41.9285
2080.31
2050.45
1925.23
1666.49
1316.84
1036.35
888.881
838.025
818.696
790.432
741.653
676.274
599.484
510.354
403.074
274.347
129.751
-16.4405
-147.335
-248.468
-311.318
-334.486
-321.881
-282.672
-227.232
-163.708
-98.8717
-38.8045
11.8144
50.3278
76.5453
92.4934
101.086
104.821
105.212
102.972
98.8134
93.3138
86.8795
79.8331
72.3997
64.7604
57.1019
49.6073
42.4281
35.6664
29.3706
23.5444
18.1623
13.184
8.56742
4.27704
0.289944
-3.40348
-6.80231
-9.90138
-12.6983
-15.1947
-17.3882
-19.2556
-20.7433
-21.7791
-22.3156
-22.3837
-22.1238
-21.7646
-21.5553
-21.6889
-22.2585
-23.2618
-24.6373
-26.3032
-28.1805
-30.2019
-32.3109
-34.4592
-36.6041
-38.7064
-40.7275
-42.6386
-15033
-14694.9
-14282.9
-13785.7
-13187.2
-12485.9
-11695.9
-10848.8
-9978.87
-9115.74
-8284.43
-7507.66
-6803.88
-6183.33
-5642.28
-5160.16
-4703.75
-4238.22
-3737.52
-3192.46
-2613.32
-2027.62
-1469.27
-969.485
-550.385
-221.177
20.1192
182.714
279.173
322.315
323.951
295.244
247.353
190.862
134.621
84.7914
44.305
13.6432
-8.21255
-22.9673
-32.3961
-38.0057
-40.9451
-42.0461
-41.9032
-40.9478
-39.5045
-37.818
-36.0669
-34.3755
-32.8269
-31.4733
-30.344
-29.455
-28.8113
-28.4046
-28.2077
-28.1668
-28.1946
-28.1685
-27.9462
-27.4041
-26.4904
-25.2691
-23.9199
-22.6896
-21.8177
-21.4719
-21.7184
-22.5288
-23.8147
-25.4669
-27.383
-29.4784
-31.6859
-33.9509
-36.2264
-38.469
-40.6324
-42.6717
11894.6
11686.6
11464.2
11175.1
10742.9
10195.3
9521.34
8711.51
7808.81
6903.3
6058.7
5276.04
4530.1
3804.8
3095.66
2402.95
1729.58
1080.56
466.254
-98.6285
-601.478
-1029.15
-1369.15
-1612.63
-1757.58
-1810.24
-1783.56
-1694.64
-1562.42
-1405.53
-1240.28
-1079.14
-930.085
-796.594
-678.844
-575.649
-485.931
-409.01
-344.168
-290.313
-246.138
-210.173
-180.96
-157.233
-137.846
-121.809
-108.367
-96.9627
-87.174
-78.6906
-71.2948
-64.8399
-59.2231
-54.3612
-50.1677
-46.5378
-43.3462
-40.4539
-37.7232
-35.0358
-32.3162
-29.5526
-26.8089
-24.2198
-21.9656
-20.2356
-19.1838
-18.889
-19.3336
-20.4156
-21.9899
-23.911
-26.0596
-28.348
-30.714
-33.1126
-35.5073
-37.8647
-40.147
-42.3132
5441.66
5465.51
5394.72
5123.98
4689.7
4155.67
3663.01
3309.88
3083.52
2905.32
2719.13
2524.79
2336.35
2155.79
1975.77
1788.78
1591.67
1387
1180.73
979.818
793.027
627.98
488.324
372.335
274.219
186.749
104.316
24.8196
-50.5657
-118.928
-177.366
-224.033
-258.334
-280.738
-292.273
-294.259
-288.35
-276.403
-260.261
-241.649
-222.01
-202.487
-183.893
-166.672
-151.041
-137.061
-124.675
-113.681
-103.929
-95.3024
-87.6677
-80.9063
-74.9191
-69.5989
-64.8119
-60.4029
-56.21
-52.0845
-47.9167
-43.6609
-39.353
-35.1133
-31.128
-27.61
-24.7495
-22.6697
-21.405
-20.9089
-21.0836
-21.8147
-22.9935
-24.5257
-26.3313
-28.3421
-30.5008
-32.7582
-35.0707
-37.3962
-39.6891
-41.8974
-17528.2
-16329.6
-14862.6
-13462.1
-12020.3
-10717.2
-9597.09
-8659.53
-7840.26
-7069.98
-6319.34
-5596.77
-4925
-4322.48
-3791.33
-3324.04
-2911.66
-2545.41
-2216.68
-1917.78
-1643.17
-1390.38
-1160.57
-958.162
-788.478
-655.087
-556.441
-484.744
-430.296
-385.334
-345.371
-308.693
-274.951
-243.895
-215.789
-190.9
-169.156
-150.463
-134.724
-121.676
-110.929
-102.077
-94.7437
-88.5895
-83.3213
-78.6822
-74.4283
-70.4488
-66.686
-63.1227
-59.7548
-56.473
-53.4287
-50.5999
-47.9263
-45.3296
-42.7244
-40.0366
-37.2237
-34.2935
-31.3128
-28.4017
-25.7144
-23.4084
-21.6131
-20.406
-19.8048
-19.7767
-20.2576
-21.1721
-22.4469
-24.0166
-25.8234
-27.8168
-29.9514
-32.1857
-34.4797
-36.7913
-39.0762
-41.2656
-715.935
-776.289
-876.611
-1012.72
-1140.01
-1192.45
-1166.88
-1142.33
-1199.48
-1345.87
-1507.52
-1582.42
-1519.17
-1356.85
-1190.13
-1085.56
-1044.41
-1034.93
-1028.85
-1007.77
-960.621
-881.884
-770.724
-629.777
-467.844
-298.258
-136.477
3.24321
112.99
191.956
243.711
273.113
284.623
281.859
268.421
247.392
221.279
192.607
163.374
135.409
109.8
87.0409
67.2705
50.3974
36.1981
24.3887
14.6718
6.75926
0.38545
-4.67048
-8.60074
-11.7079
-14.0207
-15.674
-16.7583
-17.3417
-17.4928
-17.279
-16.7765
-16.0766
-15.2848
-14.516
-13.8841
-13.4894
-13.407
-13.6794
-14.3164
-15.3013
-16.5998
-18.169
-19.9639
-21.9406
-24.0585
-26.2801
-28.571
-30.8985
-33.23
-35.53
-37.7742
-39.8697
11039.7
10861.7
10652.1
10367.1
9983.37
9547.43
9065.08
8502.85
7805.47
6916.16
5827.66
4672.65
3706.1
3084.54
2729.05
2488.59
2306.08
2178.2
2088.16
2010.61
1928.51
1834.49
1728.2
1611.8
1488.93
1363.31
1237.82
1113.97
992.226
872.992
757.245
646.965
545.153
454.691
376.739
311.401
257.731
213.934
178.32
149.016
124.731
104.6
87.9105
74.0114
62.3202
52.3616
43.7805
36.3269
29.8295
24.1692
19.2584
15.0251
11.4142
8.37739
5.86458
3.8171
2.1782
0.881702
-0.151002
-1.0059
-1.76386
-2.5136
-3.33655
-4.30131
-5.45955
-6.83634
-8.43837
-10.256
-12.266
-14.4361
-16.7302
-19.1107
-21.542
-23.992
-26.4329
-28.8394
-31.1907
-33.4538
-35.6503
-37.6066
-1481.45
-927.983
-136.883
719.527
1593.32
2371.75
3059.26
3632.6
4049.33
4306.35
4451.77
4539.77
4578.94
4529.19
4357.43
4079.43
3741.65
3385.05
3033.17
2697.14
2381.59
2088.04
1817.19
1569.41
1344.46
1141.12
957.42
791.322
641.236
506.813
388.82
288.686
207.467
145.625
102.363
74.688
58.3605
49.2644
44.3689
41.8724
40.8707
40.8029
41.1045
41.1738
40.5339
38.9685
36.5264
33.4214
29.9202
26.2682
22.6596
19.2355
16.0897
13.276
10.815
8.69941
6.90089
5.37344
4.06201
2.9008
1.81474
0.734465
-0.40289
-1.65336
-3.10563
-4.72501
-6.52201
-8.49767
-10.632
-12.8916
-15.2348
-17.6172
-19.9988
-22.3438
-24.6251
-26.8161
-28.9202
-30.8898
-32.8364
-34.4522
2404.73
1990.04
1472.45
896.098
230.616
-458.403
-1138.29
-1775.33
-2350.08
-2858.94
-3301.99
-3672.38
-3956.95
-4143.9
-4224.2
-4193.02
-4051.97
-3809.74
-3482.25
-3092.05
-2666.07
-2231.9
-1814.35
-1431.63
-1094.48
-807.617
-571.678
-384.555
-241.956
-137.932
-65.5318
-17.5635
13.0859
32.0004
43.2995
49.7303
52.6684
52.6928
50.1487
45.6096
39.8771
33.5677
27.269
21.3758
16.1528
11.7946
8.3992
5.92991
4.2315
3.08117
2.25674
1.588
0.975646
0.378755
-0.211427
-0.790703
-1.35373
-1.90115
-2.44319
-3.00062
-3.60355
-4.28807
-5.09249
-6.04949
-7.1365
-8.42554
-9.91323
-11.5758
-13.3853
-15.3104
-17.2953
-19.2633
-21.1667
-22.9676
-24.6313
-26.133
-27.4946
-28.6965
-29.8433
-30.7611
-11184.8
-10669.7
-9993.96
-9223.13
-8347.45
-7445.24
-6540.07
-5649.84
-4789.71
-3974.44
-3220.96
-2548.31
-1974.63
-1510.63
-1155.71
-896.873
-715.008
-591.303
-511.046
-464.258
-444.424
-446.722
-466.569
-498.924
-537.889
-577.342
-612.001
-637.932
-652.841
-655.889
-647.361
-628.38
-600.319
-564.548
-522.359
-475.073
-424.51
-372.372
-320.446
-270.161
-222.495
-178.096
-137.773
-102.337
-72.4631
-48.507
-30.38
-17.5786
-9.22722
-4.52093
-2.44727
-2.07443
-2.75121
-3.96613
-5.34958
-6.67584
-7.83186
-8.78334
-9.54712
-10.1703
-10.7147
-11.2468
-11.8291
-12.5142
-13.3399
-14.3326
-15.4972
-16.8178
-18.2589
-19.7571
-21.2431
-22.664
-23.9479
-25.1102
-26.0107
-26.6429
-27.0225
-27.1982
-27.1231
-27.0276
9912.85
9813.37
9634.99
9312.9
8851.38
8362.94
7903.77
7485.19
7089.98
6683.94
6233.28
5711.01
5102.64
4410.61
3660.27
2901.67
2194.45
1580.17
1070.72
659.376
334.957
86.6992
-96.1957
-224.962
-310.83
-364.362
-394.823
-409.742
-414.766
-413.74
-408.926
-401.413
-391.482
-378.896
-363.319
-344.594
-322.57
-297.809
-270.895
-242.488
-213.367
-184.42
-156.636
-131.024
-108.454
-89.4763
-74.2275
-62.474
-53.6711
-46.855
-41.4721
-37.2631
-33.9059
-31.1544
-28.8455
-26.8695
-25.155
-23.6589
-22.3597
-21.2539
-20.3469
-19.652
-19.185
-18.9602
-18.9863
-19.2623
-19.7747
-20.4939
-21.3737
-22.3516
-23.3553
-24.309
-25.1367
-25.6764
-25.9595
-25.9568
-25.6677
-25.1416
-24.3502
-23.6974
-1070.76
-826.743
-502.841
-204.719
49.4313
208.304
301.281
355.855
378.278
366.53
321.369
253.837
185.643
138.475
120.609
124.488
132.91
129.68
108.212
72.2678
30.5172
-8.62485
-39.9422
-61.5706
-74.0316
-79.2801
-79.9855
-78.8942
-78.3149
-79.7463
-83.7028
-89.8132
-97.0897
-104.335
-110.508
-114.846
-117.126
-117.384
-115.855
-112.849
-108.678
-103.636
-98.0008
-92.043
-86.0159
-80.1319
-74.5431
-69.3334
-64.5244
-60.0853
-55.9787
-52.149
-48.563
-45.1964
-42.0287
-39.045
-36.2383
-33.6092
-31.1664
-28.9248
-26.9044
-25.1278
-23.6173
-22.3916
-21.4649
-20.8391
-20.5049
-20.438
-20.5977
-20.9272
-21.3561
-21.8041
-22.1878
-22.427
-22.4672
-22.2823
-21.8853
-21.3222
-20.6374
-20.0626
-6967.16
-7098.48
-7253.36
-7374.85
-7452.98
-7478.2
-7453.76
-7383.55
-7278.97
-7152.85
-7011.88
-6850.45
-6653.82
-6404.61
-6086.51
-5684.79
-5185.8
-4585.97
-3903.47
-3180.73
-2473.01
-1831.39
-1290.79
-863.777
-543.179
-311.45
-149.413
-40.6635
27.7435
65.8802
81.6158
81.194
69.6142
50.9628
28.6202
5.44684
-16.5888
-36.1332
-52.5631
-65.6523
-75.4289
-82.1397
-86.1658
-87.9482
-87.9367
-86.5412
-84.0337
-80.664
-76.8041
-72.6634
-68.3712
-64.0259
-59.6988
-55.4396
-51.284
-47.2588
-43.3857
-39.6848
-36.1776
-32.8881
-29.8427
-27.0691
-24.5945
-22.4426
-20.6315
-19.1705
-18.0577
-17.2779
-16.8008
-16.5817
-16.5651
-16.6699
-16.8228
-16.9466
-16.9726
-16.8482
-16.541
-16.06
-15.6018
-15.1339
-3371.47
-3123.74
-2780.55
-2356.77
-1842.56
-1293.13
-735.484
-187.335
350.104
896.296
1475.96
2088.82
2691.38
3210.75
3581.76
3775.95
3801.94
3685.07
3452.84
3132.04
2750.44
2336.26
1915.72
1510.88
1137.96
807.28
524.369
291.151
106.738
-31.9899
-129.87
-192.98
-228.269
-242.195
-240.933
-230.323
-214.678
-197.202
-179.819
-163.603
-149.066
-136.319
-125.244
-115.626
-107.216
-99.7796
-93.1864
-87.3996
-81.9861
-76.8308
-71.8795
-67.0783
-62.3868
-57.7793
-53.2486
-48.8024
-44.4603
-40.2507
-36.2083
-32.371
-28.7782
-25.4685
-22.4775
-19.8362
-17.5686
-15.69
-14.2044
-13.1028
-12.3617
-11.9426
-11.7918
-11.8419
-12.0166
-12.2354
-12.4192
-12.498
-12.4156
-12.1274
-11.6092
-10.9925
18278
18044.8
17725.3
17200
16434
15492.9
14435.9
13306.1
12129.4
10921.9
9696.66
8464.52
7229.13
5990.42
4758.16
3559.42
2435.81
1438.2
617.696
10.2099
-378.534
-577.325
-637.925
-615.144
-552.052
-475.977
-401.931
-337.177
-284.584
-244.443
-215.563
-195.942
-183.048
-175.044
-169.842
-165.802
-161.864
-157.435
-152.249
-146.272
-139.622
-132.493
-125.102
-117.652
-110.297
-103.142
-96.234
-89.4753
-83.0297
-76.873
-70.974
-65.3119
-59.8718
-54.6501
-49.6488
-44.8758
-40.3429
-36.0632
-32.0494
-28.3116
-24.8583
-21.6974
-18.8388
-16.2956
-14.0852
-12.2273
-10.739
-9.62892
-8.89028
-8.49676
-8.40174
-8.54125
-8.83828
-9.20805
-9.56325
-9.81937
-9.89997
-9.73701
-9.2572
-8.53905
-38.8123
-38.5379
-37.5144
-36.0523
-34.2983
-32.3153
-30.1617
-27.9029
-25.6099
-23.3497
-21.1807
-19.1475
-17.2781
-15.5849
-14.067
-12.7127
-11.5108
-10.4409
-9.48615
-8.62608
-7.84195
-7.11558
-6.43116
-5.77747
-5.14888
-4.54585
-3.9722
-3.43451
-2.94139
-2.4999
-2.11515
-1.78964
-1.52302
-1.31235
-1.15279
-1.03852
-0.9635
-0.922035
-0.909167
-0.920822
-0.953818
-1.00576
-1.07491
-1.16007
-1.26048
-1.3757
-1.50549
-1.6498
-1.80882
-1.98304
-2.17333
-2.38092
-2.60713
-2.85247
-3.11513
-3.38928
-3.66454
-3.92749
-4.16494
-4.36687
-4.52791
-4.64752
-4.7297
-4.78198
-4.81359
-4.833
-4.84541
-4.85304
-4.85464
-4.84674
-4.82502
-4.78539
-4.72473
-4.6413
-4.53488
-4.40661
-4.2587
-4.09405
-3.91592
-3.72761
-3.53223
-3.33252
-3.13084
-2.92913
-2.72906
-2.53195
-2.33888
-2.15067
-1.968
-1.79142
-1.62142
-1.45841
-1.30271
-1.15454
-1.01411
-0.881561
-0.756974
-0.640361
-0.531699
-0.430967
-0.338154
-0.253245
-0.176209
-0.106989
-0.0455096
0.00833593
0.0547638
0.0941246
0.126751
0.153087
0.173686
0.189179
0.200239
0.207589
0.211937
0.21394
0.214226
0.213399
0.212022
0.21056
0.209325
0.20847
0.208043
0.208041
0.208439
0.209171
0.210121
0.211137
0.212079
0.212862
0.213454
0.213845
0.214018
0.213953
0.213639
0.213091
0.212341
0.211412
0.210306
0.209016
0.207544
0.205907
0.20413
0.202218
0.200163
0.19795
0.195576
0.193059
0.190422
0.187679
0.18483
0.181868
0.178797
0.175635
0.172402
0.169111
0.165758
0.162331
0.158826
0.155247
0.15161
0.147931
0.144224
0.140499
0.136768
0.133036
0.129304
0.125564
0.121804
0.118016
0.114207
0.110389
0.10658
0.102785
0.0990003
0.0952146
0.0914206
0.0876173
0.083807
0.0799884
0.0761534
0.0722919
0.0683998
0.064484
0.0605591
0.0566375
0.052721
0.0488014
0.0448691
0.0409249
0.0369827
0.0330659
0.0291886
0.0253531
0.021534
0.017714
0.013851
0.00997023
0.00601668
0.00208947
-39.9318
-40.0139
-39.1575
-37.7545
-36.0104
-33.9887
-31.7418
-29.3326
-26.8394
-24.3431
-21.9198
-19.6319
-17.5209
-15.6069
-13.8923
-12.3635
-11.017
-9.81702
-8.75067
-7.79615
-6.93538
-6.15175
-5.43066
-4.76095
-4.13594
-3.55375
-3.01401
-2.52309
-2.08539
-1.70596
-1.38749
-1.12992
-0.930693
-0.785026
-0.68678