/*--------------------------------*- C++ -*----------------------------------*\
| =========                 |                                                 |
| \\      /  F ield         | OpenFOAM: The Open Source CFD Toolbox           |
|  \\    /   O peration     | Version:  2012                                  |
|   \\  /    A nd           | Website:  www.openfoam.com                      |
|    \\/     M anipulation  |                                                 |
\*---------------------------------------------------------------------------*/
FoamFile
{
    version     2.0;
    format      ascii;
    class       volVectorField;
    location    "0.14";
    object      U;
}
// * * * * * * * * * * * * * * * * * * * * * * * * * * * * * * * * * * * * * //

dimensions      [0 1 -1 0 0 0 0];


internalField   nonuniform List<vector> 
42400
(
(4.87666 -1.70464 -1.22298e-16)
(28.2415 -12.4192 -1.74147e-16)
(48.3327 -26.6795 1.78015e-16)
(57.5595 -24.3802 0)
(53.5359 -13.688 0)
(46.589 -0.0881691 6.80108e-19)
(40.1894 11.8995 0)
(35.5607 20.8091 -5.98739e-19)
(32.8247 26.6152 0)
(31.5304 30.2186 -5.3143e-19)
(31.0495 32.8817 -5.04479e-19)
(31.1371 35.4242 4.80604e-19)
(32.001 37.797 8.62436e-17)
(33.854 39.476 -8.78406e-17)
(36.4681 39.9996 4.07975e-19)
(39.1341 39.2035 0)
(40.9378 37.218 0)
(41.0765 34.4055 0)
(39.0342 31.2067 0)
(34.829 27.9843 0)
(29.1246 24.9133 0)
(22.9752 21.9637 3.28299e-19)
(17.3774 19.0104 2.44572e-17)
(12.9382 15.9596 -3.92373e-18)
(9.83092 12.7886 -2.07079e-17)
(7.93193 9.54483 1.46889e-19)
(6.97962 6.33972 1.15971e-19)
(6.67611 3.34778 -1.77473e-19)
(6.73911 0.766493 0)
(6.92486 -1.22728 0)
(7.04622 -2.52193 -5.67353e-18)
(6.98173 -3.10552 5.73188e-18)
(6.67955 -3.07145 -3.39822e-20)
(6.17292 -2.57989 3.26322e-18)
(5.54397 -1.80963 -3.26338e-18)
(4.88908 -0.937714 0)
(4.28357 -0.11247 0)
(3.78512 0.571129 0)
(3.42085 1.07129 0)
(3.18712 1.38853 2.04586e-18)
(3.05962 1.54937 -2.05295e-18)
(3.00836 1.59068 1.91795e-18)
(3.00985 1.54671 -1.3707e-19)
(3.05323 1.44219 -3.56885e-18)
(3.14021 1.29083 1.71506e-18)
(3.27921 1.09888 -1.56295e-18)
(3.48316 0.870019 3.10936e-18)
(3.75508 0.606263 -1.48013e-18)
(4.09299 0.315352 -6.08653e-20)
(4.49145 0.0116252 1.28292e-18)
(4.93691 -0.289468 -2.4643e-18)
(5.40989 -0.572215 -1.53395e-20)
(5.8892 -0.819921 1.17982e-18)
(6.35348 -1.01641 -8.69188e-20)
(6.78246 -1.14686 0)
(7.15781 -1.19865 0)
(7.46386 -1.16219 0)
(7.68827 -1.03167 5.94398e-20)
(7.82247 -0.805646 5.40204e-20)
(7.86185 -0.487447 0)
(7.80575 -0.0854612 8.15783e-19)
(7.6574 0.38661 -8.43122e-19)
(7.4239 0.909605 -6.33501e-19)
(7.11618 1.45901 6.21634e-19)
(6.74914 2.00557 0)
(6.3414 2.51688 0)
(5.91461 2.96011 -3.5529e-19)
(5.49198 3.30622 3.474e-19)
(5.09591 3.5349 3.50188e-20)
(4.74558 3.63891 0)
(4.4552 3.62569 0)
(4.23418 3.51487 2.25294e-20)
(4.08891 3.33285 2.05862e-20)
(4.02473 3.10672 0)
(4.0464 2.8597 1.91196e-20)
(4.1574 2.609 2.20818e-19)
(4.3596 2.36754 -2.14227e-19)
(4.64739 2.14256 -3.58565e-20)
(5.04607 1.96602 -1.9331e-19)
(5.36494 1.77258 -1.51396e-19)
(5.91295 -6.37964 0)
(8.65298 -8.36619 -2.77095e-17)
(2.94972 -7.79371 2.86885e-17)
(0.923425 -6.56523 0)
(1.28718 -8.34806 0)
(2.33948 -8.70504 -2.26274e-17)
(2.52424 -6.5181 2.23881e-17)
(1.32504 -1.86426 5.87896e-19)
(-0.926521 4.55725 0)
(-3.63291 11.853 5.19666e-19)
(-6.36073 19.3827 4.92825e-19)
(-8.89179 26.7435 2.55233e-17)
(-11.316 33.8734 -1.45796e-19)
(-13.802 40.849 -2.68989e-17)
(-16.4771 47.7006 -2.58812e-17)
(-19.3591 54.3448 2.5898e-17)
(-22.2886 60.5567 0)
(-24.9008 65.9658 -5.29091e-20)
(-26.6552 70.1226 0)
(-26.9811 72.5958 0)
(-25.4936 73.0853 0)
(-22.2034 71.582 9.02454e-18)
(-17.6196 68.4696 -2.60588e-18)
(-12.5789 64.3955 -7.47115e-18)
(-7.85093 59.8758 0)
(-3.86867 55.0101 -1.51204e-19)
(-0.728374 49.6052 -1.15186e-19)
(1.67555 43.5054 1.76449e-19)
(3.51021 36.8272 -1.30087e-18)
(4.9012 29.9978 1.31744e-18)
(5.875 23.6123 1.60361e-20)
(6.38616 18.199 8.47228e-22)
(6.41216 14.0304 -1.82748e-18)
(6.0322 11.0789 1.88992e-18)
(5.39207 9.11099 1.14066e-18)
(4.65711 7.84539 -1.19831e-18)
(3.96661 7.04372 0)
(3.40558 6.5292 2.15573e-20)
(3.00639 6.17943 0)
(2.76749 5.91419 3.59311e-20)
(2.66965 5.68246 1.83821e-19)
(2.689 5.45206 -1.5302e-19)
(2.80419 5.20226 6.81563e-20)
(2.99902 4.9186 -6.82763e-20)
(3.2616 4.58951 7.77794e-20)
(3.58025 4.20414 -6.69082e-20)
(3.94575 3.75889 6.53591e-20)
(4.35668 3.264 4.64922e-19)
(4.80467 2.72964 -4.65372e-19)
(5.27102 2.16126 0)
(5.74065 1.57332 9.11762e-21)
(6.20219 0.987088 1.01967e-19)
(6.64417 0.42502 3.64865e-19)
(7.05417 -0.0902781 -3.6847e-19)
(7.41861 -0.537032 -2.262e-20)
(7.72365 -0.895563 7.28796e-19)
(7.95688 -1.14956 -7.64969e-19)
(8.10889 -1.28696 -5.94591e-20)
(8.1741 -1.30032 -5.40482e-20)
(8.15085 -1.18686 5.99205e-19)
(8.04097 -0.948309 -5.89711e-19)
(7.84937 -0.59109 4.11517e-20)
(7.58371 -0.126587 2.34294e-20)
(7.25441 0.42829 0)
(6.87474 1.05061 -4.11342e-19)
(6.46107 1.71121 3.4344e-20)
(6.03286 2.37509 4.40315e-19)
(5.61258 3.00348 0)
(5.22441 3.55628 -6.06523e-20)
(4.89295 3.99769 1.92726e-20)
(4.64036 4.3012 1.66547e-19)
(4.48368 4.45501 -1.84762e-19)
(4.43227 4.46358 -1.30859e-19)
(4.48801 4.34653 1.08359e-19)
(4.6468 4.13258 -1.85657e-20)
(4.90021 3.8517 8.39086e-20)
(5.23833 3.53185 -8.42538e-20)
(5.6428 3.18854 3.5813e-20)
(6.12729 2.86314 -6.33582e-20)
(6.52681 2.4716 6.43349e-20)
(6.89062 -6.8312 -1.96229e-17)
(22.7716 -20.8148 -4.81497e-20)
(37.6847 -32.8149 5.6921e-20)
(51.8113 -44.1495 -3.27748e-20)
(65.8505 -54.8392 0)
(77.2098 -63.8839 -4.66685e-17)
(84.3095 -69.9835 9.04004e-17)
(86.9088 -72.8109 -4.36216e-17)
(85.8551 -72.921 3.43626e-17)
(82.2923 -71.1187 -4.85943e-18)
(77.176 -68.1323 -3.06758e-17)
(71.2897 -64.5862 6.45953e-21)
(65.1156 -60.7773 2.24404e-20)
(58.914 -56.7998 1.68696e-17)
(52.6715 -52.6357 -1.71591e-17)
(46.2578 -48.2034 1.04088e-19)
(39.6116 -43.3914 -1.43228e-17)
(32.7854 -38.1725 3.27909e-21)
(25.8347 -32.74 1.48193e-17)
(18.9 -27.3173 1.4287e-20)
(12.2631 -21.9424 -1.45602e-20)
(6.01314 -16.7141 -1.51302e-20)
(-0.0826764 -11.8318 0)
(-6.24862 -7.16739 -2.07637e-20)
(-12.5149 -2.25063 5.31313e-18)
(-18.7621 3.17255 -7.39489e-18)
(-24.5832 8.75935 2.02049e-18)
(-29.0444 13.645 2.7331e-18)
(-30.9751 16.7241 -2.77388e-18)
(-29.7972 17.2386 -3.4114e-18)
(-26.0052 15.3868 6.10891e-18)
(-20.8934 12.2378 -9.38126e-19)
(-15.7553 8.97199 -1.80055e-18)
(-11.3354 6.29919 0)
(-7.83396 4.41162 0)
(-5.15594 3.21058 2.26994e-20)
(-3.12249 2.51655 0)
(-1.56315 2.1742 2.26088e-20)
(-0.350865 2.06337 -1.10041e-18)
(0.600919 2.09315 2.25445e-18)
(1.35158 2.19715 -1.14301e-18)
(1.94486 2.32849 0)
(2.41546 2.45511 0)
(2.79225 2.55429 -8.00136e-19)
(3.10093 2.60865 7.89839e-19)
(3.36713 2.60585 3.65178e-20)
(3.61216 2.53262 0)
(3.85488 2.37435 0)
(4.11906 2.12515 -3.2642e-19)
(4.42419 1.78838 3.24831e-19)
(4.77654 1.37262 -9.12842e-21)
(5.16851 0.893077 0)
(5.58099 0.372817 1.30714e-19)
(5.98748 -0.159877 -1.03594e-19)
(6.35987 -0.675295 1.00909e-19)
(6.67374 -1.14567 -3.75321e-20)
(6.91143 -1.54723 3.30987e-21)
(7.06264 -1.86097 8.07452e-20)
(7.12331 -2.0725 -1.63247e-19)
(7.09415 -2.1716 -3.98733e-20)
(6.97932 -2.15184 1.38444e-19)
(6.78569 -2.01048 2.05946e-19)
(6.5226 -1.74878 -2.2578e-19)
(6.20198 -1.37258 0)
(5.83865 -0.893107 1.94806e-19)
(5.45055 -0.327705 -9.89681e-21)
(5.05868 0.29976 -2.58941e-19)
(4.68686 0.959368 0)
(4.36044 1.61589 2.12309e-20)
(4.10495 2.23208 3.56595e-20)
(3.94333 2.77176 -6.74677e-20)
(3.89355 3.20539 0)
(3.96531 3.51378 0)
(4.15824 3.69011 -1.08547e-21)
(4.46237 3.73903 -5.29711e-22)
(4.86092 3.67491 -5.55112e-20)
(5.33008 3.51742 1.0525e-19)
(5.84816 3.29099 0)
(6.36644 3.01389 -3.18416e-21)
(6.89201 2.72894 -8.47856e-20)
(19.3998 -12.9147 5.70482e-17)
(48.2298 -29.4275 -8.21129e-17)
(60.0096 -36.3227 4.07346e-17)
(62.4162 -33.3172 3.39345e-17)
(57.5246 -27.8178 -3.46662e-17)
(48.3362 -20.2457 0)
(36.699 -12.7679 3.97322e-17)
(24.2089 -6.59567 -4.0762e-17)
(11.5286 -1.84097 2.18989e-17)
(-1.21423 1.83124 -2.24077e-17)
(-13.5468 4.54869 1.00822e-17)
(-24.5386 6.21866 -1.74621e-17)
(-33.4439 6.88938 1.34213e-17)
(-40.2509 6.91267 -1.28687e-17)
(-45.4551 6.67263 1.48872e-17)
(-49.5006 6.20666 -8.31766e-18)
(-52.6264 5.46191 -1.16334e-17)
(-54.9028 4.47303 2.4847e-17)
(-56.3046 3.35225 -1.31757e-17)
(-56.7197 2.1489 -1.49896e-20)
(-55.9702 0.810173 6.01942e-20)
(-53.9799 -0.742632 -1.17772e-17)
(-50.8779 -2.51019 1.19384e-17)
(-46.9445 -4.34857 -1.09563e-20)
(-42.5071 -6.01851 0)
(-37.8394 -7.31043 8.1812e-21)
(-33.0722 -8.14047 0)
(-28.2164 -8.56439 -3.09324e-19)
(-23.3033 -8.72658 -1.46798e-18)
(-18.4944 -8.77386 1.87205e-18)
(-14.0305 -8.79357 3.29789e-18)
(-10.1388 -8.79877 -3.31067e-18)
(-6.91314 -8.75589 7.96718e-20)
(-4.33631 -8.61559 9.86385e-20)
(-2.33347 -8.33466 2.62365e-18)
(-0.81314 -7.87942 -2.71615e-18)
(0.300151 -7.24737 0)
(1.0704 -6.46943 -1.77307e-18)
(1.56412 -5.59267 1.73607e-18)
(1.85054 -4.67013 -7.76268e-20)
(1.99752 -3.7533 7.43185e-20)
(2.06695 -2.88628 0)
(2.11152 -2.1028 0)
(2.17292 -1.42509 0)
(2.28201 -0.864416 4.45349e-20)
(2.45851 -0.424306 -5.37239e-19)
(2.71106 -0.104973 4.9945e-19)
(3.03696 0.0962178 0)
(3.42479 0.184363 0)
(3.85671 0.166655 -3.49473e-19)
(4.30967 0.0527834 3.17431e-19)
(4.75781 -0.144744 -3.06976e-19)
(5.17648 -0.410893 2.23029e-19)
(5.54593 -0.728625 -5.32537e-20)
(5.85306 -1.07938 2.09088e-19)
(6.09084 -1.44346 -2.74872e-19)
(6.25621 -1.80046 4.61469e-19)
(6.3481 -2.13001 -4.10981e-19)
(6.36666 -2.41274 0)
(6.31334 -2.63123 3.95119e-20)
(6.19132 -2.77069 3.13948e-19)
(6.00582 -2.8195 -6.73238e-20)
(5.76442 -2.7696 -5.42419e-19)
(5.47734 -2.61699 4.19104e-19)
(5.15793 -2.36233 -1.53978e-19)
(4.82285 -2.01159 -1.82928e-19)
(4.49202 -1.57654 1.32274e-19)
(4.18791 -1.0749 4.77178e-20)
(3.93436 -0.529927 1.73632e-19)
(3.75457 0.0308849 -2.11451e-19)
(3.66864 0.57791 6.2757e-20)
(3.69096 1.08222 3.37474e-19)
(3.82801 1.51862 -2.80218e-19)
(4.07691 1.86825 0)
(4.4252 2.12037 3.04929e-19)
(4.85159 2.27278 -5.24293e-20)
(5.32612 2.32999 -6.46282e-19)
(5.81621 2.3071 2.67962e-19)
(6.26652 2.20387 -2.33115e-19)
(6.71274 2.12592 2.25388e-19)
(9.82925 -8.37992 -3.20459e-17)
(19.4227 -21.2256 0)
(24.4138 -27.0929 0)
(22.5536 -32.3943 -2.76442e-19)
(17.8974 -32.7405 0)
(8.057 -30.1141 0)
(-5.35282 -25.5047 0)
(-19.5307 -20.4653 -2.57088e-19)
(-31.617 -16.5442 0)
(-38.922 -14.7378 2.71086e-19)
(-39.4828 -15.5713 -2.05778e-17)
(-33.3925 -18.6859 3.40519e-17)
(-23.9584 -22.5663 -1.31326e-17)
(-16.166 -25.1457 0)
(-12.7958 -24.9223 -9.38857e-21)
(-13.0109 -22.11 1.17198e-19)
(-14.5272 -18.0524 0)
(-15.8579 -14.0244 -5.69753e-18)
(-16.513 -10.5823 1.24624e-17)
(-16.4662 -7.77422 8.03551e-19)
(-15.8291 -5.52072 -7.47792e-18)
(-14.7335 -3.75055 3.27662e-20)
(-13.3162 -2.39991 0)
(-11.7127 -1.39662 8.35319e-18)
(-10.0326 -0.660943 -8.6207e-18)
(-8.34209 -0.118925 7.78414e-18)
(-6.6628 0.279737 -7.93043e-18)
(-4.98351 0.547434 -6.71015e-18)
(-3.28211 0.662123 6.73439e-18)
(-1.54251 0.595097 0)
(0.228225 0.344277 4.62294e-18)
(1.98508 -0.0595787 -4.66748e-18)
(3.64575 -0.553348 -1.10054e-19)
(5.09793 -1.07846 2.83684e-18)
(6.23141 -1.5661 -2.95793e-18)
(6.97545 -1.95281 6.75676e-20)
(7.32765 -2.18737 7.25654e-21)
(7.33781 -2.25564 1.66618e-18)
(7.08967 -2.1781 -1.67471e-18)
(6.68162 -1.99199 -1.2899e-18)
(6.20521 -1.7376 7.34919e-20)
(5.73178 -1.44973 1.18843e-18)
(5.30876 -1.15449 0)
(4.96244 -0.869881 -3.38009e-20)
(4.70326 -0.607851 7.14025e-19)
(4.53083 -0.376609 -1.57862e-18)
(4.43754 -0.182141 1.45162e-18)
(4.41115 -0.0291064 -6.62783e-19)
(4.43716 0.0784991 0)
(4.50143 0.136722 -4.45378e-20)
(4.59253 0.141228 6.00963e-19)
(4.70302 0.0875213 -6.11704e-19)
(4.82882 -0.0278055 -3.35673e-20)
(4.96672 -0.205053 5.3139e-19)
(5.11123 -0.43947 -4.23366e-19)
(5.25295 -0.720407 5.28461e-19)
(5.37943 -1.032 5.73734e-19)
(5.4779 -1.35503 -1.0477e-18)
(5.53802 -1.66902 9.25075e-19)
(5.55333 -1.95405 -9.51169e-19)
(5.5213 -2.19202 0)
(5.44271 -2.3676 3.39946e-20)
(5.32133 -2.46901 7.05262e-19)
(5.16389 -2.48851 -6.3472e-19)
(4.98029 -2.42275 -1.60346e-19)
(4.78358 -2.27281 0)
(4.58953 -2.04418 -6.42821e-19)
(4.4159 -1.74677 5.3499e-19)
(4.28113 -1.39468 4.76314e-20)
(4.20267 -1.0058 8.27543e-20)
(4.19499 -0.600701 -1.28034e-19)
(4.2673 -0.20112 2.60812e-20)
(4.42162 0.172167 5.69628e-19)
(4.65135 0.501409 -4.83841e-19)
(4.94097 0.77358 6.38733e-20)
(5.26707 0.981417 0)
(5.601 1.12385 4.73356e-19)
(5.91294 1.20577 -3.76309e-19)
(6.17863 1.23348 0)
(6.40179 1.26345 2.85028e-19)
(-2.8566 1.45129 -9.28457e-20)
(5.37481 -4.30459 1.6654e-17)
(26.5688 -18.7414 -1.77075e-17)
(40.1125 -28.6201 3.63353e-17)
(33.9325 -26.6731 -1.83539e-17)
(14.1904 -15.2728 -5.09947e-20)
(-7.07843 -1.56157 -1.5691e-17)
(-19.1201 7.39642 1.65114e-17)
(-19.7054 9.14076 1.48786e-19)
(-13.7743 6.51116 -9.75316e-20)
(-6.91808 3.28148 1.62223e-17)
(-1.99226 1.11574 1.47278e-17)
(0.348508 0.0362212 -3.21986e-17)
(0.567637 -0.427965 2.63193e-17)
(-0.245057 -0.584614 -4.92429e-17)
(-1.15444 -0.60585 2.32134e-17)
(-1.71067 -0.550774 0)
(-1.86787 -0.446334 0)
(-1.71295 -0.28872 -1.07271e-17)
(-1.32669 -0.0710543 2.4057e-18)
(-0.77348 0.195416 8.22634e-18)
(-0.102649 0.478393 -4.17301e-18)
(0.646034 0.735585 6.80714e-18)
(1.43991 0.925062 -2.52845e-18)
(2.25445 1.01436 2.44163e-20)
(3.07194 0.986743 9.40205e-19)
(3.87803 0.841436 -8.56717e-19)
(4.65767 0.592213 1.08429e-19)
(5.38955 0.262515 -1.08712e-19)
(6.04092 -0.12021 2.10486e-19)
(6.56803 -0.530714 0)
(6.91565 -0.958253 2.52148e-18)
(7.04776 -1.37804 -5.10699e-18)
(6.96324 -1.76001 2.56245e-18)
(6.68771 -2.08463 0)
(6.2685 -2.34641 -1.71357e-18)
(5.76942 -2.54247 1.72519e-18)
(5.25172 -2.6715 0)
(4.76157 -2.73271 0)
(4.32807 -2.72706 -5.71557e-19)
(3.96715 -2.65918 5.62634e-19)
(3.68653 -2.53782 -3.94742e-20)
(3.48909 -2.37479 0)
(3.37442 -2.1832 -2.32384e-19)
(3.33914 -1.97567 -1.08898e-19)
(3.37703 -1.7632 4.50074e-19)
(3.47917 -1.55462 4.85536e-20)
(3.6345 -1.35662 -9.6807e-20)
(3.83058 -1.17416 0)
(4.05453 -1.01106 8.46994e-19)
(4.29365 -0.870663 -1.64085e-18)
(4.53581 -0.756341 8.83108e-19)
(4.76977 -0.671858 8.89594e-20)
(4.98563 -0.621363 9.12978e-19)
(5.17569 -0.608971 -9.39498e-20)
(5.33538 -0.637878 -1.58711e-18)
(5.46378 -0.709086 5.82546e-19)
(5.56307 -0.819992 0)
(5.63681 -0.963292 0)
(5.6879 -1.12677 -1.00599e-19)
(5.71718 -1.29429 -9.53924e-20)
(5.72351 -1.4479 0)
(5.7052 -1.57046 -1.08191e-18)
(5.66193 -1.64792 1.06411e-18)
(5.59627 -1.67082 1.12569e-18)
(5.51427 -1.63474 1.05181e-19)
(5.42501 -1.53999 -8.46793e-19)
(5.33952 -1.39104 8.59761e-19)
(5.26943 -1.19582 -8.39651e-19)
(5.22539 -0.965081 2.60544e-20)
(5.21566 -0.711637 -6.44376e-19)
(5.24473 -0.449458 6.29054e-19)
(5.31248 -0.192503 5.65751e-19)
(5.41393 0.0465755 -7.02388e-19)
(5.54014 0.257675 4.88157e-19)
(5.68015 0.434165 -5.35872e-19)
(5.82397 0.573258 4.67447e-19)
(5.96554 0.675652 -8.79591e-19)
(6.10524 0.746078 2.61353e-20)
(6.24537 0.802426 2.81868e-20)
(4.05845 -2.49809 2.60124e-17)
(14.6193 1.18351 6.54904e-20)
(16.403 -6.56514 -2.41871e-17)
(17.8467 -5.49739 4.31756e-17)
(12.3353 -5.85128 -1.88696e-17)
(7.02598 -3.28206 8.28595e-18)
(3.35375 -0.394944 -5.01475e-18)
(1.88025 2.00189 -3.68781e-18)
(1.84658 3.49822 -4.64114e-18)
(1.96053 4.33525 4.35121e-18)
(1.5494 5.15589 -8.63273e-18)
(0.633213 6.22492 8.84275e-18)
(-0.503717 7.36994 -9.07983e-18)
(-1.59116 8.40219 9.06484e-18)
(-2.43104 9.22753 -1.57878e-19)
(-2.95722 9.7603 -1.33774e-19)
(-3.22101 9.96177 -8.49666e-18)
(-3.28467 9.77618 8.63502e-18)
(-3.16555 9.19574 1.19775e-19)
(-2.88129 8.30382 3.46727e-19)
(-2.50493 7.23039 3.94965e-18)
(-2.14951 6.12109 -3.38238e-18)
(-1.9048 5.0501 0)
(-1.80524 4.06592 -2.50002e-19)
(-1.8178 3.1438 0)
(-1.86513 2.25346 0)
(-1.87287 1.38648 -1.72345e-19)
(-1.7965 0.563836 -1.15595e-17)
(-1.62441 -0.179713 1.18518e-17)
(-1.3644 -0.818129 1.00473e-17)
(-1.0273 -1.34963 -1.03738e-17)
(-0.623485 -1.7937 1.80208e-19)
(-0.167137 -2.17782 -1.60362e-19)
(0.325756 -2.5273 0)
(0.835253 -2.85455 -4.79731e-20)
(1.33764 -3.15653 0)
(1.81091 -3.42122 0)
(2.24123 -3.63562 -5.56651e-21)
(2.62432 -3.78905 0)
(2.96429 -3.87541 0)
(3.27049 -3.89374 3.84645e-19)
(3.5537 -3.84668 -3.7408e-19)
(3.82311 -3.73907 0)
(4.0847 -3.5774 0)
(4.34069 -3.36928 0)
(4.58978 -3.12314 7.9742e-20)
(4.82769 -2.8479 -4.85769e-20)
(5.0481 -2.55275 -1.04062e-18)
(5.24363 -2.24701 1.09019e-18)
(5.407 -1.9401 -1.18027e-18)
(5.53212 -1.64146 1.3254e-18)
(5.61518 -1.36052 -1.52247e-19)
(5.65558 -1.10656 -8.75767e-20)
(5.65679 -0.888378 0)
(5.6266 -0.713814 0)
(5.57675 -0.589041 9.32837e-19)
(5.52151 -0.517669 8.73646e-20)
(5.4752 -0.499784 -1.03937e-18)
(5.44908 -0.531096 9.60969e-19)
(5.44864 -0.602598 -9.78183e-19)
(5.47239 -0.701086 -1.62582e-18)
(5.5128 -0.810706 7.30292e-20)
(5.55926 -0.915189 3.00192e-18)
(5.60154 -1.00016 -1.4914e-18)
(5.63255 -1.05482 -9.43743e-20)
(5.64958 -1.07273 -1.40695e-19)
(5.65406 -1.05171 -1.15999e-18)
(5.6504 -0.993195 2.21603e-18)
(5.64457 -0.901384 -1.05678e-18)
(5.64277 -0.782454 -1.08771e-19)
(5.65047 -0.643799 -8.73346e-19)
(5.67182 -0.493342 9.61457e-19)
(5.70949 -0.338861 0)
(5.76479 -0.187366 8.24375e-20)
(5.83813 -0.0445955 0)
(5.92939 0.0852952 -5.85734e-19)
(6.03793 0.199793 3.2595e-20)
(6.16212 0.297863 5.19076e-19)
(6.29898 0.380425 -3.23476e-19)
(6.44431 0.45439 -7.8592e-20)
(-8.98266 3.05107 2.27294e-17)
(-21.9308 3.15565 -3.4148e-17)
(-27.535 3.21687 1.35316e-19)
(-32.3226 -3.33136 -2.52074e-17)
(-34.5443 -8.1268 2.57568e-17)
(-35.0664 -13.4546 -1.50843e-17)
(-33.7438 -18.8735 2.54163e-17)
(-30.9072 -24.3754 -9.97442e-18)
(-26.9852 -30.2383 -7.94947e-19)
(-22.1768 -36.2388 8.66622e-19)
(-16.7407 -41.799 0)
(-11.0985 -46.2684 1.99292e-19)
(-5.75496 -49.2277 -2.4211e-19)
(-1.21625 -50.3958 0)
(1.9745 -49.4806 0)
(3.33083 -46.2779 0)
(2.78199 -40.9659 0)
(0.941226 -34.3692 2.11247e-19)
(-1.16616 -27.485 0)
(-2.81592 -20.9243 -2.11396e-17)
(-3.91708 -14.8608 2.08292e-17)
(-4.73322 -9.30089 3.01144e-17)
(-5.47336 -4.35827 -3.08931e-17)
(-6.2253 -0.177088 -2.02042e-17)
(-6.92356 3.09186 2.08842e-17)
(-7.39628 5.31182 -1.20622e-17)
(-7.46064 6.41124 1.24034e-17)
(-7.01724 6.45575 -5.5604e-18)
(-6.11295 5.66636 2.57993e-18)
(-4.92185 4.35909 2.99263e-18)
(-3.66195 2.85178 0)
(-2.51228 1.38231 -1.07883e-20)
(-1.57145 0.0669677 -2.02711e-20)
(-0.848563 -1.07044 0)
(-0.283865 -2.043 4.81497e-20)
(0.201258 -2.87432 0)
(0.664383 -3.59066 0)
(1.13654 -4.20174 -2.05002e-18)
(1.62823 -4.70005 3.97407e-18)
(2.13432 -5.08178 -1.95946e-18)
(2.64258 -5.34777 -1.74371e-18)
(3.13971 -5.50156 1.79824e-18)
(3.61355 -5.5494 5.6192e-20)
(4.05392 -5.50005 0)
(4.45253 -5.36411 -1.83721e-18)
(4.80245 -5.15324 1.6336e-18)
(5.09794 -4.87956 0)
(5.33441 -4.55522 0)
(5.50884 -4.19215 1.59231e-18)
(5.62039 -3.8021 -1.83769e-18)
(5.67121 -3.39663 -1.89535e-18)
(5.66708 -2.98732 1.75782e-18)
(5.61802 -2.58584 1.6931e-18)
(5.53816 -2.20396 -3.14663e-18)
(5.4451 -1.85328 1.54021e-18)
(5.35803 -1.54458 3.69348e-19)
(5.29505 -1.28675 0)
(5.2699 -1.08552 -1.86411e-19)
(5.28923 -0.942241 1.0532e-18)
(5.35127 -0.853269 -2.23194e-18)
(5.44665 -0.810258 1.13592e-18)
(5.56124 -0.801325 0)
(5.67983 -0.81285 1.08786e-19)
(5.78957 -0.831407 0)
(5.88199 -0.845398 9.43732e-20)
(5.95355 -0.846087 1.01915e-19)
(6.00497 -0.827992 1.87502e-19)
(6.03996 -0.788742 1.27449e-18)
(6.06394 -0.728592 -1.08644e-18)
(6.0829 -0.649793 1.45338e-19)
(6.10259 -0.555948 9.97328e-19)
(6.12794 -0.451421 -1.20441e-18)
(6.16266 -0.340847 8.41472e-19)
(6.20898 -0.22872 -8.18215e-19)
(6.26744 -0.119099 7.98438e-19)
(6.33684 -0.0154219 -5.99386e-19)
(6.41449 0.0795528 -5.86053e-19)
(6.49663 0.163729 5.68034e-19)
(6.57966 0.236437 -1.1954e-19)
(6.66211 0.300199 1.08971e-19)
(-4.91369 4.73298 4.67272e-17)
(-10.2315 14.1561 6.60249e-17)
(-14.5544 19.4824 -1.31064e-16)
(-15.752 26.5853 1.25518e-16)
(-15.6347 29.7791 -6.18425e-17)
(-14.301 32.0752 -1.41865e-19)
(-13.7585 33.7318 4.48877e-17)
(-14.9465 34.8244 -8.40872e-17)
(-16.9508 34.9037 7.4756e-18)
(-17.8402 33.1696 3.21332e-17)
(-16.1342 29.135 -1.52675e-20)
(-11.5707 22.9364 -1.4626e-17)
(-4.92757 15.2215 1.49278e-17)
(2.63437 6.80915 -6.80363e-18)
(10.0989 -1.53939 6.93819e-18)
(16.8231 -9.21817 2.03501e-18)
(22.5264 -15.7997 -2.07304e-18)
(27.084 -20.9973 -2.13092e-19)
(30.3064 -24.5998 0)
(31.8262 -26.4854 1.66459e-18)
(31.2773 -26.6487 -1.57852e-18)
(28.5854 -25.2613 -1.91451e-19)
(24.0668 -22.6493 -1.39522e-18)
(18.2758 -19.252 1.568e-18)
(11.9139 -15.5801 -2.60726e-19)
(5.72514 -12.1247 0)
(0.475478 -9.35043 9.94806e-20)
(-3.2423 -7.55693 3.62543e-20)
(-5.19339 -6.8663 3.71049e-20)
(-5.62465 -7.13324 -1.14418e-19)
(-5.11297 -7.99441 2.14681e-19)
(-4.23972 -9.0623 -2.57363e-19)
(-3.33466 -10.073 -7.10254e-20)
(-2.46731 -10.912 -3.20237e-19)
(-1.5935 -11.5405 6.88173e-19)
(-0.679945 -11.932 -2.81774e-19)
(0.256739 -12.0699 1.66213e-19)
(1.17295 -11.9635 -2.53987e-19)
(2.03025 -11.6695 -4.97918e-20)
(2.80795 -11.2607 9.52888e-20)
(3.50741 -10.7909 -5.03834e-20)
(4.13901 -10.293 1.75846e-18)
(4.70876 -9.78128 1.38e-19)
(5.21771 -9.25985 -1.95609e-18)
(5.66378 -8.72716 2.34863e-18)
(6.0431 -8.17946 -2.22359e-18)
(6.35146 -7.61333 0)
(6.58558 -7.02714 -2.55221e-18)
(6.74418 -6.42185 2.49067e-18)
(6.82881 -5.80136 -2.20942e-18)
(6.84441 -5.1724 1.59425e-19)
(6.79954 -4.54416 4.93973e-20)
(6.70623 -3.92776 6.2075e-20)
(6.57934 -3.33556 7.25068e-20)
(6.43539 -2.78038 2.02702e-18)
(6.29141 -2.27455 -8.08805e-20)
(6.16254 -1.82872 0)
(6.06059 -1.45096 1.79738e-18)
(5.99265 -1.14568 -1.41334e-18)
(5.96053 -0.912885 0)
(5.96128 -0.747954 1.45326e-18)
(5.98852 -0.642065 -1.09877e-18)
(6.03422 -0.583208 0)
(6.09029 -0.557664 1.33102e-19)
(6.14978 -0.551649 0)
(6.2075 -0.552797 1.57008e-18)
(6.26015 -0.551234 -3.25397e-18)
(6.30631 -0.540114 1.49738e-18)
(6.34608 -0.515645 -1.58321e-19)
(6.38069 -0.476705 -1.45335e-19)
(6.41201 -0.424241 1.07361e-18)
(6.44208 -0.3606 -9.23591e-19)
(6.47268 -0.288917 1.16501e-19)
(6.50514 -0.212624 1.06084e-19)
(6.54026 -0.135087 -1.89887e-19)
(6.57839 -0.0593472 -8.51064e-20)
(6.61963 0.0120528 -6.9466e-19)
(6.66398 0.077268 3.797e-20)
(6.7117 0.135704 6.061e-19)
(6.76413 0.18723 1.19581e-19)
(20.0133 -8.39422 0)
(29.4409 -12.2678 -2.20609e-19)
(11.3655 -2.91619 4.2001e-19)
(-12.0137 8.42629 1.17843e-17)
(-28.5858 17.1911 -2.5211e-17)
(-41.1091 24.0981 2.82419e-17)
(-51.2112 29.6948 -1.47375e-17)
(-59.2624 34.4074 0)
(-64.7845 38.4412 1.29343e-19)
(-66.9191 41.722 1.95913e-17)
(-64.9708 43.7771 -1.99827e-17)
(-58.8603 44.0876 -1.99238e-17)
(-49.3645 42.4774 4.03115e-17)
(-37.8362 39.1715 -6.63653e-19)
(-25.6859 34.6628 -1.30742e-18)
(-14.041 29.5034 -1.77747e-17)
(-3.67541 24.1724 -3.25978e-19)
(4.92988 19.0446 1.43799e-17)
(11.4579 14.365 -1.43869e-17)
(15.6461 10.3037 -1.10708e-19)
(17.2986 7.01551 -1.94214e-19)
(16.42 4.62412 -1.48591e-19)
(13.3201 3.21034 8.90976e-18)
(8.5776 2.7429 -1.50161e-18)
(2.91033 3.07777 -7.72211e-18)
(-2.97153 4.04189 -1.8697e-19)
(-8.36439 5.32172 5.68304e-18)
(-12.6833 6.54866 -1.07832e-17)
(-15.5358 7.38958 9.60728e-18)
(-16.8076 7.67054 -4.38314e-18)
(-16.6483 7.34762 0)
(-15.3266 6.45361 6.51948e-18)
(-13.1062 5.07736 -1.24339e-17)
(-10.242 3.3633 5.96463e-18)
(-7.04866 1.48562 -5.30735e-18)
(-3.91303 -0.394065 5.7626e-18)
(-1.16761 -2.11748 8.58316e-20)
(1.0393 -3.57455 0)
(2.74882 -4.74604 -7.38892e-20)
(4.09048 -5.65595 4.61315e-18)
(5.18081 -6.35767 -4.88413e-18)
(6.10085 -6.87362 1.38373e-19)
(6.9028 -7.1994 -1.30784e-19)
(7.607 -7.34377 0)
(8.21701 -7.32113 0)
(8.7292 -7.14701 -3.36519e-18)
(9.13715 -6.83844 3.80269e-18)
(9.4346 -6.41383 1.79072e-19)
(9.61747 -5.89296 3.1722e-18)
(9.6853 -5.29695 -6.39137e-18)
(9.64214 -4.64824 2.83318e-18)
(9.49712 -3.97026 0)
(9.26436 -3.28707 -2.79095e-18)
(8.96268 -2.6224 2.59612e-18)
(8.61382 -1.99968 0)
(8.24152 -1.43923 -2.27877e-18)
(7.86957 -0.956682 2.12453e-18)
(7.51898 -0.563477 -1.8343e-18)
(7.20664 -0.264774 1.59054e-18)
(6.94414 -0.0592068 0)
(6.73742 0.0606968 -3.55018e-19)
(6.58715 0.107421 -1.59101e-19)
(6.48959 0.0969275 1.16792e-18)
(6.43773 0.0467844 -2.1593e-19)
(6.42245 -0.0257299 -1.04247e-18)
(6.43377 -0.105255 0)
(6.462 -0.179509 -1.01271e-19)
(6.4989 -0.239856 0)
(6.53833 -0.281297 0)
(6.57653 -0.302004 1.20857e-18)
(6.61184 -0.302591 -1.17831e-18)
(6.64422 -0.285322 -8.74049e-19)
(6.67461 -0.253399 -5.2923e-20)
(6.7043 -0.210391 7.79315e-19)
(6.73459 -0.159827 8.49073e-19)
(6.7664 -0.104936 -7.30567e-19)
(6.80016 -0.0485029 7.97209e-20)
(6.83578 0.0072258 5.62738e-19)
(6.87305 0.0607855 -1.18527e-18)
(6.91244 0.110036 3.77902e-19)
(-1.86652 -1.12553 -1.31172e-16)
(-4.16686 -7.04964 9.80256e-17)
(-5.51514 -8.68989 9.35935e-17)
(-9.99062 -12.3244 -9.57983e-17)
(-14.2101 -11.0952 -4.02879e-19)
(-17.0897 -9.21436 -3.89072e-19)
(-16.4494 -7.53193 0)
(-11.062 -7.00658 -7.0956e-17)
(-1.75286 -8.0057 7.27625e-17)
(8.29361 -9.96873 0)
(14.9669 -11.6274 5.31702e-17)
(16.051 -12.0065 -1.01927e-16)
(12.6038 -11.3245 5.91248e-18)
(7.44192 -10.578 7.97787e-17)
(2.89425 -10.5686 -3.7923e-17)
(-0.0436125 -11.5296 -3.75411e-19)
(-1.44102 -13.2539 1.95e-19)
(-1.96494 -15.2104 0)
(-2.51241 -16.8065 -1.75893e-17)
(-3.77042 -17.7063 1.76699e-17)
(-5.81947 -18.0277 1.14773e-19)
(-8.15348 -18.1919 -1.01824e-17)
(-10.1381 -18.4875 1.06596e-17)
(-11.4509 -18.8731 -6.94573e-18)
(-12.1093 -19.1487 7.09541e-18)
(-12.2277 -19.2039 1.93414e-19)
(-11.8663 -18.9695 -4.67362e-18)
(-11.0913 -18.3537 2.8086e-19)
(-10.1194 -17.3765 8.60505e-18)
(-9.22912 -16.1358 -9.25297e-20)
(-8.48741 -14.7021 -4.38102e-18)
(-7.71826 -13.2136 -4.38921e-18)
(-6.72436 -11.8826 4.46351e-18)
(-5.45155 -10.8521 0)
(-3.95317 -10.139 -2.13083e-19)
(-2.31097 -9.67965 -2.01854e-19)
(-0.59514 -9.40196 0)
(1.13977 -9.25299 -5.82036e-18)
(2.8554 -9.17169 6.01161e-18)
(4.51813 -9.08277 1.57678e-19)
(6.09569 -8.92708 0)
(7.55293 -8.68987 -1.38943e-19)
(8.86158 -8.38254 -3.99661e-18)
(10.0057 -8.00545 4.01681e-18)
(10.9737 -7.55846 0)
(11.7564 -7.04262 3.23175e-18)
(12.3474 -6.4609 -3.77045e-18)
(12.7427 -5.8187 0)
(12.9422 -5.12414 0)
(12.9503 -4.38842 1.95675e-19)
(12.7763 -3.62597 1.87663e-19)
(12.4358 -2.85445 0)
(11.9505 -2.09477 -2.52407e-18)
(11.3483 -1.36994 2.66864e-18)
(10.6634 -0.703728 2.35762e-18)
(9.9332 -0.118992 -2.80919e-19)
(9.19751 0.364696 -4.1644e-18)
(8.49457 0.733583 3.82156e-18)
(7.85812 0.98167 8.24156e-20)
(7.3144 1.11171 -1.46809e-18)
(6.88006 1.13501 1.81255e-19)
(6.56131 1.06984 0)
(6.35425 0.93901 0)
(6.24639 0.766917 -1.03778e-18)
(6.21912 0.576774 1.13261e-18)
(6.25078 0.388362 0)
(6.31998 0.216641 -9.50248e-20)
(6.40819 0.0713191 0)
(6.50141 -0.0427443 -6.40622e-19)
(6.59049 -0.124597 6.25168e-19)
(6.67051 -0.176057 -1.30176e-19)
(6.73965 -0.200648 -1.09022e-18)
(6.79805 -0.202761 9.37599e-19)
(6.84685 -0.187061 -9.82636e-20)
(6.88754 -0.158099 0)
(6.92164 -0.120077 0)
(6.95047 -0.076692 0)
(6.9752 -0.0310061 6.10839e-19)
(6.99707 0.014781 3.15236e-20)
(7.01781 0.0572671 -9.31514e-19)
(-12.7343 5.6033 1.90838e-17)
(-11.6084 6.08751 2.70568e-17)
(7.99079 -0.123653 -2.76898e-17)
(26.5355 -5.8913 2.50971e-17)
(39.2075 -9.54229 -2.6025e-17)
(48.8009 -11.4003 -3.53877e-19)
(53.2213 -10.9777 -3.39692e-19)
(47.6879 -6.91886 0)
(30.4628 1.28945 -1.92737e-19)
(7.28711 11.4927 0)
(-12.7993 20.1879 -2.67728e-19)
(-25.0691 25.5987 -1.55252e-17)
(-30.3756 28.2419 1.55815e-17)
(-31.4978 29.1424 1.2252e-17)
(-30.0687 28.7555 -1.2086e-17)
(-26.2681 27.0884 8.62393e-18)
(-19.9455 24.0129 -9.29202e-18)
(-11.6072 19.6133 0)
(-2.9169 14.4112 0)
(3.64106 9.34156 0)
(6.16176 5.38265 -2.22927e-18)
(4.7282 2.88583 4.7141e-18)
(1.30947 1.23004 1.06918e-19)
(-1.86713 -0.511305 -5.18788e-18)
(-3.67661 -2.7384 2.99733e-18)
(-4.04968 -5.31005 0)
(-3.25307 -8.01475 1.88952e-19)
(-1.50194 -10.6479 0)
(0.981525 -12.8484 -4.35822e-18)
(3.64522 -14.3588 4.30955e-18)
(5.66391 -15.1691 -6.17095e-20)
(6.6285 -15.1986 0)
(6.91963 -14.3846 1.24847e-18)
(7.1863 -12.9987 -1.85106e-18)
(7.72609 -11.462 5.42686e-19)
(8.50234 -10.0379 3.96873e-19)
(9.40285 -8.80117 -1.13686e-18)
(10.3508 -7.77483 7.41332e-19)
(11.3068 -6.93418 0)
(12.2499 -6.25107 0)
(13.1643 -5.69104 0)
(14.0357 -5.21957 -1.43759e-18)
(14.8424 -4.80255 4.48145e-18)
(15.5577 -4.41025 -2.93273e-18)
(16.1527 -4.01837 0)
(16.5995 -3.60884 3.04735e-18)
(16.8741 -3.16986 -2.93644e-18)
(16.958 -2.69544 -2.86661e-18)
(16.8396 -2.1847 1.94321e-19)
(16.5146 -1.64132 6.5733e-20)
(15.9864 -1.07324 8.24697e-20)
(15.2671 -0.492682 2.60166e-18)
(14.3782 0.0839552 0)
(13.3515 0.63641 0)
(12.2286 1.14153 1.95655e-18)
(11.0598 1.57512 -2.00776e-18)
(9.90126 1.91464 0)
(8.80997 2.1424 0)
(7.83833 2.24906 -7.76264e-20)
(7.02788 2.23592 -1.8527e-19)
(6.40436 2.11546 0)
(5.97517 1.90932 0)
(5.72979 1.64467 1.1208e-19)
(5.64282 1.35001 1.03237e-19)
(5.6791 1.05146 -9.48238e-19)
(5.79985 0.770053 1.57555e-18)
(5.96851 0.520445 4.38716e-20)
(6.1551 0.310908 -1.30726e-18)
(6.33815 0.144291 1.25841e-18)
(6.50456 0.0194517 -1.08562e-18)
(6.64796 -0.0672845 2.19584e-19)
(6.76669 -0.120945 4.66038e-19)
(6.8619 -0.147076 -7.96546e-19)
(6.93623 -0.151209 5.94274e-20)
(6.99292 -0.138537 1.36899e-18)
(7.03527 -0.11373 -7.16129e-19)
(7.0664 -0.0808068 0)
(7.08902 -0.0430556 -1.2799e-19)
(7.10563 -0.00301078 0)
(7.11871 0.0351052 4.18464e-19)
(0.826576 2.03568 0)
(-6.426 5.65677 2.44286e-20)
(-16.2198 10.9161 -2.53665e-20)
(-19.6462 10.9849 -6.88702e-17)
(-13.2695 7.88078 1.38441e-16)
(-1.2781 4.01899 -6.88026e-17)
(11.6962 0.889074 3.39549e-19)
(22.3774 -0.668101 0)
(29.1011 -0.323375 0)
(32.0616 1.92815 0)
(32.6595 5.41322 2.63799e-19)
(31.4274 9.2364 2.06113e-19)
(27.0355 12.8096 0)
(18.383 15.7989 4.88315e-20)
(7.76141 18.2829 -2.66602e-19)
(-1.4281 20.8665 3.19733e-17)
(-8.16916 24.0045 -3.18924e-17)
(-12.9244 27.4166 -8.37419e-20)
(-16.3884 30.5233 0)
(-18.9971 33.0207 5.68545e-20)
(-20.785 34.9118 -1.8067e-19)
(-21.7267 36.3768 1.71732e-17)
(-21.9289 37.6148 -2.4324e-18)
(-21.5751 38.7212 -1.50851e-17)
(-20.7623 39.6219 -2.28862e-19)
(-19.4808 40.1715 -1.46167e-20)
(-17.717 40.2479 -6.96726e-18)
(-15.4952 39.7353 6.98645e-18)
(-12.801 38.5361 -7.33586e-20)
(-9.36594 36.5302 9.06439e-20)