/*--------------------------------*- C++ -*----------------------------------*\
| =========                 |                                                 |
| \\      /  F ield         | OpenFOAM: The Open Source CFD Toolbox           |
|  \\    /   O peration     | Version:  2012                                  |
|   \\  /    A nd           | Website:  www.openfoam.com                      |
|    \\/     M anipulation  |                                                 |
\*---------------------------------------------------------------------------*/
FoamFile
{
    version     2.0;
    format      ascii;
    class       surfaceScalarField;
    location    "1.1";
    object      phi;
}
// * * * * * * * * * * * * * * * * * * * * * * * * * * * * * * * * * * * * * //

dimensions      [0 3 -1 0 0 0 0];
oriented        oriented;


internalField   nonuniform List<scalar> 
84340
(
0.000145325
-0.000192946
4.76217e-05
0.000234561
-0.000521323
0.000432086
0.000176603
-0.000784503
0.000842461
0.000162364
-0.000857993
0.000872232
0.000314727
-0.000783116
0.000630753
0.000567142
-0.000664249
0.000411834
0.000824774
-0.000553897
0.000296265
0.00105873
-0.000461271
0.000227315
0.00129844
-0.000394515
0.000154809
0.00158995
-0.000380974
8.94605e-05
0.00197143
-0.000383153
1.673e-06
0.00235769
-0.000288244
-9.80192e-05
0.00262559
-8.47731e-05
-0.000183125
0.00274016
9.8903e-05
-0.000213468
0.00271541
0.000193728
-0.000168985
0.00255629
0.000226361
-6.7235e-05
0.00227567
0.000234569
4.6044e-05
0.00193745
0.000238714
9.95077e-05
0.00161913
0.000236691
8.1629e-05
0.0013792
0.000233076
6.85435e-06
0.00122524
0.000237429
-8.34695e-05
0.00110369
0.000250139
-0.000128593
0.000929552
0.000265618
-9.14755e-05
0.000627311
0.00028011
2.21322e-05
0.000155768
0.000292612
0.000178931
-0.000483097
0.000304116
0.000334748
-0.00123132
0.000315446
0.000432774
-0.00196821
0.000329314
0.000407575
-0.00254107
0.000346058
0.000226809
-0.00284685
0.000361957
-5.61778e-05
-0.00289747
0.000369868
-0.00031925
-0.00279822
0.000363839
-0.000463087
-0.00264743
0.000344602
-0.000495397
-0.00249134
0.000318269
-0.000474362
-0.00234417
0.000290981
-0.000438151
-0.00220927
0.000266152
-0.000401043
-0.00208972
0.000244967
-0.000364525
-0.00198862
0.000226967
-0.000328069
-0.00190703
0.000211033
-0.000292623
-0.00184327
0.000196156
-0.00025991
-0.0017938
0.000181686
-0.000231157
-0.00175456
0.000167429
-0.000206675
-0.0017218
0.000153562
-0.000186316
-0.00169281
0.00014041
-0.0001694
-0.00166542
0.000128179
-0.00015557
-0.00163811
0.000116745
-0.000144059
-0.00160927
0.000105846
-0.000134682
-0.00157766
9.50001e-05
-0.00012661
-0.00154263
8.40761e-05
-0.000119105
-0.00150347
7.22508e-05
-0.000111414
-0.00145945
5.87601e-05
-0.000102784
-0.00140982
4.28602e-05
-9.24856e-05
-0.00135388
2.38998e-05
-7.98418e-05
-0.00129112
1.4232e-06
-6.41848e-05
-0.00122083
-2.53739e-05
-4.49156e-05
-0.00114249
-5.6804e-05
-2.15291e-05
-0.00105569
-9.32288e-05
6.42502e-06
-0.00096068
-0.00013488
3.98693e-05
-0.000855867
-0.000181763
7.6949e-05
-0.00074188
-0.000233875
0.000119888
-0.000618823
-0.000291019
0.000167962
-0.000486919
-0.000352869
0.000220965
-0.000346568
-0.000418966
0.000278613
-0.000198333
-0.000488703
0.000340468
-4.29602e-05
-0.000561315
0.000405943
0.00011859
-0.000635854
0.000474304
0.000285098
-0.000711172
0.000544663
0.000455034
-0.000785928
0.000615992
0.000626505
-0.000858609
0.000687138
0.000797233
-0.000927598
0.00075687
0.000964571
-0.000991269
0.00082393
0.00112557
-0.0010481
0.000887104
0.00127708
-0.0010968
0.000945293
0.0014159
-0.00113641
0.000997582
0.00153898
-0.00116639
0.00104331
0.00164362
-0.0011868
0.00108215
0.00172787
-0.00119844
0.0011142
0.0017908
-0.00120307
0.00114014
0.00183261
-0.00120328
0.00116147
-0.00120603
0.00118108
0.00185756
-3.56031e-05
-0.000157343
-0.000302707
-0.000254219
-0.000813752
-0.000273459
-0.00137335
-0.000298391
-0.00186009
-0.000296382
-0.00225449
-0.000269849
-0.00257746
-0.000230919
-0.00281916
-0.000219578
-0.00292916
-0.000284512
-0.00284019
-0.000469947
-0.00251407
-0.000709269
-0.00198511
-0.000817203
-0.00133983
-0.000730056
-0.000673709
-0.00056722
-8.57142e-05
-0.000394266
0.000344497
-0.00020385
0.000577393
1.67265e-06
0.000611137
0.00020497
0.00047066
0.000377168
0.000202195
0.000501541
-0.000142023
0.000581647
-0.000521405
0.000629521
-0.000912054
0.000656267
-0.00130058
0.000668631
-0.00167763
0.000669671
-0.00203406
0.00066054
-0.00236049
0.000641879
-0.00264564
0.00061446
-0.00287732
0.000577741
-0.00304478
0.000529415
-0.00314285
0.000467941
-0.00317371
0.000394696
-0.00314537
0.000316265
-0.00306818
0.00024108
-0.00295208
0.000174883
-0.00280875
0.000122822
-0.00264906
8.52769e-05
-0.00248282
6.07203e-05
-0.00231792
4.61339e-05
-0.00216003
3.82712e-05
-0.00201261
3.42607e-05
-0.00187641
3.12297e-05
-0.00175216
2.93171e-05
-0.00164249
3.07322e-05
-0.00154736
3.30581e-05
-0.00146534
3.47163e-05
-0.00139493
3.54452e-05
-0.00133431
3.43709e-05
-0.00128084
3.06085e-05
-0.00123188
2.32912e-05
-0.00118472
1.16001e-05
-0.00113655
-5.30817e-06
-0.00108292
-2.97287e-05
-0.00102728
-5.42115e-05
-0.000967181
-8.54773e-05
-0.000900135
-0.000123849
-0.000825302
-0.000168061
-0.000742361
-0.000217821
-0.000651214
-0.00027291
-0.000552042
-0.000333047
-0.000445187
-0.000397873
-0.000331112
-0.000466944
-0.000210355
-0.000539722
-8.34925e-05
-0.000615566
4.88607e-05
-0.000693668
0.000186029
-0.000773022
0.000327197
-0.000852339
0.0004713
-0.00093003
0.000616926
-0.00100424
0.000762276
-0.00107295
0.000905207
-0.0011342
0.00104337
-0.00118626
0.00117439
-0.00122782
0.00129608
-0.0012581
0.00140661
-0.00127691
0.00150455
-0.00128474
0.00158889
-0.00128279
0.00165895
-0.00127313
0.00171444
-0.00125877
-0.00124571
0.00175412
-0.000494934
0.000337591
-0.00123519
0.000486038
-0.00211191
0.000603257
-0.00320293
0.000792632
-0.00446251
0.000963202
-0.00581662
0.00108425
-0.00718823
0.00114069
-0.00850026
0.00109246
-0.00966662
0.000881847
-0.0106267
0.000490117
-0.0113432
7.28471e-06
-0.0117661
-0.000394302
-0.0118805
-0.000615734
-0.0117699
-0.000677795
-0.0115386
-0.000625514
-0.0112321
-0.00051034
-0.0108623
-0.000368219
-0.0104349
-0.000222403
-0.00997106
-8.66461e-05
-0.0095004
3.08781e-05
-0.00904442
0.000125669
-0.00861074
0.000195841
-0.00819605
0.000241577
-0.00779188
0.000264456
-0.00738949
0.000267282
-0.0069828
0.000253846
-0.00656952
0.000228604
-0.00615132
0.000196262
-0.00573359
0.000160006
-0.00532505
0.000120879
-0.00493537
7.8259e-05
-0.00457263
3.19592e-05
-0.00423967
-1.66958e-05
-0.0039294
-6.91922e-05
-0.00364235
-0.000112168
-0.003376
-0.000143526
-0.00311929
-0.000171435
-0.00286952
-0.000189047
-0.00262705
-0.000196339
-0.00239375
-0.000195032
-0.00217204
-0.000187442
-0.00196502
-0.00017579
-0.00177371
-0.000161994
-0.00159685
-0.000146127
-0.00143579
-0.00012801
-0.00129317
-0.000107898
-0.00117127
-8.64607e-05
-0.00106595
-7.09481e-05
-0.00097484
-6.04988e-05
-0.000895484
-5.60644e-05
-0.000825223
-5.86609e-05
-0.000758694
-7.18377e-05
-0.000695569
-9.28539e-05
-0.0006307
-0.00011908
-0.000564761
-0.000151417
-0.000497997
-0.000190613
-0.000429382
-0.000236677
-0.000357912
-0.000289293
-0.000282862
-0.00034796
-0.000203838
-0.000412071
-0.000120742
-0.000480971
-3.36791e-05
-0.000554007
5.7144e-05
-0.000630545
0.000151537
-0.000709959
0.000249419
-0.000791551
0.000350781
-0.000874385
0.000455561
-0.000957119
0.000563433
-0.0010379
0.000673609
-0.00111441
0.000784736
-0.00118408
0.000894961
-0.00124443
0.00100215
-0.00129345
0.00110419
-0.00132986
0.00119922
-0.00135313
0.00128579
-0.00136348
0.00136287
-0.00136182
0.00142981
-0.00134972
0.0014862
-0.00132953
0.00153195
-0.00130452
-0.00128055
0.0015668
0.000789562
-0.000451971
0.00193051
-0.000654913
0.00292362
-0.000389845
0.00384947
-0.000133222
0.00480977
2.8966e-06
0.00575137
0.000142661
0.00654954
0.000342514
0.00712291
0.000519086
0.0074354
0.000569357
0.0074348
0.000490715
0.00708728
0.000354804
0.00645362
0.000239359
0.00565611
0.000181781
0.00480189
0.000176417
0.00397988
0.000196499
0.00324839
0.000221149
0.00263771
0.000242469
0.00215564
0.000259667
0.00179606
0.000272932
0.00154596
0.000280977
0.00139035
0.000281282
0.00131477
0.000271415
0.00130599
0.000250361
0.00135152
0.000218925
0.00143943
0.000179368
0.00155851
0.000134771
0.00169915
8.79682e-05
0.00185318
4.22315e-05
0.0020134
-2.20386e-07
0.00217198
-3.76978e-05
0.00231945
-6.9209e-05
0.00244622
-9.4816e-05
0.00254445
-0.000114927
0.00260418
-0.000128914
0.0026309
-0.000138896
0.00262942
-0.000142044
0.00259727
-0.000139279
0.00253926
-0.00013104
0.0024604
-0.000117477
0.0023629
-9.75382e-05
0.00224416
-6.86992e-05
0.00210666
-3.82854e-05
0.00195229
-7.62723e-06
0.00178423
2.19317e-05
0.00160716
4.90644e-05
0.00142721
7.20473e-05
0.00125187
8.88763e-05
0.00108367
9.72536e-05
0.000927709
9.54647e-05
0.000788925
8.27203e-05
0.000671142
5.91228e-05
0.000575307
2.39981e-05
0.000502502
-2.00488e-05
0.00044423
-6.08082e-05
0.000404098
-0.000111284
0.000382505
-0.00016902
0.000377416
-0.000231587
0.000386268
-0.000298145
0.000406471
-0.000368163
0.000435614
-0.000441214
0.000471551
-0.000516907
0.000512442
-0.000594899
0.000556842
-0.000674946
0.000603815
-0.000756933
0.000653009
-0.000840744
0.000704599
-0.000925975
0.000759023
-0.00101154
0.000816559
-0.00109544
0.000876927
-0.00117478
0.000939098
-0.00124625
0.0010014
-0.00130672
0.00106186
-0.00135392
0.00111869
-0.00138669
0.00117061
-0.00140505
0.00121708
-0.00140995
0.00125827
-0.00140302
0.00129498
-0.00138642
0.00132835
-0.00136291
0.00135972
-0.00133589
-0.00131112
0.00139029
-0.000324916
-0.000127055
-0.000801215
-0.000178615
-0.000984004
-0.000207056
-0.000660682
-0.000456544
0.000122706
-0.000780491
0.00109797
-0.000832598
0.00192071
-0.000480234
0.00243646
3.34155e-06
0.00269064
0.000315171
0.00274176
0.0004396
0.00262442
0.000472137
0.00238067
0.000483118
0.00208498
0.00047747
0.0017979
0.000463495
0.00154798
0.00044642
0.00133731
0.000431813
0.00115587
0.000423914
0.000992415
0.000423118
0.000838725
0.000426622
0.000689554
0.000430149
0.000541817
0.000429018
0.000393592
0.00041964
0.000244092
0.000399861
9.4688e-05
0.000368329
-5.05783e-05
0.000324634
-0.000185611
0.000269804
-0.000303304
0.000205661
-0.000401904
0.000140831
-0.00047764
7.55155e-05
-0.000527276
1.19379e-05
-0.000554948
-4.15368e-05
-0.000554857
-9.49064e-05
-0.000525164
-0.000144621
-0.00046663
-0.000187447
-0.000384802
-0.000220724
-0.000283609
-0.000243237
-0.000168982
-0.000253907
-4.77606e-05
-0.000252261
7.3234e-05
-0.000238472
0.00018723
-0.000211535
0.000291545
-0.000173013
0.000389978
-0.000136718
0.000480492
-9.81407e-05
0.000562851
-6.04273e-05
0.000638184
-2.62694e-05
0.000713039
-2.80765e-06
0.000787064
1.48516e-05
0.000858613
2.57055e-05
0.000926219
2.78584e-05
0.000988262
2.06771e-05
0.00104221
5.17655e-06
0.00108642
-2.02155e-05
0.00112525
-5.88736e-05
0.00116437
-9.99355e-05
0.00119975
-0.000146664
0.00122921
-0.00019848
0.00125233
-0.000254703
0.00126907
-0.000314884
0.00127969
-0.000378787
0.00128476
-0.00044628
0.00128501
-0.000517155
0.00128121
-0.000591102
0.00127416
-0.000667891
0.00126479
-0.000747568
0.00125445
-0.000830398
0.00124484
-0.000916371
0.00123778
-0.00100448
0.0012346
-0.00109225
0.00123569
-0.00117587
0.00124041
-0.00125097
0.00124737
-0.00131369
0.00125502
-0.00136156
0.00126213
-0.0013938
0.00126821
-0.00141113
0.0012735
-0.00141524
0.00127887
-0.00140838
0.00128552
-0.00139307
0.00129468
-0.00137207
0.00130732
-0.00134853
-0.00132727
0.00132347
-0.000352912
0.000225857
-0.000641609
0.000110083
-0.00057143
-0.000277235
-0.000447672
-0.000580301
-0.000548404
-0.000679759
-0.000875043
-0.000505959
-0.00127643
-7.88496e-05
-0.00163968
0.000366591
-0.00195607
0.00063157
-0.00224263
0.000726153
-0.00251142
0.000740934
-0.00275521
0.000726908
-0.00297695
0.000699202
-0.00317649
0.000663039
-0.00335234
0.000622265
-0.00350074
0.000580222
-0.00361531
0.000538479
-0.00368856
0.000496373
-0.00371387
0.000451927
-0.00368694
0.000403224
-0.00360716
0.00034923
-0.00347783
0.000290317
-0.00331018
0.000232207
-0.00310241
0.000160558
-0.00285727
7.94973e-05
-0.00258488
-2.59004e-06
-0.00229785
-8.13677e-05
-0.00199994
-0.000157077
-0.00169631
-0.000228118
-0.00139147
-0.000292899
-0.00108215
-0.000350854
-0.000774374
-0.000402683
-0.000469355
-0.00044964
-0.000164299
-0.000492503
0.000144571
-0.000529594
0.00045764
-0.000556306
0.000770991
-0.000567258
0.0010781
-0.000559371
0.00137168
-0.000532049
0.00164739
-0.000487249
0.0019042
-0.000429823
0.00213256
-0.000365073
0.00233171
-0.000297295
0.00250294
-0.000231655
0.00264888
-0.000172208
0.0027675
-0.000121433
0.00286274
-8.0389e-05
0.0029377
-4.92486e-05
0.00299294
-2.73783e-05
0.00302896
-1.53476e-05
0.00304904
-1.49047e-05
0.00305323
-2.44059e-05
0.00303693
-4.25731e-05
0.00300506
-6.80616e-05
0.00295745
-9.90577e-05
0.0028945
-0.000135526
0.00281718
-0.000177383
0.00272721
-0.000224915
0.00262715
-0.000278726
0.00252006
-0.000339194
0.00240911
-0.000406203
0.0022972
-0.000479195
0.00218687
-0.000557564
0.00208043
-0.000641128
0.00198012
-0.000730082
0.00188794
-0.000824191
0.0018052
-0.000921744
0.00173203
-0.00101909
0.00166735
-0.00111118
0.00160921
-0.00119283
0.00155557
-0.00126005
0.00150495
-0.00131094
0.00145678
-0.00134563
0.00141144
-0.00136579
0.00136993
-0.00137373
0.00133351
-0.00137197
0.00130347
-0.00136302
0.00128088
-0.00134948
0.00126652
-0.00133417
-0.00132091
0.00126016
0.000358224
-0.000132367
0.000839201
-0.000370894
0.00112435
-0.000562389
0.00111933
-0.000575279
0.000855291
-0.000415718
0.000543381
-0.000194049
0.00045829
6.24114e-06
0.000673391
0.000151489
0.00105503
0.00024993
0.00145797
0.000323219
0.00181466
0.00038424
0.00210542
0.000436148
0.00232548
0.000479141
0.00247319
0.000515328
0.0025494
0.000546058
0.00256157
0.000568051
0.00252952
0.000570529
0.00248149
0.000544406
0.00244175
0.000491661
0.00243188
0.000413096
0.00245997
0.000321136
0.00252847
0.000221825
0.00264347
0.000117201
0.00279461
9.41732e-06
0.00297291
-9.8805e-05
0.00317423
-0.000203905
0.00339452
-0.000301659
0.00362514
-0.000387699
0.00385529
-0.000458267
0.00407305
-0.000510658
0.0042656
-0.000543402
0.00441951
-0.000556592
0.00452225
-0.000552383
0.00456473
-0.000534982
0.00454483
-0.000509699
0.00447091
-0.000482385
0.00436208
-0.000458427
0.00424317
-0.000440455
0.00413702
-0.000425905
0.00405859
-0.000408816
0.00401167
-0.000382903
0.00399419
-0.000347592
0.00400144
-0.000304552
0.00402679
-0.000256998
0.00406357
-0.000208996
0.00410578
-0.000163637
0.00414824
-0.000122849
0.00418675
-8.77623e-05
0.00421837
-5.90012e-05
0.00423989
-3.68674e-05
0.00424668
-2.16917e-05
0.00423577
-1.34958e-05
0.00420306
-9.86293e-06
0.00414597
-1.0976e-05
0.00406248
-1.55641e-05
0.00395407
-2.71114e-05
0.0038231
-4.64149e-05
0.00367156
-7.33791e-05
0.00350396
-0.000111122
0.00332453
-0.000159766
0.00313818
-0.000219852
0.00295058
-0.000291589
0.0027679
-0.000374893
0.00259608
-0.0004693
0.00243946
-0.000573468
0.00229981
-0.000684538
0.00217596
-0.000797898
0.00206458
-0.000907707
0.00196147
-0.00100807
0.00186303
-0.00109438
0.00176719
-0.00116421
0.0016738
-0.00121755
0.00158432
-0.00125615
0.00150105
-0.00128252
0.00142637
-0.00129905
0.00136215
-0.00130774
0.00130949
-0.00131037
0.00126885
-0.00130884
0.00124006
-0.00130537
-0.00130281
0.00122195
0.000137755
-0.000270121
0.000196186
-0.000429326
0.000133634
-0.000499837
0.000148054
-0.000589699
0.000377466
-0.000645129
0.000823627
-0.00064021
0.00140855
-0.000578684
0.00203817
-0.000478127
0.00265914
-0.000371045
0.00326815
-0.000285788
0.00389679
-0.000244402
0.00457283
-0.000239888
0.00529582
-0.00024385
0.0060332
-0.000222049
0.00672531
-0.00014605
0.00732067
-2.7311e-05
0.00779877
9.24287e-05
0.00817428
0.000168895
0.00848387
0.000182074
0.00875754
0.000139426
0.00901128
6.7389e-05
0.00923892
-5.81118e-06
0.00942002
-6.39019e-05
0.00953826
-0.000108816
0.00958098
-0.000141528
0.0095397
-0.00016263
0.00941029
-0.000172247
0.00919301
-0.000170416
0.00889184
-0.000157095
0.00851337
-0.00013219
0.00806557
-9.56044e-05
0.00755608
-4.71021e-05
0.00699061
1.30916e-05
0.00637411
8.15213e-05
0.00571617
0.000148239
0.00503465
0.000199134
0.00435844
0.000217785
0.00371506
0.00020292
0.00313326
0.000155901
0.00263515
8.92871e-05
0.00223116
2.10882e-05
0.00192234
-3.87734e-05
0.00170315
-8.53621e-05
0.00156378
-0.000117621
0.00149148
-0.000136694
0.00147261
-0.000144776
0.00149412
-0.000144351
0.00154407
-0.00013771
0.00161199
-0.000126926
0.00168894
-0.000113814
0.0017672
-9.99525e-05
0.0018404
-8.67011e-05
0.00190577
-7.52266e-05
0.00196194
-6.71541e-05
0.00201021
-6.3826e-05
0.00204974
-6.66499e-05
0.0020801
-7.67736e-05
0.0021024
-9.56813e-05
0.0021163
-0.000125018
0.00212269
-0.000166151
0.00212289
-0.000220055
0.00211856
-0.000287258
0.00211114
-0.000367478
0.00210099
-0.000459146
0.00208663
-0.000559106
0.00206484
-0.000662747
0.00203159
-0.000764655
0.0019835
-0.000859611
0.00191902
-0.000943597
0.00183916
-0.00101452
0.0017474
-0.00107245
0.00164897
-0.00111912
0.00154982
-0.001157
0.00145545
-0.00118815
0.00137014
-0.00121374
0.0012966
-0.00123421
0.00123618
-0.00124994
0.00118911
-0.00126177
0.00115486
-0.00127113
-0.00128008
0.00113214
-0.000438268
0.000168147
-0.000978544
0.00011095
-0.00135157
-0.000126814
-0.0016552
-0.000286064
-0.00198602
-0.00031431
-0.00236565
-0.000260581
-0.00277027
-0.000174065
-0.00315723
-9.11706e-05
-0.0035009
-2.73754e-05
-0.00378682
1.31114e-07
-0.00401837
-1.28498e-05
-0.00421172
-4.65376e-05
-0.00439158
-6.39843e-05
-0.00456761
-4.60264e-05
-0.00472742
1.37616e-05
-0.00485667
0.000101938
-0.00494942
0.000185181
-0.00501114
0.000230622
-0.00504403
0.000214955
-0.00505344
0.000148842
-0.00504151
5.54581e-05
-0.00501274
-3.45787e-05
-0.00497308
-0.00010357
-0.00493341
-0.000148486
-0.00490023
-0.000174707
-0.00487278
-0.00019008
-0.00484361
-0.000201415
-0.00480081
-0.000213217
-0.00473095
-0.000226959
-0.00462175
-0.000241391
-0.00446398
-0.000253371
-0.00424822
-0.000262858
-0.00397089
-0.000264243
-0.0036339
-0.000255466
-0.00324437
-0.000241289
-0.002819
-0.000226243
-0.00238349
-0.000217723
-0.00196334
-0.000217226
-0.00158424
-0.0002232
-0.00126259
-0.000232364
-0.000999934
-0.000241571
-0.000790184
-0.000248523
-0.000623642
-0.000251905
-0.000489989
-0.000251275
-0.000379854
-0.000246829
-0.000285448
-0.000239183
-0.000200633
-0.000229167
-0.000120834
-0.000217509
-4.27005e-05
-0.000205059
3.61507e-05
-0.000192665
0.000117404
-0.000181206
0.000202352
-0.000171649
0.000292135
-0.00016501
0.000387402
-0.000162421
0.000488659
-0.000165083
0.000596239
-0.00017423
0.000710567
-0.000191102
0.000831342
-0.000216456
0.000957831
-0.000251507
0.00108829
-0.000296609
0.00121989
-0.000351661
0.00134845
-0.000415811
0.00146831
-0.000487338
0.00157282
-0.000563659
0.00165525
-0.000641538
0.00171002
-0.000717512
0.0017338
-0.000788433
0.00172621
-0.000852018
0.0016899
-0.000907286
0.00163015
-0.000954779
0.00155404
-0.00099634
0.00146927
-0.00103435
0.00138297
-0.0010707
0.00130083
-0.00110602
0.00122683
-0.00113974
0.00116338
-0.00117076
0.00111169
-0.00119825
0.00107212
-0.00122219
0.00104435
-0.00124336
-0.00126318
0.00102745
0.000235865
-6.77187e-05
0.000590579
-0.000243764
0.000900845
-0.00043708
0.00113468
-0.000519902
0.00128741
-0.000467035
0.00138271
-0.000355885
0.00145292
-0.000244273
0.00151979
-0.000158046
0.00158815
-9.5735e-05
0.00162267
-3.43824e-05
0.00157595
3.38645e-05
0.00140737
0.000122042
0.00111004
0.000233347
0.000720103
0.000343912
0.000306244
0.000427621
-6.05593e-05
0.000468741
-0.000335601
0.000460223
-0.000508634
0.000403655
-0.000605001
0.000311322
-0.000658772
0.000202614
-0.00070169
9.83759e-05
-0.000751678
1.5409e-05
-0.000815668
-3.95808e-05
-0.000892386
-7.17669e-05
-0.000975234
-9.18596e-05
-0.0010563
-0.000109011
-0.00112852
-0.000129199
-0.00118798
-0.000153752
-0.00123419
-0.000180749
-0.00126854
-0.000207042
-0.00129183
-0.000230078
-0.00130638
-0.000248316
-0.00130962
-0.000261002
-0.001297
-0.000268085
-0.00126776
-0.000270523
-0.00122463
-0.000269377
-0.00117583
-0.000266523
-0.00112948
-0.000263581
-0.00109097
-0.000261702
-0.00106201
-0.000261327
-0.00104125
-0.000262329
-0.00102555
-0.000264227
-0.00101097
-0.000266482
-0.000993555
-0.000268691
-0.000969724
-0.000270659
-0.000936539
-0.000272368
-0.000891783
-0.000273923
-0.000833771
-0.000275521
-0.000761398
-0.000277432
-0.000674041
-0.000280022
-0.000571484
-0.000283763
-0.000453898
-0.000289235
-0.000321816
-0.000297093
-0.000176185
-0.000308053
-1.8415e-05
-0.000322853
0.000149499
-0.000342144
0.000324873
-0.000366476
0.000504551
-0.000396134
0.000684203
-0.000431159
0.000858794
-0.0004712
0.00102261
-0.000515477
0.0011696
-0.000562799
0.00129392
-0.00061166
0.00139066
-0.000660397
0.00145654
-0.000707421
0.00149048
-0.000751451
0.00149381
-0.000791763
0.0014702
-0.000828416
0.00142531
-0.000862388
0.00136597
-0.000895444
0.00129923
-0.000929605
0.00123121
-0.000966329
0.00116636
-0.00100585
0.00110744
-0.0010471
0.00105593
-0.00108823
0.00101264
-0.00112746
0.000978045
-0.00116366
0.000952365
-0.00119651
0.000935481
-0.00122648
-0.00125445
0.000926753
-0.000303447
0.000235728
-0.00102726
0.000480053
-0.00213617
0.000671831
-0.00340745
0.000751371
-0.0045655
0.000691018
-0.00549762
0.000576237
-0.00619409
0.000452197
-0.00668705
0.000334912
-0.00700928
0.000226497
-0.00717317
0.000129512
-0.00718795
4.86362e-05
-0.00704722
-1.86846e-05
-0.00674058
-7.32925e-05
-0.00627502
-0.000121652
-0.00566603
-0.000181361
-0.0049335
-0.00026379
-0.00411005
-0.000363226
-0.00324028
-0.000466124
-0.0023923
-0.000536649
-0.00164373
-0.000545956
-0.00105892
-0.000486439
-0.000671351
-0.00037216
-0.000479083
-0.000231849
-0.00045092
-9.993e-05
-0.000539878
-2.90113e-06
-0.000697195
4.83051e-05
-0.0008841
5.77063e-05
-0.0010743
3.64524e-05
-0.00125309
-1.9685e-06
-0.00141293
-4.71937e-05
-0.0015506
-9.24124e-05
-0.00166491
-0.000134009
-0.00175537
-0.000170536
-0.00182222
-0.000201242
-0.00186615
-0.00022659
-0.00188843
-0.0002471
-0.00189119
-0.000263758
-0.00187695
-0.000277821
-0.00184813
-0.000290521
-0.00180671
-0.000302748
-0.00175411
-0.000314931
-0.00169122
-0.000327114
-0.00161857
-0.000339141
-0.00153645
-0.00035081
-0.00144512
-0.00036199
-0.00134483
-0.000372657
-0.00123585
-0.000382903
-0.00111845
-0.000392916
-0.000992931
-0.000402954
-0.000859626
-0.000413327
-0.000719009
-0.00042438
-0.000571768
-0.000436475
-0.000418888
-0.000449973
-0.000261736
-0.000465206
-0.00010214
-0.000482449
5.76053e-05
-0.00050189
0.000214713
-0.000523583
0.000366026
-0.000547447
0.000508098
-0.000573232
0.000637434
-0.000600536
0.000750786
-0.00062883
0.000845494
-0.000657507
0.000919791
-0.000685956
0.000973045
-0.000713651
0.00100589
-0.000740267
0.00102025
-0.000765812
0.00101925
-0.000790762
0.00100696
-0.000816123
0.000987866
-0.000843297
0.000966118
-0.000873695
0.000944712
-0.0009082
0.000925123
-0.00094674
0.000907533
-0.000988261
0.000891537
-0.0010311
0.000876863
-0.00107356
0.000863736
-0.00111434
0.000852829
-0.00115275
0.000844962
-0.00118865
0.000840773
-0.00122229
-0.00125412
0.000840445
0.000767545
-0.000531817
0.0019554
-0.000707801
0.00311747
-0.000490237
0.00419074
-0.000321902
0.00514038
-0.000258621
0.00592532
-0.000208704
0.0065033
-0.000125787
0.00685174
-1.35194e-05
0.00697799
0.000100245
0.00691372
0.000193776
0.00670577
0.000256586
0.00638505
0.000302035
0.00596014
0.000351621
0.00540944
0.00042905
0.00468089
0.000547188
0.00372469
0.000692413
0.00255224
0.000809224
0.00122264
0.000863467
-0.00016048
0.000846476
-0.00146763
0.000761197
-0.00258181
0.000627734
-0.0034282
0.000474235
-0.00398535
0.000325304
-0.00427892
0.000193634
-0.00436263
8.08071e-05
-0.00429907
-1.52478e-05
-0.00414493
-9.64418e-05
-0.00394324
-0.000165236
-0.00372645
-0.000218759
-0.00351664
-0.000257
-0.00332757
-0.000281484
-0.00315814
-0.000303437
-0.0030019
-0.000326772
-0.00285172
-0.000351428
-0.00270302
-0.00037529
-0.00255488
-0.000395237
-0.00240929
-0.00040935
-0.00226877
-0.000418343
-0.00213445
-0.000424841
-0.00200569
-0.000431503
-0.00188086
-0.000439764
-0.00175823
-0.000449742
-0.00163657
-0.000460808
-0.00151519
-0.000472188
-0.00139387
-0.000483312
-0.00127259
-0.000493928
-0.00115144
-0.000504054
-0.00103048
-0.000513876
-0.000909787
-0.000523652
-0.000789459
-0.000533656
-0.000669703
-0.000544136
-0.000550874
-0.000555305
-0.000433516
-0.000567331
-0.000318391
-0.000580331
-0.000206468
-0.000594372
-9.88939e-05
-0.000609464
3.0782e-06
-0.000625556
9.8172e-05
-0.000642541
0.000185203
-0.000660263
0.000263195
-0.000678526
0.000331495
-0.000697129
0.000389881
-0.000715893
0.000438645
-0.00073472
0.000478652
-0.000753658
0.000511361
-0.000772977
0.000538755
-0.000793205
0.0005631
-0.000815108
0.000586518
-0.000839541
0.000610439
-0.000867217
0.000635185
-0.000898441
0.000659942
-0.000932957
0.000683186
-0.000969984
0.000703371
-0.00100845
0.000719538
-0.00104727
0.000731575
-0.00108559
0.00074012
-0.00112288
0.000746246
-0.00115888
0.000751126
-0.00119353
0.000755765
-0.00122693
-0.00125921
0.00076085
-0.000795257
0.00026344
-0.00184268
0.000339623
-0.00268219
0.000349267
-0.00352527
0.00052118
-0.0044676
0.000683709
-0.00544009
0.000763788
-0.00636502
0.000799143
-0.00719586
0.000817327
-0.00790911
0.000813488
-0.00849145
0.00077612
-0.00893747
0.000702609
-0.00923311
0.000597667
-0.00936525
0.000483764
-0.00933344
0.000397241
-0.00915939
0.000373139
-0.00887806
0.000411085
-0.00855137
0.000482533
-0.0082153
0.000527393
-0.00787174
0.000502913
-0.0075097
0.000399158
-0.00711555
0.000233588
-0.00668411
4.27949e-05
-0.00622295
-0.000135853
-0.00574806
-0.000281263
-0.00527811
-0.000389143
-0.00483082
-0.000462532
-0.00442214
-0.000505121
-0.00406483
-0.000522545
-0.00376757
-0.000516025
-0.00351761
-0.000506953
-0.00329886
-0.000500237
-0.00309984
-0.000502454
-0.00290559
-0.000521023
-0.00270153
-0.000555488
-0.00248121
-0.000595611
-0.00225099
-0.000625456
-0.00202606
-0.000634287
-0.00182229
-0.000622115
-0.00164904
-0.000598085
-0.00150681
-0.000573731
-0.00138969
-0.000556885
-0.00128952
-0.000549912
-0.00119915
-0.000551182
-0.0011138
-0.000557536
-0.001031
-0.000566117
-0.000949808
-0.000575116
-0.000870124
-0.000583739
-0.000792132
-0.000591868
-0.000716064
-0.00059972
-0.000642099
-0.000607621
-0.000570354
-0.000615882
-0.000500904
-0.000624755
-0.000433815
-0.00063442
-0.000369162
-0.000644984
-0.000307042
-0.000656492
-0.000247565
-0.00066894
-0.000190838
-0.000682283
-0.000136929
-0.000696451
-8.58249e-05
-0.000711367
-3.73822e-05
-0.000726969
8.71948e-06
-0.000743231
5.30213e-05
-0.000760195
9.62945e-05
-0.000777993
0.000139492
-0.000796856
0.000183612
-0.000817096
0.000229464
-0.000839057
0.000277385
-0.000863029
0.000326999
-0.000889155
0.000377153
-0.000917372
0.00042611
-0.000947399
0.000471954
-0.000978801
0.000513061
-0.00101109
0.000548439
-0.00104383
0.000577842
-0.00107667
0.000601656
-0.00110941
0.000620678
-0.00114191
0.000635891
-0.00117409
0.000648285
-0.00120592
0.000658763
-0.0012374
-0.00126859
0.000668145
0.000391655
-0.000128215
0.00100769
-0.00027641
0.00176191
-0.000404953
0.00266266
-0.000379572
0.00362989
-0.000283525
0.00464492
-0.000251238
0.00569817
-0.000254109
0.0067525
-0.000237006
0.00773137
-0.000165382
0.00854989
-4.23983e-05
0.0091145
0.000138003
0.00935929
0.000352874
0.00927005
0.000573002
0.00889513
0.000772157
0.00832933
0.000938944
0.00766878
0.00107164
0.00698379
0.00116752
0.00629281
0.00121838
0.0055815
0.00121422
0.00483452
0.00114614
0.0040823
0.000985811
0.00340023
0.000724863
0.00289058
0.000373795
0.00259793
1.1391e-05
0.00243644
-0.00022766
0.00225614
-0.000282227
0.00194944
-0.000198423
0.00152289
-9.59953e-05
0.00104771
-4.08487e-05
0.000581047
-4.02859e-05
0.000163964
-8.31541e-05
-0.000179812
-0.000158678
-0.000442083
-0.000258752
-0.000624262
-0.00037331
-0.000731271
-0.000488602
-0.000791269
-0.000565458
-0.000810174
-0.000615383
-0.000797664
-0.000634624
-0.000763839
-0.00063191
-0.000718102
-0.000619468
-0.000667962
-0.000607025
-0.000618628
-0.000599247
-0.000573261
-0.000596549
-0.00053339
-0.000597407
-0.000499362
-0.000600146
-0.000470758
-0.000603719
-0.00044674
-0.000607757
-0.000426292
-0.000612316
-0.000408379
-0.000617633
-0.000392025
-0.000623975
-0.000376351
-0.000631556
-0.000360589
-0.000640517
-0.000344089
-0.00065092
-0.000326313
-0.000662759
-0.000306825
-0.00067598
-0.000285268
-0.000690497
-0.00026134
-0.000706211
-0.000234766
-0.000723025
-0.000205279
-0.000740854
-0.00017261
-0.000759638
-0.000136497
-0.000779344
-9.67307e-05
-0.000799961
-5.32306e-05
-0.000821493
-6.14455e-06
-0.000843942
4.4053e-05
-0.000867294
9.65045e-05
-0.000891509
0.000149995
-0.000916519
0.000203077
-0.000942237
0.000254271
-0.000968565
0.000302287
-0.000995415
0.0003462
-0.00102271
0.000385523
-0.00105041
0.000420181
-0.00107848
0.000450403
-0.00110689
0.000476604
-0.00113561
0.000499285
-0.00116459
0.000518972
-0.00119377
0.000536182
-0.00122313
0.000551425
-0.00125265
-0.00128241
0.000565247
-0.000218283
9.00683e-05
-0.000420588
-7.41048e-05
-0.000482893
-0.000342648
-0.000333924
-0.000528541
1.96548e-05
-0.000637104
0.00047794
-0.000709523
0.000976657
-0.000752825
0.00148686
-0.000747211
0.0020017
-0.000680217
0.00248496
-0.000525663
0.00291331
-0.000290345
0.00326776
-1.5722e-06
0.00354965
0.000291108
0.00378337
0.00053844
0.00400006
0.000722254
0.004215
0.000856692
0.00442008
0.000962439
0.00458988
0.00104858
0.00469712
0.00110698
0.00472978
0.00111348
0.004704
0.00101159
0.00464667
0.0007822
0.00463284
0.000387623
0.00467657
-3.23426e-05
0.00467986
-0.00023095
0.00451497
-0.000117336
0.0041719
0.000144652
0.00372907
0.000346828
0.00327357
0.000414655
0.00285654
0.000376743
0.00249163
0.000281761
0.00216929
0.000163659
0.00186773
4.28087e-05
0.00157077
-7.63494e-05
0.00127336
-0.000191194
0.00100448
-0.00029658
0.000771561
-0.000382461
0.00058095
-0.000444013
0.000435832
-0.000486792
0.000331317
-0.000514953
0.000256696
-0.000532403
0.000200205
-0.000542756
0.000152557
-0.000548901
0.000108177
-0.000553028
6.47633e-05
-0.000556732
2.21079e-05
-0.000561064