/*--------------------------------*- C++ -*----------------------------------*\
| =========                 |                                                 |
| \\      /  F ield         | OpenFOAM: The Open Source CFD Toolbox           |
|  \\    /   O peration     | Version:  2012                                  |
|   \\  /    A nd           | Website:  www.openfoam.com                      |
|    \\/     M anipulation  |                                                 |
\*---------------------------------------------------------------------------*/
FoamFile
{
    version     2.0;
    format      ascii;
    class       volScalarField;
    location    "0.08";
    object      p;
}
// * * * * * * * * * * * * * * * * * * * * * * * * * * * * * * * * * * * * * //

dimensions      [0 2 -2 0 0 0 0];


internalField   nonuniform List<scalar> 
42400
(
-2095.54
-1801.57
-1380.9
-905.181
-368.115
89.474
420.544
640.412
793.062
910.055
998.252
1051.29
1059.64
1014.23
910.918
753.364
554.498
339.989
149.357
21.0165
-33.0813
-32.0465
-8.12471
14.0214
22.4176
15.7401
-1.72812
-24.4947
-47.7977
-68.7759
-86.0491
-99.2995
-108.8
-115.377
-119.624
-122.004
-122.869
-122.474
-121.001
-118.581
-115.317
-111.306
-106.628
-101.353
-95.5359
-89.2224
-82.4696
-75.3752
-68.1001
-60.8687
-53.9427
-47.578
-41.9814
-37.2812
-33.5192
-30.6633
-28.6315
-27.3175
-26.6129
-26.4199
-26.6572
-27.2595
-28.1743
-29.3572
-30.7681
-32.3668
-34.1163
-35.9716
-37.8875
-39.8233
-41.7388
-43.6024
-45.388
-47.0729
-48.6376
-50.0632
-51.3338
-52.4346
-53.3845
-54.0631
6757.21
6707.84
6455.92
5852.8
4917.46
3847.32
2914.53
2316.25
2116.26
2270.39
2655.29
3102.55
3449.48
3592.56
3510.66
3242.25
2838.04
2336.38
1777.59
1228.6
771.617
448.355
238.033
97.4282
-1.98799
-72.2868
-119.656
-149.56
-167.147
-176.351
-179.964
-179.826
-177.157
-172.558
-166.704
-160.163
-153.356
-146.655
-140.26
-134.128
-128.086
-121.921
-115.488
-108.783
-101.948
-95.2006
-88.7454
-82.701
-77.0944
-71.8981
-67.0798
-62.6346
-58.5878
-54.9787
-51.8386
-49.1775
-46.9825
-45.2246
-43.8688
-42.8813
-42.2327
-41.8978
-41.8625
-42.1092
-42.6169
-43.3649
-44.3257
-45.4741
-46.7807
-48.2096
-49.7189
-51.2623
-52.7913
-54.2581
-55.6191
-56.8393
-57.8951
-58.7738
-59.4863
-59.9068
1868.02
1918.33
1951.41
1800.2
1419.6
807.187
135.052
-454.996
-922.493
-1248.94
-1386.11
-1301.7
-1043.16
-724.771
-432.631
-177.257
48.0914
225.772
330.41
352.109
303.431
213.364
111.164
14.6541
-68.8573
-136.88
-188.52
-223.979
-244.656
-252.835
-251.279
-242.778
-229.888
-214.684
-198.751
-183.238
-168.926
-156.143
-144.909
-135.144
-126.874
-119.626
-113.063
-107.046
-101.5
-96.4089
-91.7861
-87.6234
-83.8803
-80.4904
-77.387
-74.5231
-71.8776
-69.4514
-67.253
-65.2879
-63.555
-62.0499
-60.7685
-59.7134
-58.8864
-58.1911
-57.7522
-57.5564
-57.5867
-57.8279
-58.2618
-58.8658
-59.61
-60.4583
-61.3706
-62.3051
-63.2209
-64.0806
-64.8513
-65.5056
-66.022
-66.3857
-66.5886
-66.5726
-5833.25
-5629.74
-5299.46
-4888.89
-4432.36
-4046
-3743.2
-3486.55
-3245.43
-3014.76
-2791.93
-2558.63
-2300.36
-2037.96
-1808.68
-1621.18
-1455.23
-1298.48
-1153.08
-1024.6
-914.821
-822.747
-745.785
-678.633
-613.694
-545.352
-473.743
-403.837
-341.219
-288.898
-247.149
-214.699
-189.763
-170.592
-155.693
-143.871
-134.203
-126.037
-118.928
-112.494
-106.379
-101.176
-96.9578
-93.3204
-90.1918
-87.5548
-85.3701
-83.5925
-82.1713
-81.0514
-80.1761
-79.4859
-78.9316
-78.4698
-78.0654
-77.6921
-77.3325
-76.9783
-76.6288
-76.2851
-75.9582
-75.7544
-75.5693
-75.4313
-75.3565
-75.35
-75.4085
-75.5217
-75.6746
-75.8481
-76.0204
-76.1686
-76.2702
-76.3045
-76.2544
-76.1069
-75.8542
-75.4922
-75.0133
-74.4595
-3055.96
-3139.1
-3304.87
-3502.79
-3729.75
-3932.2
-4109.16
-4248.92
-4316.03
-4279.89
-4133.28
-3888.3
-3577.03
-3259.88
-3006.89
-2847.5
-2750
-2662.61
-2563.48
-2452.07
-2328.2
-2187.85
-2024.38
-1833.53
-1619.07
-1393.94
-1174.19
-971.966
-793.576
-640.988
-513.641
-409.717
-326.684
-261.607
-211.474
-173.464
-145.097
-124.306
-109.442
-99.2192
-92.5321
-88.1836
-85.5068
-84.0556
-83.5957
-83.8897
-84.6879
-85.8062
-87.1125
-88.5093
-89.9225
-91.2948
-92.5821
-93.7511
-94.7786
-95.6501
-96.3593
-96.9072
-97.3012
-97.5405
-97.6454
-97.6359
-97.5194
-97.3061
-97.004
-96.6185
-96.1522
-95.6052
-94.9761
-94.2635
-93.4666
-92.5862
-91.6254
-90.5896
-89.4864
-88.3252
-87.1164
-85.8677
-84.5947
-83.3881
5280.15
5252.68
5187.17
5041.83
4803.38
4489.67
4120.17
3716.61
3280.45
2798.52
2279.35
1760.24
1274.53
827.216
405.684
8.73772
-339.493
-606.212
-770.367
-835.628
-821.558
-751.904
-654.785
-557.868
-481
-431.522
-404.337
-385.882
-362.008
-325.11
-274.631
-214.604
-151.505
-91.9107
-41.4806
-4.0935
18.7672
28.1049
26.6988
18.1129
5.74871
-7.91546
-21.3622
-33.9532
-45.4058
-55.889
-65.4927
-74.2456
-82.165
-89.2642
-95.5588
-101.072
-105.837
-109.895
-113.293
-116.084
-118.319
-120.049
-121.323
-122.2
-122.704
-122.871
-122.728
-122.298
-121.595
-120.634
-119.427
-117.989
-116.336
-114.489
-112.478
-110.332
-108.089
-105.784
-103.454
-101.131
-98.8392
-96.5988
-94.4385
-92.4173
-81.4707
-92.5273
-64.3383
24.057
170.359
354.924
567.18
778.704
922.238
926.735
776.565
516.014
204.502
-118.564
-431.901
-721.331
-973.535
-1174.64
-1314.27
-1386.95
-1395.27
-1349.94
-1266.64
-1163.81
-1059.95
-969.653
-898.976
-842.659
-788.01
-722.172
-638.531
-538.305
-428.098
-316.28
-210.35
-116.159
-38.152
20.476
58.0725
75.1984
74.8383
61.6922
40.7741
16.1215
-9.23169
-33.2414
-54.9373
-73.9371
-90.1833
-103.815
-115.078
-124.257
-131.644
-137.507
-142.088
-145.596
-148.204
-150.053
-151.258
-151.909
-152.07
-151.786
-151.083
-149.977
-148.476
-146.583
-144.307
-141.662
-138.676
-135.392
-131.868
-128.174
-124.391
-120.596
-116.862
-113.247
-109.79
-106.513
-103.425
-100.552
-6466.14
-6420.79
-6354.31
-6272.67
-6174.06
-6062.79
-5905.61
-5691.26
-5464.22
-5298.04
-5237.04
-5267.15
-5335.4
-5376.74
-5336.43
-5184.37
-4922.3
-4573.08
-4166.7
-3730.7
-3284.52
-2839.42
-2403.93
-1989.76
-1612.82
-1289.15
-1028.63
-831.36
-687.916
-584.816
-508.946
-449.698
-400.333
-357.771
-321.146
-290.194
-264.375
-242.905
-225.128
-210.7
-199.425
-191.036
-185.145
-181.33
-179.201
-178.403
-178.605
-179.496
-180.792
-182.251
-183.684
-184.956
-185.979
-186.701
-187.101
-187.228
-187.047
-186.579
-185.844
-184.849
-183.59
-182.048
-180.192
-177.984
-175.377
-172.33
-168.811
-164.807
-160.336
-155.447
-150.228
-144.795
-139.285
-133.837
-128.574
-123.593
-118.951
-114.67
-110.722
-107.115
4079.66
4412.11
4811.44
5113.79
5350.98
5502.88
5575.13
5565.24
5479.95
5325.88
5101.72
4798.45
4421.12
4002.12
3588.15
3214.34
2894.74
2624.69
2388.67
2168.6
1952.45
1736.51
1522.42
1313.66
1113.24
923.141
744.751
579.551
429.174
294.634
176.237
73.8974
-12.8153
-84.594
-142.405
-187.588
-221.761
-246.65
-263.953
-275.238
-281.853
-284.892
-285.214
-283.508
-280.335
-276.157
-271.351
-266.207
-260.942
-255.708
-250.596
-245.659
-240.947
-236.477
-232.25
-228.217
-224.418
-220.829
-217.413
-214.122
-210.899
-207.674
-204.362
-200.869
-197.093
-192.932
-188.299
-183.136
-177.424
-171.199
-164.555
-157.641
-150.646
-143.769
-137.195
-131.061
-125.445
-120.369
-115.773
-111.65
10603.2
10395
10086.2
9653.32
9121.91
8679.76
8364.98
8114.88
7864.32
7575.35
7223.39
6798.18
6312.5
5801.64
5296.99
4802.76
4303.99
3788.23
3254.83
2715.94
2189.49
1691.79
1235
826.394
468.996
162.441
-95.1975
-305.038
-468.248
-587.054
-665.127
-707.613
-720.904
-712.018
-687.753
-654.125
-615.983
-576.861
-539.083
-504.003
-472.249
-443.966
-419.003
-397.035
-377.666
-360.492
-345.246
-331.509
-319.012
-307.576
-297.067
-287.386
-278.433
-270.148
-262.482
-255.39
-248.827
-242.744
-237.084
-231.782
-226.763
-221.94
-217.216
-212.48
-207.616
-202.508
-197.048
-191.155
-184.784
-177.947
-170.722
-163.248
-155.719
-148.346
-141.327
-134.811
-128.874
-123.534
-118.718
-114.397
-2507.64
-2618.02
-2875.96
-3374.48
-4096.1
-4884.01
-5594.67
-6171.36
-6621.51
-6966.52
-7228.48
-7423.14
-7539.73
-7532.65
-7342
-6940.71
-6368.38
-5712.1
-5053.77
-4438.21
-3878.44
-3374.67
-2925.5
-2530.29
-2188.61
-1897.58
-1651.34
-1442.61
-1264.88
-1113.41
-985.65
-880.297
-795.753
-729.176
-676.742
-634.572
-599.437
-569.028
-541.865
-517.022
-493.949
-472.557
-452.564
-433.566
-415.506
-398.347
-381.959
-366.437
-351.784
-337.974
-324.995
-312.834
-301.473
-290.886
-281.042
-271.895
-263.393
-255.475
-248.069
-241.103
-234.496
-228.167
-222.034
-216.012
-210.016
-203.961
-197.768
-191.367
-184.709
-177.786
-170.638
-163.367
-156.123
-149.084
-142.412
-136.221
-130.559
-125.415
-120.734
-116.444
-29245
-27663
-25727
-23764.8
-21631.7
-19385.6
-17030.5
-14684.1
-12484.7
-10511.9
-8786.19
-7304.05
-6056.53
-5029.89
-4204.29
-3556.02
-3060.39
-2692.81
-2430.45
-2253.52
-2144.93
-2090.07
-2075.55
-2085.91
-2102.42
-2104.98
-2075.93
-2004.93
-1891.45
-1745
-1581.63
-1418.08
-1266.59
-1132.86
-1017.99
-920.631
-838.326
-768.379
-708.346
-656.338
-610.872
-570.505
-534.453
-502.27
-473.367
-447.265
-423.589
-402.036
-382.349
-364.31
-347.742
-332.497
-318.455
-305.515
-293.585
-282.575
-272.392
-262.943
-254.131
-245.859
-238.035
-230.575
-223.4
-216.443
-209.647
-202.961
-196.342
-189.75
-183.149
-176.515
-169.841
-163.157
-156.537
-150.09
-143.93
-138.141
-132.756
-127.757
-123.121
-118.764
13071
12881.8
12599.1
12111.8
11391.2
10573.4
9719.92
8795.41
7743.19
6560.32
5320.17
4134.52
3098.35
2254.2
1590.11
1059.6
608.181
188.835
-230.714
-661.813
-1096.64
-1514.52
-1889.04
-2194.36
-2408.9
-2520.09
-2528.36
-2448.88
-2307.17
-2130.56
-1940.78
-1751.71
-1571.49
-1404.12
-1252.12
-1116.51
-997.392
-893.979
-804.935
-728.713
-663.713
-608.355
-561.158
-520.784
-486.041
-455.887
-429.437
-405.961
-384.886
-365.789
-348.373
-332.433
-317.823
-304.418
-292.106
-280.776
-270.317
-260.622
-251.584
-243.104
-235.09
-227.458
-220.133
-213.054
-206.166
-199.429
-192.81
-186.29
-179.857
-173.51
-167.259
-161.124
-155.142
-149.358
-143.821
-138.562
-133.59
-128.88
-124.418
-120.142
16219.5
15897.8
15450.2
14752.8
13710.3
12467.4
11199.8
10055.2
9086.17
8242.07
7443.53
6660.13
5917.15
5251.83
4679.4
4190.86
3764.8
3377.88
3012.28
2657.36
2308.77
1966.2
1631.69
1308.7
1001.54
715.033
454.231
223.456
25.306
-138.898
-269.873
-370.42
-443.432
-493.654
-525.166
-541.578
-546.243
-542.036
-531.324
-516.018
-497.639
-477.388
-456.212
-434.862
-413.946
-393.938
-375.177
-357.839
-341.947
-327.399
-314.025
-301.649
-290.121
-279.327
-269.189
-259.653
-250.675
-242.216
-234.237
-226.697
-219.551
-212.754
-206.263
-200.032
-194.017
-188.177
-182.473
-176.869
-171.342
-165.878
-160.485
-155.186
-150.022
-145.036
-140.261
-135.713
-131.387
-127.252
-123.285
-119.432
-13060.9
-12524.5
-11861.5
-11153.3
-10314
-9337.52
-8162.31
-6812.37
-5413.78
-4113.62
-2979.17
-1995.8
-1135.01
-390.586
232.996
736.175
1124.71
1407.7
1597.08
1705.34
1744.56
1726.12
1660.62
1558.1
1428.23
1279.96
1121.27
959.358
800.534
649.463
509.082
381.141
266.043
163.931
74.6662
-2.13797
-67.0819
-120.958
-164.712
-199.384
-226.06
-245.814
-259.682
-268.637
-273.603
-275.443
-274.928
-272.696
-269.233
-264.882
-259.877
-254.385
-248.541
-242.459
-236.248
-230.002
-223.8
-217.703
-211.751
-205.965
-200.352
-194.908
-189.623
-184.483
-179.473
-174.58
-169.795
-165.109
-160.521
-156.033
-151.65
-147.383
-143.244
-139.244
-135.385
-131.664
-128.063
-124.557
-121.125
-117.72
-7150.04
-6660.5
-6061.08
-5556.76
-5105.19
-4782.52
-4534.53
-4318.47
-4120.18
-3936.51
-3760
-3578.42
-3385.43
-3184.14
-2982.14
-2785.65
-2597.46
-2417.88
-2245.8
-2078.94
-1915.41
-1753.94
-1594.13
-1436.43
-1282.17
-1133.16
-991.404
-859.095
-738.115
-629.72
-534.463
-452.396
-383.384
-327.161
-283.131
-250.135
-226.504
-210.344
-199.871
-193.628
-190.542
-189.837
-190.884
-193.097
-195.925
-198.899
-201.663
-203.966
-205.635
-206.558
-206.687
-206.033
-204.661
-202.671
-200.178
-197.293
-194.117
-190.729
-187.19
-183.544
-179.822
-176.051
-172.249
-168.435
-164.627
-160.843
-157.1
-153.413
-149.796
-146.261
-142.818
-139.474
-136.231
-133.088
-130.035
-127.052
-124.115
-121.189
-118.243
-115.234
7901.17
7727.1
7488.34
7122.41
6587.52
5881.04
5029.68
4079.36
3086.45
2106.37
1187.85
369.655
-321.803
-873.281
-1283.91
-1562.21
-1723.09
-1785.82
-1771.38
-1700.23
-1591.73
-1462.18
-1324.41
-1187.46
-1057.49
-938.358
-832.113
-739.581
-660.351
-592.681
-533.816
-481.081
-433.136
-390.332
-353.676
-323.275
-298.772
-278.326
-260.411
-244.107
-229.122
-215.593
-203.806
-194.001
-186.271
-180.528
-176.532
-173.946
-172.392
-171.495
-170.943
-170.49
-169.968
-169.271
-168.343
-167.163
-165.728
-164.05
-162.145
-160.037
-157.749
-155.312
-152.757
-150.116
-147.426
-144.717
-142.02
-139.36
-136.757
-134.224
-131.771
-129.397
-127.097
-124.858
-122.659
-120.471
-118.258
-115.982
-113.6
-111.084
-8752.67
-8465.65
-8077.8
-7569.75
-6935.53
-6222.25
-5453.64
-4628.92
-3729.94
-2748.15
-1708.34
-674.593
268.462
1046.39
1620.55
1993.32
2193.81
2259.38
2224.81
2118.82
1963.95
1778.12
1576.26
1370.36
1169.23
978.514
801.298
639.175
493.35
365.158
255.795
165.508
92.8063
34.6803
-12.0762
-49.9273
-80.0672
-103.212
-120.063
-131.527
-138.749
-142.944
-145.205
-146.384
-147.048
-147.514
-147.908
-148.242
-148.471
-148.536
-148.389
-148.003
-147.374
-146.519
-145.468
-144.252
-142.904
-141.451
-139.915
-138.315
-136.666
-134.98
-133.27
-131.55
-129.833
-128.13
-126.454
-124.813
-123.213
-121.656
-120.143
-118.668
-117.219
-115.779
-114.324
-112.821
-111.234
-109.524
-107.654
-105.601
7707.59
7489.45
7234.53
6924.75
6491.49
5961.61
5342.97
4657.76
3941.34
3232.87
2565.99
1962.71
1433.04
979.999
606.86
319.917
124.408
18.6048
-10.5493
14.0126
65.967
123.761
175.036
215.448
243.867
259.597
261.658
249.886
225.67
192.145
153.462
113.141
73.0768
34.0345
-3.22056
-37.2768
-66.942
-91.5348
-110.964
-125.6
-136.053
-142.999
-147.103
-148.97
-149.13
-148.029
-146.035
-143.443
-140.488
-137.353
-134.186
-131.102
-128.189
-125.512
-123.112
-121.005
-119.19
-117.647
-116.345
-115.245
-114.306
-113.488
-112.756
-112.08
-111.439
-110.815
-110.198
-109.581
-108.96
-108.333
-107.695
-107.041
-106.359
-105.634
-104.843
-103.957
-102.946
-101.778
-100.426
-98.8752
7649.77
7645.54
7642.49
7566.96
7375.87
7082.23
6741.33
6395.5
6047.73
5679.41
5279.08
4849.62
4401.26
3945.47
3490.11
3038.9
2592.18
2150.44
1718.35
1305.3
922.201
578.516
280.659
32.82
-162.784
-307.051
-403.264
-456.485
-473.571
-463.016
-434.051
-395.494
-354.629
-316.454
-283.595
-256.812
-235.762
-219.529
-207.064
-197.255
-189.082
-181.713
-174.553
-167.252
-159.672
-151.844
-143.91
-136.069
-128.536
-121.508
-115.143
-109.554
-104.8
-100.894
-97.8081
-95.482
-93.8317
-92.759
-92.1601
-91.9326
-91.9806
-92.219
-92.5759
-92.9933
-93.427
-93.8455
-94.2277
-94.5607
-94.8367
-95.051
-95.1992
-95.2754
-95.2708
-95.1729
-94.9649
-94.6269
-94.1376
-93.478
-92.6344
-91.6038
2865.48
3127.62
3451.59
3722.92
3953.07
4115.02
4221.83
4269.68
4248.83
4155.02
3991.99
3771.31
3511.13
3233.05
2958.63
2705.11
2479.37
2275.02
2077.99
1878.58
1676.28
1475.53
1279.83
1090.22
907.753
733.907
569.164
412.808
264.103
123.641
-5.00202
-117.087
-206.641
-268.565
-300.41
-304.815
-287.903
-256.953
-218.628
-177.747
-137.205
-98.5248
-62.7697
-30.8842
-3.59033
18.7439
36.2046
49.3382
59.0696
66.2427
71.5104
75.2777
77.7877
79.2328
79.7986
79.6609
78.9826
77.8886
76.4705
74.8086
72.968
71.0022
68.9528
66.8508
64.7194
62.5757
60.4327
58.3006
56.1877
54.1013
52.0474
50.0318
48.0596
46.1354
44.2637
42.4486
40.6934
38.9966
37.363
35.7793
2313.65
2275.68
2209.61
2084.97
1889.75
1623.98
1303.29
947.786
579.772
221.704
-109.139
-403.588
-658.624
-872.775
-1044.63
-1172.96
-1257.35
-1298.24
-1297.31
-1258.66
-1189.28
-1098.53
-995.869
-888.766
-782.33
-679.925
-583.725
-495.206
-416.359
-349.863
-297.37
-259.365
-234.705
-219.651
-209.339
-200.247
-189.636
-176.374
-160.49
-142.381
-122.195
-100.147
-76.8157
-53.1882
-30.5007
-9.90451
7.83001
22.4414
34.1212
43.2928
50.406
55.8304
59.8516
62.7031
64.5888
65.6874
66.152
66.1082
65.6552
64.8729
63.8272
62.573
61.1557
59.6133
57.9777
56.2754
54.5285
52.7554
50.9712
49.1883
47.417
45.6658
43.9418
42.2509
40.5979
38.9873
37.4231
35.9062
34.4376
33.0002
-10292.8
-10097.2
-9876.67
-9637.41
-9369.41
-9083.36
-8772.92
-8432.41
-8060.42
-7659.65
-7235.68
-6794.1
-6340.49
-5880.57
-5419.86
-4964.63
-4521.39
-4095.32
-3688.93
-3301.19
-2929.77
-2571.77
-2224.2
-1885.32
-1559.81
-1258.54
-990.952
-759.023
-558.889
-385.726
-237.306
-113.85
-17.392
53.0622
100.672
130.821
147.743
154.73
154.471
149.175
140.725
130.686
120.273
110.332
101.371
93.631
87.1663
81.9182
77.7631
74.5358
72.0437
70.0859
68.4794
67.08
65.7837
64.5214
63.2499
61.9446
60.5939
59.195
57.751
56.2678
54.7527
53.2133
51.6568
50.09
48.519
46.9493
45.3862
43.8343
42.2979
40.7811
39.2876
37.8208
36.3836
34.979
33.6107
32.2814
30.9895
29.7167
7001.65
6939.32
6870.78
6773.97
6621.53
6433.64
6224.57
6005.61
5781.66
5551.44
5312.96
5066.89
4816.04
4561.2
4298.96
4021.86
3720.72
3389.71
3030.14
2649.93
2263.04
1890.23
1562.05
1310.99
1152.21
1063.23
991.371
895.509
771.183
637.657
513.113
406.19
319.041
249.937
196.854
157.477
129.098
109.155
95.5104
86.4677
80.7071
77.2011
75.1495
73.9408
73.1284
72.4085
71.5977
70.6089
69.4221
68.0576
66.5542
64.9558
63.3033
61.6306
59.9631
58.3174
56.7022
55.1204
53.5714
52.0527
50.5613
49.0942
47.6491
46.2241
44.8178
43.4292
42.058
40.7036
39.3661
38.0458
36.7433
35.4594
34.195
32.9517
31.7308
30.534
29.3644
28.2262
27.1179
26.0234
10207
10068.2
9911.57
9700.46
9391.08
9016.64
8623.75
8259.6
7941.97
7651.87
7354.96
7029.53
6678.49
6320.83
5974.65
5645.97
5329.39
5014.1
4689.26
4345.72
3978.82
3588.41
3176.64
2747.45
2305.38
1860.26
1431.81
1047.83
733.794
500.266
339.493
233.003
162.167
114.383
82.8916
63.6921
53.4999
49.3566
48.8446
50.2269
52.3882
54.6734
56.7265
58.3711
59.5344
60.2032
60.3991
60.1643
59.553
58.6261
57.4473
56.0789
54.5798
53.0019
51.3893
49.777
48.1909
46.6485
45.1602
43.7305
42.3595
41.0443
39.78
38.5608
37.3805
36.2331
35.113
34.0156
32.9368
31.8736
30.8239
29.7863
28.7604
27.7464
26.7451
25.7579
24.7875
23.8395
22.9149
22.0066
-5817.06
-5874.76
-5953.5
-6005.83
-6019.48
-5964.52
-5855.61
-5722.8
-5583.75
-5427.45
-5219.22
-4932.62
-4589.34
-4256.63
-3992.36
-3806.98
-3673.36
-3552.81
-3414.13
-3235.1
-3001.04
-2710.47
-2377.52
-2022.81
-1665.47
-1325.11
-1018.53
-749.519
-509.571
-291.149
-97.7013
58.5558
167.205
228.224
251.346
249.67
234.308
212.643
189.067
166.028
144.825
126.064
109.921
96.3109
85.002
75.6981
68.0889
61.8795
56.8057
52.6406
49.1952
46.3166
43.8834
41.8014
39.9975
38.4161
37.0139
35.7571
34.6187
33.5766
32.6122
31.7096
30.8549
30.0364
29.2438
28.4687
27.7039
26.9437
26.184
25.4217
24.6549
23.8828
23.1057
22.3247
21.5416
20.7591
19.9806
19.2125
18.4596
17.7341
-11467.2
-11203.3
-10902.3
-10543.8
-10058
-9452.13
-8747.84
-7979.9
-7164.34
-6287.72
-5339.37
-4364.43
-3470.62
-2758.98
-2263.18
-1962.76
-1815.33
-1769.11
-1773.19
-1792.81
-1816.3
-1839
-1848.16
-1824.99
-1755.68
-1637.98
-1481.34
-1302.83
-1119.4
-942.287
-777.28
-627.62
-495.517
-382.085
-287.08
-209.165
-146.44
-96.8773
-58.533
-29.5956
-8.39189
6.60655
16.7618
23.2506
27.0555
28.9694
29.6109
29.4456
28.8116
27.9445
27.001
26.0792
25.2347
24.4938
23.8631
23.3369
22.9021
22.5418
22.2381
21.9735
21.7316
21.4981
21.2609
21.0098
20.7369
20.4361
20.1032
19.7356
19.332
18.8925
18.418
17.9108
17.3736
16.8102
16.225
15.6231
15.0097
14.3915
13.7767
13.2075
4181.44
4018.51
3814.57
3557.6
3225.24
2825.86
2378.65
1889.51
1346.82
752.619
151.462
-386.236
-805.583
-1085.91
-1228.35
-1242.66
-1150.85
-988.214
-793.005
-599.676
-433.892
-304.006
-202.377
-121.721
-61.6342
-20.57
7.64383
28.5464
44.4559
56.0754
63.6735
67.2843
67.0089
63.4389
57.5608
50.3322
42.9621
35.9717
29.4959
23.5232
18.0685
13.2069
9.02127
5.57104
2.87729
0.922406
-0.344532
-0.998551
-1.12877
-0.829696
-0.194675
0.68834
1.74006
2.89197
4.08716
5.28007
6.43536
7.52641
8.53371
9.44346
10.2464
10.9371
11.5129
11.9738
12.322
12.5611
12.6963
12.7336
12.6798
12.5423
12.3286
12.0465
11.7037
11.3082
10.8681
10.3916
9.88505
9.35375
8.80883
8.33504
1837.76
2237.28
2785.65
3343.33
3914.4
4428.14
4861.8
5185.46
5381.66
5456.26
5435.15
5357.32
5261.69
5170.15
5080.08
4973.04
4829.8
4639.46
4402.06
4126.32
3823.43
3503.72
3175.78
2846.55
2521.69
2206.53
1906.35
1626.03
1369.35
1138.38
933.244
752.177
592.568
452.231
330.2
226.67
141.669
74.9449
25.0314
-10.4715
-34.2091
-48.8264
-56.6411
-59.5452
-59.0404
-56.281
-52.1289
-47.2085
-41.957
-36.6713
-31.5455
-26.6989
-22.1981
-18.074
-14.3343
-10.9723
-7.97327
-5.3191
-2.99025
-0.966802
0.771254
2.24394
3.47118
4.47273
5.2679
5.87548
6.31348
6.59912
6.74866
6.77738
6.69947
6.52799
6.27488
5.95117
5.56732
5.1329
4.65347
4.13076
3.57762
3.11568
11841.9
11665.8
11362.2
10837.8
10097.6
9243.5
8353.84
7474.8
6626.64
5818.45
5056.92
4346.26
3686.67
3075.76
2513.04
2002.84
1551.38
1161.91
833.217
560.303
335.664
151.169
-0.70234
-127.603
-236.073
-330.63
-414.163
-487.924
-549.654
-591.077
-601.299
-582.269
-549.061
-511.475
-466.579
-411.718
-353.14
-299.384
-254.36
-218.274
-189.125
-165.591
-146.272
-129.995
-115.876
-103.289
-91.8186
-81.2055
-71.3042
-62.0488
-53.4313
-45.4834
-38.2541
-31.784
-26.0841
-21.128
-16.8589
-13.2046
-10.0925
-7.45795
-5.24605
-3.41055
-1.9114
-0.712818
0.217947
0.911292
1.39557
1.69718
1.84047
1.84767
1.73862
1.53074
1.23891
0.875664
0.451619
-0.0248794
-0.550993
-1.12892
-1.74878
-2.28356
-12784.6
-12109.5
-11234.4
-10307.5
-9322.71
-8379.29
-7479.67
-6632.28
-5861.81
-5187.85
-4618.84
-4158.17
-3800.58
-3530.29
-3329.07
-3182.23
-3075.95
-2997.36
-2933.03
-2871.4
-2804.78
-2730.34
-2649.11
-2563.22
-2473.78
-2377.78
-2264.05
-2115.38
-1925.58
-1710.79
-1496.28
-1300.68
-1128.15
-974.512
-835.827
-711.91
-604.223
-512.992
-436.622
-372.655
-318.705
-272.851
-233.624
-199.911
-170.846
-145.73
-123.981
-105.106
-88.6909
-74.3983
-61.9564
-51.1551
-41.8331
-33.858
-27.1072
-21.456
-16.7766
-12.9441
-9.84292
-7.37014
-5.43529
-3.95909
-2.87202
-2.11323
-1.6296
-1.37483
-1.30867
-1.39626
-1.60763
-1.91732
-2.30419
-2.75127
-3.24579
-3.77887
-4.34511
-4.94263
-5.57504
-6.24979
-6.96721
-7.64105
-2360.88
-2444.14
-2499.99
-2467.97
-2367.98
-2192.45
-1970.76
-1723.73
-1461.99
-1199.16
-952.307
-737.946
-567.687
-446.265
-373.114
-341.974
-346.602
-376.031
-404.567
-390.722
-309.322
-185.21
-78.3924
-32.1443
-48.7062
-102.072
-154.541
-164.523
-119.139
-59.1612
-33.8615
-45.5485
-69.4629
-89.1509
-101.907
-109.488
-113.401
-114.369
-112.759
-108.932
-103.317
-96.3846
-88.5866
-80.3213
-71.9071
-63.5873
-55.5381
-47.8722
-40.6539
-33.9242
-27.7183
-22.083
-17.0667
-12.7193
-9.06989
-6.11198
-3.8038
-2.08084
-0.870785
-0.102114
0.291744
0.371334
0.191356
-0.198807
-0.754595
-1.43597
-2.20728
-3.03722
-3.89893
-4.77016
-5.63357
-6.47699
-7.29375
-8.08274
-8.84832
-9.60009
-10.3524
-11.1195
-11.9168
-12.7453
11293.6
11063.4
10730.9
10257.1
9665.94
9021.34
8357.17
7684.69
7017.06
6374.18
5768.11
5193.05
4632.23
4069.29
3497.55
2920.15
2347.62
1804.32
1342.43
1026.77
879.225
855.752
887.531
926.205
950.974
953.465
927.085
865.39
768.276
648.307
525.131
413.726
319.79
242.736
180.045
129.445
89.273
58.3883
35.8243
19.9155
9.50769
3.54586
1.20655
1.48373
3.46399
6.4068
9.75093
13.0882
16.1341
18.7127
20.7147
21.8722
22.415
22.384
21.8024
20.735
19.267
17.4885
15.486
13.3359
11.1011
8.83156
6.56573
4.33343
2.15854
0.0611727
-1.94101
-3.83216
-5.59832
-7.22805
-8.71352
-10.0519
-11.2469
-12.3093
-13.2577
-14.1188
-14.9249
-15.706
-16.4903
-17.3415
-8363.79
-7611.62
-6590.96
-5431.99
-4091.79
-2811.49
-1731.77
-905.088
-290.519
178.808
547.18
836.107
1054.95
1207.06
1294.17
1316.94
1280.26
1200.47
1108.5
1035.25
991.586
964.598
935.388
894.085
840.163
776.87
707.64
634.851
559.914
484.099
409.079
336.616
268.102
204.551
146.849
95.9436
52.8272
18.2995
-6.81492
-21.7758
-27.1546
-24.4734
-15.9046
-3.52901
10.6824
25.033
38.2328
49.4056
57.9871
63.6027
66.0164
65.6373
63.2528
59.4919
54.5145
48.9049
43.1271
37.4398
31.9704
26.7679
21.8418
17.1873
12.7966
8.6649
4.79207
1.1822
-2.15668
-5.21396
-7.97801
-10.4382
-12.5876
-14.4254
-15.9607
-17.2154
-18.2271
-19.0464
-19.7372
-20.3608
-20.9718
-21.6923
1372.5
1157.27
880.231
561.222
191.649
-182.198
-537.435
-855.448
-1125.49
-1345.09
-1507.94
-1598.14
-1596.82
-1495.31
-1306.15
-1062.2
-804.192
-564.837
-361.706
-199.886
-79.2344
2.43647
49.4194
67.9834
64.9589
46.3419
17.417
-17.4574
-54.9965
-92.8721
-129.488
-163.692
-194.543
-221.174
-242.627
-257.764
-265.262
-263.968
-253.218
-232.492
-202.805
-166.468
-126.311
-85.0688
-45.034
-8.12424
24.2045
51.3632
72.8548
88.3571
97.7668
101.487
100.186
95.0369
87.4203
78.2546
68.3748
58.444
48.8822
39.9166
31.6417
24.069
17.1654
10.8802
5.1621
-0.0311196
-4.7279
-8.94215
-12.6748
-15.9188
-18.6641
-20.9024
-22.6366
-23.8927
-24.7645
-25.3031
-25.5987
-25.7661
-25.9088
-26.1596
-217.859
-136.67
-10.0253
139.876
293.3
413.492
485.861
504.711
468.131
377.582
239.32
63.4022
-137.353
-348.705
-557.394
-753.611
-931.606
-1088.24
-1221.51
-1330.21
-1413.13
-1470.14
-1502.69
-1512.77
-1502.17
-1472.59
-1425.66
-1363
-1286.9
-1200.1
-1105.55
-1006.24
-905.016
-804.249
-705.835
-611.246
-521.492
-437.178
-358.604
-285.97
-219.493
-159.15
-105.18
-58.2996
-19.0995
12.4266
36.8492
54.5596
66.2791
72.877
75.296
74.5412
71.5807
67.1866
61.8762
55.977
49.7101
43.2287
36.6467
30.0543
23.525
17.119
10.8873
4.87526
-0.873395
-6.31308
-11.3936
-16.0591
-20.2486
-23.8993
-26.9508
-29.352
-31.0768
-32.2482
-32.7879
-32.8353
-32.5328
-32.0295
-31.5149
-31.0087
-894.801
-1025.17
-1189.31
-1352.5
-1501.52
-1622.17
-1721.41
-1809.65
-1894.6
-1978.77
-2058.34
-2121.69
-2150.34
-2121.85
-2019.32
-1840.82
-1601.98
-1328.78
-1046.57
-773.171
-519.464
-292.029
-95.3569
67.6625
196.339
291.705
356.001
392.153
403.964
395.708
371.706
336.09
292.727
245.185
196.627
149.7
106.518
69.081
38.8459
16.2484
1.04347
-7.59383
-10.6179
-8.81878
-3.18394
5.10029
14.7736
24.5919
33.4449
40.4749
45.1773
47.4343
47.4577
45.6562
42.4948
38.3942
33.6824
28.5924
23.2802
17.8465
12.3565
6.85639
1.38478
-4.01813
-9.30483
-14.4168
-19.2829
-23.8202
-27.9369
-31.5396
-34.5425
-36.8769
-38.5136
-39.3726
-39.6087
-39.3114
-38.6258
-37.7005
-36.8343
-35.8682
364.349
657.489
1090.27
1613.58
2229.5
2825.33
3352.47
3784.78
4109.98
4327.51
4448.5
4497.45
4510.18
4519.2
4533.94
4529.77
4466.59
4318.74
4090.38
3804.59
3486.97
3155.68
2822.24
2493.82
2175.55
1872.23
1587.68
1324.73
1085.6
871.872
684.436
523.411
388.02
276.604
186.805
116.021
61.9571
21.6745
-7.4476
-27.2952
-39.4742
-45.4017
-46.3354
-43.4001
-37.6574
-30.0951
-21.55
-12.7893
-4.47958
2.83935
8.78501
13.1598
15.9471
17.2688
17.3234
16.3285
14.4863
11.9679
8.91257
5.43163
1.61573
-2.45806
-6.71941
-11.0987
-15.5221
-19.9082
-24.1663
-28.1973
-31.8974
-35.1654
-37.909
-40.0573
-41.5822
-42.4821
-42.8186
-42.689
-42.2347
-41.5694
-40.9326
-40.2534
9620.48
9427.41
9128.88
8669.32
8033.79
7292.26
6500.13
5704.73
4940.27
4226.91
3577.73
3000.24
2493.93
2047.28
1638.19
1241.92
844.539
452.589
87.3943
-228.572
-485.499
-685.425
-835.877
-943.186
-1010.26
-1038.55
-1029.51
-985.648
-911.784
-815.277
-705.518
-592.615
-485.557
-390.749
-310.738
-245.924
-195.046
-155.782
-125.723
-102.775
-85.147
-71.3693
-60.2882
-51.0422
-43.0232
-35.8358
-29.2544
-23.1891
-17.6513
-12.7157
-8.49639
-5.08499
-2.53722
-0.858073
-0.00578613
0.0932901
-0.472368
-1.61341
-3.24812
-5.30546
-7.7241
-10.4488
-13.4259
-16.599
-19.9051
-23.2732
-26.6233
-29.8685
-32.9254
-35.6563
-38.0586
-40.0643
-41.6341
-42.7855
-43.5665
-44.0477
-44.3022
-44.4084
-44.3811
-44.3723
-10269.1
-10280.6
-10263.2
-10119.7
-9806.32
-9309.35
-8676.77
-7976.13
-7257.41
-6544.64
-5845.63
-5169.32
-4535.03
-3967.02
-3480.53
-3071.02
-2719.62
-2403.3
-2100.77
-1795.99
-1483.86
-1176.07
-895.77
-666.55
-499.888
-391.96
-329.346
-296.179
-278.851
-268.118
-259.009
-249.632
-239.712
-229.396
-218.639
-207.181
-194.775
-181.369
-167.129
-152.371
-137.476
-122.826
-108.754
-95.5054
-83.2163
-71.9285
-61.6284
-52.2908
-43.9085
-36.4996
-30.097
-24.7274
-20.3936
-17.0651
-14.6787
-13.147
-12.3707
-12.2495
-12.69
-13.6103
-14.9397
-16.617
-18.5866
-20.7947
-23.1859
-25.702
-28.2809
-30.8601
-33.3691
-35.7971
-38.0247
-40.0286
-41.8036
-43.3495
-44.6771
-45.8093
-46.7639
-47.5704
-48.1535
-48.7251
32.8572
29.043
25.7401
22.8225
20.1492
17.6196
15.1449
12.6718
10.1635
7.61453
5.0467
2.51264
0.0770121
-2.18159
-4.19354
-5.86739
-7.14929
-7.97951
-8.32515
-8.17688
-7.5754
-6.60337
-5.38741
-4.08077
-2.82695
-1.72764
-0.829652
-0.132801
0.391078
0.779761
1.06878
1.28608
1.45146
1.57829
1.67575
1.75044
1.80738
1.85035
1.88196
1.90364
1.91582
1.91815
1.90982
1.88979
1.85704
1.81136
1.75319
1.68426
1.60532
1.51891
1.42748
1.33375
1.24043
1.15003
1.06473
0.986167
0.91535
0.852688
0.798001
0.750608
0.709464
0.673339
0.640958
0.611111
0.582753
0.555094
0.527645
0.500194
0.472734
0.445406
0.418443
0.392104
0.366613
0.342129
0.318754
0.296546
0.275519
0.255649
0.236892
0.219217
0.202607
0.187036
0.172461
0.158836
0.146135
0.134341
0.123424
0.113321
0.103954
0.0952565
0.087188
0.0797219
0.0728318
0.0664894
0.0606692
0.0553466
0.0504871
0.0460383
0.0419368
0.0381259
0.0345707
0.0312575
0.0281819
0.0253364
0.0227095
0.0202923
0.0180844
0.0160887
0.0143
0.0127004
0.0112658
0.00997821
0.00882833
0.00780718
0.00689709
0.00607558
0.00532932
0.00466107
0.00407864
0.00357577
0.00312729
0.00270755
0.00231432
0.00197145
0.00170355
0.00150681
0.00134629
0.00118455
0.00101388
0.000859974
0.000753649
0.00069938
0.000671684
0.0006412
0.000602418
0.000575124
0.000580166
0.000616361
0.000662371
0.000699886
0.000732197
0.000778226
0.000848889
0.000931589
0.0010001
0.00104039
0.0010661
0.00110726
0.00118279
0.00128336
0.00138133
0.00145817
0.00152268
0.00160256
0.00171689
0.00185479
0.00197941
0.00205352
0.00206427
0.00202763
0.00197167
0.00191582
0.00186349
0.00181077
0.00175887
0.00171655
0.00169101
0.00167805
0.00166328
0.0016349
0.00159641
0.00156629
0.00156338
0.00158937
0.00162363
0.00163555
0.00160483
0.00153379
0.00144226
0.00134996
0.00126124
0.00116454
0.00104627
0.000907126
0.000767065