/*--------------------------------*- C++ -*----------------------------------*\
| =========                 |                                                 |
| \\      /  F ield         | OpenFOAM: The Open Source CFD Toolbox           |
|  \\    /   O peration     | Version:  2012                                  |
|   \\  /    A nd           | Website:  www.openfoam.com                      |
|    \\/     M anipulation  |                                                 |
\*---------------------------------------------------------------------------*/
FoamFile
{
    version     2.0;
    format      ascii;
    class       volVectorField;
    location    "0.08";
    object      U;
}
// * * * * * * * * * * * * * * * * * * * * * * * * * * * * * * * * * * * * * //

dimensions      [0 1 -1 0 0 0 0];


internalField   nonuniform List<vector> 
42400
(
(-20.8207 18.3834 -1.87798e-17)
(-62.7373 62.1648 -2.13783e-17)
(-102.373 92.3154 2.20252e-17)
(-118.918 107.473 0)
(-114.043 97.3855 0)
(-88.59 68.8878 -2.28071e-19)
(-52.8154 31.7286 0)
(-18.2672 -2.85915 1.79641e-19)
(8.08432 -28.7002 0)
(24.8133 -45.1432 2.02662e-19)
(33.6162 -54.1244 2.38389e-19)
(36.7055 -57.8592 -2.7744e-19)
(35.6551 -58.1305 -1.81444e-17)
(31.6531 -56.3507 1.85466e-17)
(25.7709 -53.3812 -3.15352e-19)
(18.8175 -49.6366 0)
(11.3212 -45.3135 0)
(3.91509 -40.6116 0)
(-2.49278 -35.6749 0)
(-7.26517 -30.5457 0)
(-10.5533 -25.1801 0)
(-12.6428 -19.8516 -6.68001e-20)
(-13.5524 -15.2528 -9.52127e-20)
(-13.4546 -11.8654 -3.42803e-19)
(-12.7495 -9.64038 3.87941e-19)
(-11.8285 -8.26959 9.5578e-21)
(-10.9521 -7.43567 2.07643e-20)
(-10.2301 -6.87576 -6.02436e-20)
(-9.69466 -6.40095 0)
(-9.35317 -5.88254 0)
(-9.1918 -5.24581 -2.11776e-18)
(-9.17401 -4.47337 2.13848e-18)
(-9.25365 -3.58405 -1.04165e-19)
(-9.38952 -2.63311 2.76193e-18)
(-9.54774 -1.69284 -2.67763e-18)
(-9.69463 -0.833768 0)
(-9.79762 -0.118176 0)
(-9.82629 0.40573 0)
(-9.75895 0.713049 0)
(-9.58567 0.809062 2.85242e-18)
(-9.32144 0.733927 -2.8624e-18)
(-9.00457 0.560118 2.67452e-18)
(-8.68871 0.378255 -2.92817e-19)
(-8.42182 0.272125 -4.8211e-18)
(-8.22394 0.294168 2.27121e-18)
(-8.07954 0.456069 -1.96942e-18)
(-7.94752 0.73736 3.91234e-18)
(-7.78026 1.10271 -1.81004e-18)
(-7.53972 1.51698 -1.10454e-19)
(-7.20534 1.95283 1.39138e-18)
(-6.77454 2.39178 -2.60497e-18)
(-6.25849 2.82194 -2.15276e-20)
(-5.676 3.23479 1.21013e-18)
(-5.04756 3.62284 -1.35224e-19)
(-4.39099 3.97865 0)
(-3.71904 4.29512 0)
(-3.03882 4.56622 0)
(-2.35238 4.78763 1.01317e-19)
(-1.65802 4.95689 9.70225e-20)
(-0.951879 5.07309 0)
(-0.22948 5.13637 1.15003e-18)
(0.512674 5.14752 -1.22083e-18)
(1.27569 5.10771 -1.18389e-18)
(2.05706 5.01845 1.16128e-18)
(2.85051 4.88151 0)
(3.64575 4.70127 0)
(4.42824 4.48241 -1.32776e-18)
(5.1792 4.2301 1.29771e-18)
(5.87799 3.95071 1.91446e-19)
(6.50328 3.65227 0)
(7.0349 3.34552 0)
(7.45781 3.04171 1.98766e-19)
(7.76448 2.75137 2.00231e-19)
(7.95654 2.48382 0)
(8.04494 2.24612 2.00971e-19)
(8.04849 2.0429 1.51808e-18)
(7.9878 1.87478 -1.47299e-18)
(7.88858 1.74391 -3.9166e-19)
(7.74881 1.63845 -1.46626e-18)
(7.65715 1.58633 -1.46867e-18)
(11.6742 -9.78704 0)
(31.3817 -21.2245 8.8199e-17)
(49.0646 -25.3509 -9.02156e-17)
(62.2162 -21.3131 0)
(71.1449 -13.086 0)
(74.4922 -3.21191 4.9095e-17)
(72.5447 5.51686 -4.97661e-17)
(66.7944 11.2617 -1.72821e-19)
(59.184 13.9125 0)
(50.6505 14.3753 -1.93368e-19)
(40.6207 14.0462 -2.26934e-19)
(27.9461 14.5962 -5.28556e-17)
(12.715 16.9393 -3.94664e-18)
(-2.60723 19.9831 5.99248e-17)
(-14.896 21.926 5.91034e-17)
(-23.0795 21.947 -5.96601e-17)
(-27.5706 20.0625 0)
(-28.2342 15.855 3.71562e-19)
(-23.5056 7.96472 0)
(-12.4406 -3.70229 0)
(1.13517 -15.7266 0)
(10.6668 -23.6925 -6.87259e-18)
(13.6922 -26.1907 3.64035e-18)
(12.4303 -24.8523 3.54974e-18)
(9.65703 -21.9146 0)
(6.78457 -18.7784 2.55695e-20)
(4.2491 -15.9785 -2.0621e-20)
(2.12886 -13.6094 5.99256e-20)
(0.406101 -11.6346 3.83068e-18)
(-0.951713 -9.99863 -3.8764e-18)
(-1.97017 -8.63248 1.53846e-19)
(-2.69086 -7.45881 1.52328e-19)
(-3.17867 -6.39573 4.02906e-18)
(-3.50043 -5.36869 -4.10853e-18)
(-3.71287 -4.32311 -3.97644e-18)
(-3.86157 -3.2372 4.02523e-18)
(-3.97758 -2.11658 0)
(-4.08041 -0.987822 -1.14057e-19)
(-4.1869 0.109522 0)
(-4.30838 1.1324 -2.04464e-19)
(-4.45462 2.04318 2.85294e-18)
(-4.62444 2.81267 -3.05335e-18)
(-4.80913 3.4234 1.69702e-19)
(-4.99009 3.86856 -1.60642e-19)
(-5.13624 4.14936 -4.55808e-21)
(-5.2078 4.27422 -1.40809e-19)
(-5.16678 4.25965 1.30473e-19)
(-4.99017 4.13255 1.82374e-18)
(-4.67733 3.92998 -1.82648e-18)
(-4.25103 3.69661 0)
(-3.7502 3.47805 1.08179e-19)
(-3.21852 3.31255 1.63911e-19)
(-2.69322 3.22399 1.1927e-18)
(-2.19766 3.21874 -1.19406e-18)
(-1.73919 3.28702 -1.72354e-19)
(-1.31159 3.40766 2.03895e-18)
(-0.899941 3.55435 -2.33236e-18)
(-0.486174 3.70126 -1.01217e-19)
(-0.0536851 3.82695 -9.69548e-20)
(0.409601 3.91614 1.84529e-18)
(0.909834 3.95955 -1.81564e-18)
(1.44765 3.95275 9.06222e-20)
(2.01717 3.89612 1.28186e-19)
(2.60758 3.79305 0)
(3.20495 3.64739 -1.45414e-18)
(3.79227 3.46421 -3.30634e-20)
(4.3526 3.24995 1.90646e-18)
(4.8707 3.01278 0)
(5.33381 2.76123 -4.32543e-19)
(5.73312 2.50368 2.40072e-19)
(6.06505 2.24819 1.73966e-18)
(6.33148 2.00215 -1.89382e-18)
(6.53859 1.77224 -1.94933e-18)
(6.69484 1.56443 1.93588e-18)
(6.80877 1.38422 -4.33805e-19)
(6.88743 1.23668 1.72011e-18)
(6.93604 1.12581 -1.21816e-18)
(6.95872 1.05719 3.92079e-19)
(6.95712 1.02111 -2.06144e-18)
(6.96879 1.09419 1.58258e-18)
(25.0765 -22.9842 -8.36998e-18)
(74.9663 -63.3041 -9.7778e-20)
(108.384 -101.415 2.26904e-19)
(112.424 -109.947 -8.54046e-20)
(76.8745 -87.6025 0)
(21.4885 -45.3468 -7.08681e-18)
(-26.4185 -7.26131 4.89606e-18)
(-54.6907 13.8735 2.43447e-18)
(-67.9851 21.4921 -1.73869e-17)
(-72.3264 22.0587 -3.83492e-18)
(-70.263 19.0655 2.18744e-17)
(-63.2318 13.9871 -1.20978e-19)
(-52.9496 7.16258 -1.65065e-19)
(-41.4398 -0.327284 -1.04066e-17)
(-30.295 -6.04226 1.06058e-17)
(-20.3621 -8.99351 -5.75723e-19)
(-11.9612 -10.3077 -2.35616e-18)
(-5.1749 -10.8291 -2.94912e-18)
(-0.268975 -10.5827 5.41834e-18)
(2.29082 -9.75989 -1.04267e-19)
(2.55674 -8.76438 9.62354e-20)
(1.26217 -7.94316 9.73414e-20)
(-0.729236 -7.41091 0)
(-2.82379 -7.13492 -1.27539e-19)
(-4.68806 -7.07764 -2.18254e-18)
(-6.1458 -7.21795 5.56932e-18)
(-7.12692 -7.49759 -3.55377e-18)
(-7.6369 -7.82253 5.1918e-18)
(-7.73108 -8.10239 -5.2542e-18)
(-7.49037 -8.27831 -5.9126e-18)
(-7.01109 -8.31755 1.12946e-17)
(-6.39417 -8.19899 -2.34339e-19)
(-5.73379 -7.91487 -5.53184e-18)
(-5.11246 -7.46257 0)
(-4.59358 -6.84451 0)
(-4.21998 -6.07165 -1.2833e-19)
(-4.01338 -5.16712 0)
(-3.97191 -4.16448 7.79251e-21)
(-4.06843 -3.10179 3.40413e-18)
(-4.25794 -2.01809 -6.59656e-18)
(-4.50178 -0.958884 3.40035e-18)
(-4.75893 0.0365978 0)
(-4.98656 0.94682 0)
(-5.14565 1.7468 2.55956e-18)
(-5.20565 2.41541 -2.40196e-18)
(-5.14503 2.93916 -1.4074e-19)
(-4.95306 3.31451 0)
(-4.63599 3.54605 0)
(-4.2177 3.64733 1.99235e-18)
(-3.73309 3.6438 -1.98199e-18)
(-3.2227 3.56727 -1.08172e-19)
(-2.72353 3.45114 0)
(-2.26136 3.32466 -1.8907e-18)
(-1.84654 3.20867 1.65329e-18)
(-1.47442 3.1136 -2.89767e-18)
(-1.1297 3.04008 2.99565e-18)
(-0.792533 2.98175 -2.68674e-18)
(-0.444311 2.92884 5.55023e-18)
(-0.0715809 2.87129 -5.35981e-18)
(0.331812 2.80028 4.09175e-20)
(0.763638 2.70799 2.53255e-18)
(1.21857 2.59323 2.43386e-18)
(1.69008 2.45751 -2.51875e-18)
(2.16689 2.30102 0)
(2.63712 2.12437 2.04013e-18)
(3.09102 1.93066 1.30485e-20)
(3.52091 1.72418 -2.76695e-18)
(3.92193 1.50989 0)
(4.29158 1.29313 5.48092e-19)
(4.62913 1.07964 1.91618e-18)
(4.93482 0.875555 -1.80626e-18)
(5.20921 0.687118 0)
(5.45275 0.520255 0)
(5.6659 0.38012 -2.35429e-19)
(5.84955 0.270681 2.32879e-19)
(6.00561 0.194499 1.44309e-18)
(6.13731 0.152765 -2.36676e-18)
(6.24945 0.145958 0)
(6.34758 0.168074 4.30991e-19)
(6.45524 0.284452 1.77539e-18)
(-23.8741 17.0472 5.16774e-17)
(-55.5036 39.7695 -7.55069e-17)
(-62.4943 32.5847 3.78356e-17)
(-39.6473 3.34808 3.29345e-17)
(-16.0014 -29.7016 -3.38933e-17)
(-10.6884 -44.5244 0)
(-20.9827 -41.5854 5.51366e-17)
(-33.4838 -32.1022 -5.59704e-17)
(-40.222 -24.0403 5.00035e-17)
(-40.0793 -19.6227 -5.11186e-17)
(-34.8899 -18.4071 4.44475e-17)
(-26.8273 -19.408 -8.68972e-17)
(-18.1668 -21.9573 7.94621e-17)
(-11.5558 -25.3165 -7.25167e-17)
(-8.13906 -28.1282 6.61474e-17)
(-6.70204 -29.6945 -3.18628e-17)
(-5.81359 -30.5009 -2.61614e-17)
(-5.05393 -31.0083 4.9878e-17)
(-4.41742 -31.1058 -2.40112e-17)
(-3.924 -30.6383 1.04622e-19)
(-3.64352 -29.5315 4.16021e-19)
(-3.72032 -27.7547 -1.66973e-17)
(-4.29428 -25.3071 1.63362e-17)
(-5.33361 -22.2955 1.09348e-19)
(-6.50699 -19.1302 0)
(-7.28009 -16.4754 1.15135e-19)
(-7.26222 -14.7873 0)
(-6.44754 -13.9971 8.01803e-18)
(-5.09704 -13.7124 -1.2887e-18)
(-3.52226 -13.5664 -6.95134e-18)
(-1.98334 -13.3447 -5.28919e-18)
(-0.652856 -12.9621 5.17557e-18)
(0.374007 -12.4025 -3.52567e-20)
(1.05627 -11.6779 -1.58741e-19)
(1.38962 -10.8069 -3.55024e-18)
(1.39664 -9.80664 3.69358e-18)
(1.1209 -8.69418 0)
(0.622776 -7.49174 3.06475e-18)
(-0.0251484 -6.23379 -2.97257e-18)
(-0.746644 -4.96628 1.88477e-19)
(-1.46273 -3.72184 -1.51869e-19)
(-2.11255 -2.53884 0)
(-2.67331 -1.46659 0)
(-3.11527 -0.529066 0)
(-3.4132 0.270115 -1.33186e-19)
(-3.56025 0.928164 2.25869e-18)
(-3.56502 1.44482 -2.11297e-18)
(-3.4472 1.82577 0)
(-3.23559 2.08351 0)
(-2.96267 2.23588 1.94507e-18)
(-2.6592 2.30385 -1.80578e-18)
(-2.34907 2.30878 1.88616e-18)
(-2.04616 2.26998 -1.39526e-18)
(-1.75432 2.20288 2.51981e-19)
(-1.46991 2.11809 -1.55474e-18)
(-1.18542 2.02179 1.9903e-18)
(-0.892927 1.91663 -3.4956e-18)
(-0.586518 1.80288 3.20753e-18)
(-0.263426 1.6794 0)
(0.0766537 1.54518 -2.35987e-19)
(0.432872 1.40145 -3.24332e-18)
(0.799853 1.24663 2.35951e-19)
(1.17116 1.07605 6.4648e-18)
(1.54518 0.892677 -5.89506e-18)
(1.92013 0.69996 2.56679e-18)
(2.29395 0.501186 2.93243e-18)
(2.66464 0.300279 -2.14319e-18)
(3.03018 0.101729 -3.98011e-19)
(3.38824 -0.0895693 -2.67322e-18)
(3.73603 -0.268711 2.68694e-18)
(4.07048 -0.43112 -6.63192e-19)
(4.38859 -0.572802 -2.92236e-18)
(4.68782 -0.690487 2.4984e-18)
(4.96642 -0.781653 0)
(5.22361 -0.844464 -2.35928e-18)
(5.45956 -0.877707 5.38173e-19)
(5.67525 -0.880874 5.01683e-18)
(5.87227 -0.854535 -2.13902e-18)
(6.05563 -0.795968 2.04602e-18)
(6.24007 -0.683856 -1.99863e-18)
(-12.8778 11.1448 1.3845e-17)
(-44.2942 34.1168 0)
(-72.2981 62.2599 0)
(-87.5972 76.8693 1.88888e-19)
(-81.9257 76.1153 0)
(-63.7988 63.0569 0)
(-40.1659 43.5637 0)
(-15.3743 21.5857 -4.33252e-19)
(5.82837 0.951171 0)
(18.5295 -14.1967 -9.29383e-20)
(20.7897 -21.6833 6.61379e-17)
(14.2159 -22.322 -1.29758e-16)
(2.17659 -18.9749 6.42692e-17)
(-10.9682 -15.6083 0)
(-20.0326 -16.0447 -3.35543e-19)
(-21.6538 -21.672 1.15994e-19)
(-17.2912 -30.6452 0)
(-11.2814 -40.11 4.96299e-17)
(-6.62409 -48.3277 -9.97106e-17)
(-3.72288 -54.8732 1.81301e-18)
(-1.91488 -59.7779 4.75317e-17)
(-0.741946 -63.0345 4.80523e-19)
(-0.220535 -64.352 0)
(-0.713319 -63.2397 -3.59972e-17)
(-2.46413 -59.521 3.72549e-17)
(-4.83759 -53.9351 -2.78332e-17)
(-6.41215 -48.0003 2.84674e-17)
(-6.31163 -42.8448 1.98703e-17)
(-4.87152 -38.5885 -1.9863e-17)
(-2.91028 -34.8582 0)
(-1.07918 -31.3182 -1.06126e-17)
(0.304045 -27.8378 1.07138e-17)
(1.17094 -24.4365 1.88583e-19)
(1.58904 -21.2004 -5.42329e-18)
(1.67283 -18.2138 5.6244e-18)
(1.529 -15.5244 -5.22011e-20)
(1.23211 -13.1377 -4.7472e-20)
(0.823444 -11.0271 -2.8291e-18)
(0.326449 -9.15414 2.84256e-18)
(-0.220669 -7.49062 2.30912e-18)
(-0.788706 -6.02151 1.66306e-20)
(-1.33798 -4.72981 -2.29047e-18)
(-1.82896 -3.59331 0)
(-2.2351 -2.59764 9.06029e-20)
(-2.5427 -1.73751 -1.82403e-18)
(-2.75121 -1.01205 4.22742e-18)
(-2.86654 -0.417461 -4.14733e-18)
(-2.89852 0.054513 1.95658e-18)
(-2.86059 0.414691 0)
(-2.76766 0.675676 1.34206e-19)
(-2.63365 0.851174 -2.16376e-18)
(-2.4697 0.955094 2.15998e-18)
(-2.28343 1.00059 3.97711e-20)
(-2.07913 0.999251 -2.16322e-18)
(-1.85858 0.960661 1.63483e-18)
(-1.62216 0.892309 -2.2034e-18)
(-1.36956 0.79979 -2.51005e-18)
(-1.10031 0.687114 4.56979e-18)
(-0.814124 0.557039 -4.3014e-18)
(-0.51062 0.412097 4.47385e-18)
(-0.188842 0.254352 0)
(0.152503 0.0858369 -2.28072e-19)
(0.512956 -0.0905784 -3.96661e-18)
(0.891617 -0.271692 3.45475e-18)
(1.28726 -0.453904 9.71846e-19)
(1.69773 -0.633024 0)
(2.11943 -0.80483 3.75934e-18)
(2.54756 -0.9651 -3.1739e-18)
(2.97632 -1.1099 -3.8809e-19)
(3.39932 -1.23588 -4.63222e-19)
(3.81007 -1.34052 8.12135e-19)
(4.20251 -1.42223 -7.19811e-20)
(4.57151 -1.48043 -3.39871e-18)
(4.91331 -1.5154 2.90651e-18)
(5.22573 -1.52804 -3.7371e-19)
(5.50827 -1.51963 0)
(5.76192 -1.49159 -3.11862e-18)
(5.98956 -1.44432 2.44646e-18)
(6.19767 -1.37487 0)
(6.38724 -1.30815 -2.21694e-18)
(8.17616 -5.70602 6.05695e-20)
(18.5041 -11.27 3.55622e-17)
(23.8326 -10.5951 -3.53068e-17)
(20.6489 -1.94679 7.05884e-17)
(5.91911 16.3707 -3.53625e-17)
(-21.827 42.9734 -2.7776e-19)
(-58.9474 73.8225 -2.91413e-17)
(-95.4039 100.49 3.00468e-17)
(-118.085 113.248 2.57575e-19)
(-121.361 109.399 3.26259e-19)
(-112.256 95.9605 1.66982e-17)
(-101.473 81.7303 8.51076e-18)
(-94.1498 70.7298 -2.58992e-17)
(-90.0611 62.91 1.07859e-17)
(-87.1176 56.7651 -1.46274e-17)
(-83.5514 50.8611 3.91541e-18)
(-78.6747 44.3735 0)
(-72.5398 36.9477 0)
(-65.4181 28.6623 1.58968e-17)
(-57.331 19.8032 9.92985e-19)
(-48.1177 10.5781 -1.61322e-17)
(-37.6062 0.947012 1.39486e-17)
(-25.5554 -9.18061 -2.64403e-17)
(-12.0246 -19.6096 1.20772e-17)
(1.60441 -29.2308 9.19332e-18)
(12.7755 -36.199 -8.17342e-19)
(20.0553 -39.5471 -9.27863e-18)
(24.2323 -39.9368 2.09859e-19)
(26.6482 -38.6168 -1.9911e-19)
(27.9561 -36.3806 3.67299e-19)
(28.2408 -33.4672 0)
(27.4426 -29.9804 3.94682e-18)
(25.6997 -26.0856 -6.88728e-18)
(23.3116 -22.0433 2.86329e-18)
(20.6021 -18.1221 0)
(17.8253 -14.5257 1.04346e-19)
(15.1398 -11.3756 -1.24231e-19)
(12.6278 -8.71145 0)
(10.3077 -6.53321 0)
(8.18929 -4.7892 3.23578e-19)
(6.2582 -3.41397 -2.93722e-19)
(4.51264 -2.33125 1.14648e-19)
(2.9661 -1.47642 0)
(1.63399 -0.802091 8.80844e-19)
(0.526792 -0.27264 1.70351e-19)
(-0.358572 0.136003 -1.346e-18)
(-1.04172 0.437191 -9.20248e-20)
(-1.54787 0.644112 2.34816e-19)
(-1.90274 0.771142 0)
(-2.13099 0.832071 -2.36558e-18)
(-2.25476 0.839593 4.59699e-18)
(-2.29282 0.804977 -2.5116e-18)
(-2.26039 0.737812 -2.93417e-19)
(-2.16932 0.645894 -2.91467e-18)
(-2.02852 0.535269 2.29978e-19)
(-1.84447 0.41042 5.32447e-18)
(-1.62168 0.274569 -1.97671e-18)
(-1.36299 0.130196 0)
(-1.06999 -0.0205514 0)
(-0.744219 -0.176836 3.72829e-19)
(-0.386954 -0.337886 3.67818e-19)
(0.00110434 -0.501483 0)
(0.418645 -0.665291 4.78339e-18)
(0.863361 -0.826634 -4.6945e-18)
(1.33175 -0.982191 -5.3632e-18)
(1.81911 -1.12812 -6.08663e-19)
(2.31935 -1.26024 4.06307e-18)
(2.8251 -1.37434 -4.36692e-18)
(3.32795 -1.46668 4.26458e-18)
(3.81897 -1.53437 -9.12772e-20)
(4.28926 -1.57591 3.41129e-18)
(4.73077 -1.5915 -3.32878e-18)
(5.13701 -1.58316 -3.09928e-18)
(5.50369 -1.5545 3.86285e-18)
(5.82913 -1.51019 -2.79674e-18)
(6.11425 -1.45522 3.07759e-18)
(6.36237 -1.39382 -2.85169e-18)
(6.57931 -1.32783 5.46557e-18)
(6.7715 -1.2604 -5.72918e-20)
(6.9281 -1.23437 -6.13024e-20)
(6.24955 -4.33395 3.64955e-19)
(21.8516 -15.7282 -1.35732e-19)
(40.5488 -31.6478 -5.49791e-21)
(60.3371 -48.2383 -5.29676e-19)
(75.5267 -60.9164 6.90907e-19)
(76.5787 -61.8432 -3.09802e-18)
(55.3417 -45.385 -1.5529e-18)
(18.0491 -15.8627 5.44122e-18)
(-17.9313 14.6788 -7.20806e-18)
(-39.0095 36.7244 7.40505e-18)
(-44.064 49.0431 -5.25685e-18)
(-39.5809 55.0996 5.6527e-18)
(-31.7617 58.2205 -3.80949e-19)
(-23.7199 60.206 3.3995e-19)
(-16.2049 61.6525 1.77296e-21)
(-8.89362 62.5297 4.89679e-20)
(-1.26667 62.6211 1.91748e-17)
(7.07169 61.7058 -1.94901e-17)
(16.2713 59.6968 -3.0088e-19)
(26.2148 56.5929 7.51084e-19)
(36.6125 52.4454 2.69285e-17)
(46.972 47.4466 -2.60403e-17)
(56.5877 41.8723 0)
(64.6491 36.0443 -4.94772e-19)
(70.5664 30.2414 0)
(74.3026 24.7253 0)
(76.2184 19.8345 -3.16347e-19)
(76.6781 15.9169 -1.72993e-17)
(75.8039 13.1399 1.78009e-17)
(73.5687 11.3818 1.45339e-17)
(70.0345 10.4299 -1.50834e-17)
(65.334 10.0791 2.6383e-19)
(59.6842 10.1564 -2.05564e-19)
(53.3293 10.5273 0)
(46.5017 11.0662 -1.92754e-19)
(39.4152 11.6493 0)
(32.283 12.1499 0)
(25.3633 12.4546 -8.28849e-20)
(18.9602 12.4423 0)
(13.3856 12.0408 0)
(8.85019 11.2502 -1.65983e-18)
(5.38465 10.1578 1.62509e-18)
(2.85664 8.90154 0)
(1.05429 7.61348 0)
(-0.228448 6.38629 0)
(-1.14124 5.28012 -1.61805e-19)
(-1.78069 4.32539 9.19145e-20)
(-2.2122 3.52281 1.88268e-18)
(-2.48151 2.8573 -1.98793e-18)
(-2.62163 2.30915 2.64065e-18)
(-2.65748 1.85846 -3.00741e-18)
(-2.6084 1.48708 3.98272e-19)
(-2.4895 1.17921 2.3479e-19)
(-2.31249 0.921473 0)
(-2.08643 0.702726 0)
(-1.8184 0.513643 -2.89477e-18)
(-1.51295 0.346016 -4.28614e-19)
(-1.17343 0.193088 3.33935e-18)
(-0.801973 0.0491499 -3.34742e-18)
(-0.399733 -0.0901249 3.38281e-18)
(0.0323689 -0.227486 6.13802e-18)
(0.493404 -0.364768 -2.06311e-20)
(0.982115 -0.50254 -1.20586e-17)
(1.49654 -0.639684 6.10781e-18)
(2.03354 -0.773426 4.0251e-19)
(2.58834 -0.899484 6.50498e-19)
(3.15431 -1.01235 5.44959e-18)
(3.72284 -1.10581 -1.05487e-17)
(4.2835 -1.17364 5.09943e-18)
(4.82465 -1.21058 5.54239e-19)
(5.33428 -1.21332 4.49886e-18)
(5.80123 -1.18143 -4.95628e-18)
(6.21658 -1.11795 0)
(6.57484 -1.02944 -4.50982e-19)
(6.87483 -0.925326 0)
(7.11986 -0.816554 3.35298e-18)
(7.3172 -0.713522 -9.82139e-20)
(7.4769 -0.624321 -3.05709e-18)
(7.61041 -0.555199 2.05947e-18)
(7.69852 -0.562079 6.06925e-19)
(-14.7267 8.19558 -2.8872e-17)
(-44.7614 24.0689 4.34495e-17)
(-65.2626 30.269 4.16036e-20)
(-60.2062 22.4541 4.39502e-17)
(-35.5149 3.41585 -4.49228e-17)
(-6.16564 -16.689 4.4142e-17)
(15.3312 -30.0347 -8.89882e-17)
(25.3097 -33.4852 4.41944e-17)
(28.308 -29.2864 -4.23164e-17)
(30.5099 -21.5518 4.25034e-17)
(34.0048 -12.5739 0)
(37.122 -2.78334 -2.75261e-19)
(37.8206 7.69864 -5.98297e-20)
(35.9232 18.2494 0)
(32.9257 27.9362 0)
(30.2296 35.9011 0)
(28.4949 41.94 0)
(27.6648 46.4443 1.40326e-19)
(27.2589 50.0099 0)
(26.8082 53.12 -3.43936e-17)
(26.0545 55.9616 3.35423e-17)
(24.9619 58.3822 5.15045e-17)
(23.8199 59.8995 -5.3076e-17)
(23.2269 59.902 -3.65945e-17)
(23.7183 57.9831 3.77882e-17)
(25.2945 54.2034 -2.46387e-17)
(27.3152 49.0916 2.53241e-17)
(28.8639 43.3841 -1.68507e-17)
(29.1882 37.7206 2.73274e-18)
(27.9366 32.5293 1.42584e-17)
(25.1339 28.0409 0)
(21.0403 24.3189 1.34246e-19)
(16.0629 21.3004 1.49016e-19)
(10.6711 18.8605 0)
(5.33714 16.8568 1.95067e-19)
(0.469532 15.1681 0)
(-3.63402 13.7072 0)
(-6.79757 12.4138 5.70125e-18)
(-8.96136 11.2382 -1.07245e-17)
(-10.1708 10.1379 5.28455e-18)
(-10.5617 9.0825 4.5686e-18)
(-10.3388 8.06117 -4.76529e-18)
(-9.72644 7.08172 -1.79677e-19)
(-8.9186 6.16151 0)
(-8.05265 5.31838 4.72767e-18)
(-7.20831 4.56499 -4.21049e-18)
(-6.42044 3.90603 0)
(-5.69703 3.33956 0)
(-5.03304 2.86002 -4.06524e-18)
(-4.41867 2.46014 4.70846e-18)
(-3.84337 2.13186 4.96892e-18)
(-3.29758 1.86686 -4.61915e-18)
(-2.77364 1.65679 -4.63655e-18)
(-2.26505 1.49366 8.73859e-18)
(-1.76581 1.37035 -4.33235e-18)
(-1.27279 1.2763 -1.07219e-18)
(-0.782999 1.20206 0)
(-0.293089 1.14006 5.69324e-19)
(0.200857 1.08317 -3.53091e-18)
(0.702202 1.02467 7.56973e-18)
(1.2145 0.958816 -3.93765e-18)
(1.7409 0.881034 0)
(2.28381 0.788514 -4.27327e-19)
(2.84445 0.680695 0)
(3.4222 0.559525 -4.01837e-19)
(4.01403 0.429602 -4.4386e-19)
(4.61395 0.298062 -8.49185e-19)
(5.21273 0.174137 -6.0476e-18)
(5.79805 0.0683095 5.13932e-18)
(6.35507 -0.00892905 -7.23476e-19)
(6.86769 -0.0486743 -5.09744e-18)
(7.32032 -0.0453693 6.1747e-18)
(7.70013 0.00158348 -4.47272e-18)
(7.9993 0.0867772 4.34888e-18)
(8.21678 0.198793 -4.41462e-18)
(8.35894 0.321461 3.30899e-18)
(8.43897 0.436814 3.4031e-18)
(8.47374 0.526699 -3.29865e-18)
(8.48537 0.584734 7.31962e-19)
(8.45687 0.525853 -6.88007e-19)
(-19.9711 8.69661 -1.8282e-17)
(-60.1084 30.4622 -3.15051e-17)
(-88.1641 38.1086 6.62433e-17)
(-79.0993 33.0796 -7.24365e-17)
(-52.8261 19.3204 3.81223e-17)
(-26.5107 8.36192 -1.63255e-20)
(-2.76436 -0.128573 -4.25352e-17)
(20.0004 -6.88629 8.65975e-17)
(40.9676 -11.3752 -1.18884e-19)
(56.5444 -12.084 -4.40121e-17)
(62.4632 -7.73011 8.00189e-19)
(56.8795 1.64105 3.90517e-17)
(42.1723 14.4431 -3.97601e-17)
(23.6026 28.0417 3.33958e-17)
(6.36573 39.9377 -3.40012e-17)
(-6.41167 48.5349 -2.78563e-17)
(-13.3274 53.1699 2.83539e-17)
(-14.175 53.7246 -1.43701e-19)
(-10.0869 50.8002 0)
(-3.51837 45.8893 2.0534e-17)
(2.72669 40.7488 -2.05058e-17)
(6.82196 36.5442 -5.41465e-19)
(8.34689 33.5998 -1.45784e-17)
(7.82498 31.6897 1.51493e-17)
(6.048 30.3431 -3.44078e-19)
(3.70321 29.0758 0)
(1.2434 27.5481 1.10315e-19)
(-1.09296 25.6014 3.90533e-21)
(-3.22684 23.2307 8.09533e-18)
(-5.16625 20.5483 -8.18221e-18)
(-6.9339 17.7287 -2.86859e-18)
(-8.54604 14.9531 2.8769e-18)
(-10.0013 12.3667 1.16435e-19)
(-11.272 10.0786 -2.94294e-18)
(-12.3134 8.13954 6.56481e-18)
(-13.0778 6.55619 -3.92076e-18)
(-13.5309 5.30557 -5.29521e-18)
(-13.6596 4.34457 5.64082e-18)
(-13.4742 3.62009 1.18822e-19)
(-13.0076 3.07816 -2.96099e-19)
(-12.3121 2.67047 1.83454e-19)
(-11.4508 2.3591 -6.96986e-18)
(-10.4863 2.11837 1.96493e-19)
(-9.47061 1.93367 6.96663e-18)
(-8.44159 1.79806 -7.16614e-18)
(-7.42429 1.70869 6.80527e-18)
(-6.43417 1.664 0)
(-5.47953 1.66184 6.86505e-18)
(-4.56448 1.70006 -6.71786e-18)
(-3.69195 1.77592 5.76942e-18)
(-2.86327 1.88509 -4.45187e-19)
(-2.07756 2.02396 -1.14696e-19)
(-1.33437 2.18772 -1.08266e-19)
(-0.632438 2.36971 -1.01613e-19)
(0.029945 2.56222 -5.41873e-18)
(0.656107 2.75935 2.48089e-19)
(1.25091 2.95624 0)
(1.81787 3.14394 -5.4517e-18)
(2.36271 3.31478 4.26175e-18)
(2.89129 3.46047 0)
(3.41002 3.57307 -5.04079e-18)
(3.92555 3.64564 3.82066e-18)
(4.44417 3.67269 0)
(4.97092 3.65072 -5.21371e-19)
(5.50876 3.579 0)
(6.05764 3.46017 -6.94676e-18)
(6.61362 3.30068 1.46655e-17)
(7.16828 3.11085 -6.88763e-18)
(7.70855 2.90443 7.64525e-19)
(8.21713 2.69756 7.21535e-19)
(8.67386 2.50715 -5.55336e-18)
(9.05796 2.34862 4.77527e-18)
(9.35116 2.23332 -6.25605e-19)
(9.54125 2.16604 -5.80095e-19)
(9.62531 2.14329 1.05027e-18)
(9.61141 2.15266 4.77093e-19)
(9.51889 2.17568 4.03785e-18)
(9.37358 2.18542 -1.36452e-19)
(9.2097 2.17856 -3.62604e-18)
(9.03503 2.03005 -7.43277e-19)
(-30.4796 13.087 0)
(-75.6443 28.0186 3.89397e-19)
(-93.6986 36.3213 1.94151e-19)
(-69.1013 21.2623 6.61857e-17)
(-5.68266 -6.90739 -1.32424e-16)
(61.6812 -36.8303 1.29553e-16)
(109.292 -58.8194 -6.48288e-17)
(138.795 -73.3291 0)
(157.154 -82.8293 -8.28632e-19)
(165.735 -87.8797 6.00888e-17)
(163.083 -87.8706 -6.21484e-17)
(149.082 -82.469 -5.54886e-17)
(127.022 -72.3783 1.08839e-16)
(102.187 -59.2542 -4.58696e-18)
(78.6329 -44.984 -4.47623e-18)
(57.8982 -30.9835 -4.62289e-17)
(40.2509 -18.2113 1.4948e-19)
(25.9693 -7.65236 3.31948e-17)
(15.2983 -0.101125 -3.38415e-17)
(7.93293 4.3187 -3.70403e-19)
(3.01762 5.98586 1.30024e-19)
(-0.355564 5.76458 7.98859e-19)
(-2.86364 4.53276 1.04961e-17)
(-4.95863 2.91449 -4.0197e-18)
(-6.90819 1.27803 -6.81947e-18)
(-8.82234 -0.172294 2.87283e-19)
(-10.6495 -1.32834 -2.53415e-18)
(-12.2866 -2.21786 6.30824e-18)
(-13.6459 -2.90512 -1.00622e-17)
(-14.6953 -3.42456 5.58227e-18)
(-15.4696 -3.76909 0)
(-16.0371 -3.90788 -1.64238e-17)
(-16.4459 -3.83444 3.27542e-17)
(-16.6869 -3.57227 -1.64078e-17)
(-16.7102 -3.18308 1.52798e-17)
(-16.4667 -2.73707 -1.63854e-17)
(-15.9389 -2.28482 -3.12459e-19)
(-15.1463 -1.85438 0)
(-14.1343 -1.45599 1.04851e-19)
(-12.9588 -1.08904 -1.11614e-17)
(-11.6765 -0.747612 1.18835e-17)
(-10.3391 -0.424104 -3.493e-19)
(-8.98547 -0.109981 3.32649e-19)
(-7.64469 0.205395 0)
(-6.33719 0.5319 0)
(-5.07681 0.878518 8.03095e-18)
(-3.8736 1.24678 -9.14088e-18)
(-2.73527 1.63553 -4.52859e-19)
(-1.66431 2.04647 -7.56415e-18)
(-0.662214 2.47918 1.52667e-17)
(0.270376 2.93071 -6.74915e-18)
(1.13428 3.39629 0)
(1.92993 3.86987 6.86633e-18)
(2.65959 4.34614 -6.38063e-18)
(3.32622 4.81928 0)
(3.933 5.28303 6.0823e-18)
(4.48464 5.73041 -5.66812e-18)
(4.98649 6.15405 5.32268e-18)
(5.44488 6.54631 -4.58438e-18)
(5.86709 6.89924 0)
(6.26135 7.20457 1.19075e-18)
(6.63665 7.45397 5.59473e-19)
(7.00222 7.63928 -4.39776e-18)
(7.36686 7.753 6.15205e-19)
(7.73792 7.789 4.13664e-18)
(8.12004 7.74344 0)
(8.51389 7.6157 4.54628e-19)
(8.91493 7.40935 0)
(9.31265 7.13272 0)
(9.6905 6.79919 -6.13982e-18)
(10.0269 6.42661 5.98815e-18)
(10.2977 6.03601 4.65537e-18)
(10.4797 5.64953 3.81006e-19)
(10.5553 5.28739 -4.24151e-18)
(10.5172 4.96489 -4.791e-18)
(10.371 4.68837 4.13223e-18)
(10.1363 4.45639 -4.61455e-19)
(9.84447 4.24818 -3.41094e-18)
(9.53113 4.07068 7.29305e-18)
(9.24715 3.78588 -2.30512e-18)
(-48.5326 18.8397 2.27055e-17)
(-97.4868 37.5006 -1.72339e-17)
(-100.752 39.9842 -2.16353e-17)
(-82.6534 32.4003 2.2047e-17)
(-58.7086 21.6813 -1.40294e-19)
(-28.908 6.12476 -1.08051e-19)
(2.13042 -12.4803 0)
(30.5457 -32.1146 4.85049e-17)
(54.1572 -50.6554 -5.01061e-17)
(71.5819 -66.5525 0)
(82.6889 -78.9624 -5.92461e-17)
(89.1209 -87.6498 1.22448e-16)
(93.7942 -92.9652 5.52222e-19)
(98.5035 -95.0769 -1.29401e-16)
(101.404 -93.3181 6.57603e-17)
(97.8664 -86.8312 1.50824e-19)
(84.8515 -75.7658 5.30265e-19)
(64.1573 -61.6476 0)
(40.8924 -46.7416 4.56298e-17)
(19.7574 -33.0624 -4.63156e-17)
(3.00749 -21.8493 3.35825e-19)
(-9.30038 -13.3314 3.15272e-17)
(-18.09 -7.20289 -3.18986e-17)
(-24.3403 -3.00353 2.42871e-17)
(-28.7497 -0.274413 -2.46432e-17)
(-31.8168 1.36612 -2.90159e-19)
(-33.8639 2.21679 1.70951e-17)
(-35.0666 2.48962 -2.12613e-18)
(-35.4709 2.28518 -2.77742e-17)
(-35.0358 1.63477 1.37042e-18)
(-33.7327 0.581748 1.15076e-17)
(-31.655 -0.745934 9.65474e-18)
(-29.0432 -2.14108 -1.01261e-17)
(-26.1978 -3.39346 0)
(-23.3623 -4.36326 5.04446e-19)
(-20.6696 -4.99643 4.79894e-19)
(-18.1589 -5.30711 0)
(-15.818 -5.34258 1.33984e-17)
(-13.6213 -5.15755 -1.38672e-17)
(-11.5469 -4.80052 -3.87765e-19)
(-9.5805 -4.30704 0)
(-7.7174 -3.71427 3.49603e-19)
(-5.96094 -3.06327 1.08731e-17)
(-4.31425 -2.37534 -1.08282e-17)
(-2.77634 -1.65945 0)
(-1.34919 -0.928121 -8.60797e-18)
(-0.0329337 -0.189188 1.00327e-17)
(1.17347 0.553868 0)
(2.27031 1.29342 0)
(3.25943 2.02304 -4.83185e-19)
(4.14463 2.73933 -4.62544e-19)
(4.93082 3.43981 0)
(5.62333 4.12266 6.51273e-18)
(6.22802 4.78629 -6.87166e-18)
(6.75117 5.42894 -6.34762e-18)
(7.19943 6.04846 5.93579e-19)
(7.57984 6.64212 1.18173e-17)
(7.89995 7.20648 -1.13098e-17)
(8.16788 7.73744 -5.04409e-19)
(8.39234 8.23023 4.60033e-18)
(8.58256 8.67946 -6.09206e-19)
(8.74815 9.07921 0)
(8.89877 9.423 0)
(9.04358 9.70391 4.26588e-18)
(9.19053 9.91467 -4.69711e-18)
(9.34538 10.0479 0)
(9.51061 10.0968 4.63514e-19)
(9.68436 10.0553 0)
(9.85967 9.91966 3.25958e-18)
(10.0244 9.68914 -3.18211e-18)
(10.1622 9.36767 7.28624e-19)
(10.2551 8.96488 6.01427e-18)
(10.2865 8.49705 -5.19363e-18)
(10.2447 7.98663 5.91321e-19)
(10.1255 7.46076 0)
(9.93306 6.94615 0)
(9.67946 6.46729 0)
(9.38865 6.02981 -3.90681e-18)
(9.07562 5.65342 -2.85491e-19)
(8.81663 5.25254 6.04346e-18)
(5.83417 3.33891 1.31082e-16)
(8.78909 23.3566 1.80394e-16)
(4.86114 30.56 -1.84841e-16)
(8.7179 47.2589 1.60879e-16)
(12.3583 54.4237 -1.64829e-16)
(14.7052 61.6856 -2.54992e-19)
(13.7087 66.8701 -2.16356e-19)
(12.612 69.0373 0)
(16.2075 67.5871 5.91499e-19)
(25.7351 62.8762 0)
(38.4288 55.8102 -1.12104e-19)
(50.6736 47.3299 -5.66786e-17)
(60.1615 38.0903 5.77534e-17)
(65.7803 28.4273 4.0732e-17)
(66.7636 18.6537 -4.13754e-17)
(62.4376 9.3798 3.01953e-17)
(52.6984 1.39143 -3.18578e-17)
(38.6328 -4.80161 0)
(22.4478 -9.37677 0)
(6.48372 -12.9762 0)
(-7.58247 -16.2487 -2.16349e-17)
(-18.9631 -19.6362 4.29561e-17)
(-27.4383 -23.2989 -4.32987e-19)
(-33.0046 -27.1469 -4.44428e-17)
(-35.8247 -30.9154 2.34016e-17)
(-36.3392 -34.1973 0)
(-35.2371 -36.5315 7.99761e-19)
(-33.2618 -37.5734 0)
(-30.9553 -37.2668 -2.12675e-17)
(-28.5195 -35.8532 2.07335e-17)
(-25.9121 -33.739 -1.73131e-19)
(-23.0693 -31.2988 0)
(-20.0349 -28.7646 1.45252e-17)
(-16.958 -26.2297 -2.74703e-17)
(-13.966 -23.7344 1.32602e-17)
(-11.1752 -21.3106 -1.05522e-17)
(-8.63196 -18.9788 2.02845e-17)
(-6.33565 -16.7529 -9.72239e-18)
(-4.28197 -14.6446 0)
(-2.44936 -12.6626 0)
(-0.815321 -10.8171 0)
(0.643976 -9.1066 6.74841e-18)
(1.95015 -7.51905 -1.97983e-17)
(3.11498 -6.05325 1.26662e-17)
(4.14552 -4.71443 0)
(5.04931 -3.50038 -1.09289e-17)
(5.83379 -2.4044 1.05778e-17)
(6.50774 -1.41894 9.4925e-18)
(7.08087 -0.534786 -1.03206e-18)
(7.56337 0.259162 -4.14756e-19)
(7.96572 0.975572 -3.78851e-19)
(8.29797 1.62793 -8.03912e-18)
(8.56904 2.22953 0)
(8.78636 2.79243 0)
(8.95604 3.32654 -6.20184e-18)
(9.08326 3.83922 6.55497e-18)
(9.17291 4.33508 0)
(9.23016 4.81624 0)
(9.26078 5.28266 3.45214e-19)
(9.27124 5.73258 6.54833e-19)
(9.26851 6.16285 0)
(9.25961 6.56928 0)
(9.25096 6.94688 -5.66651e-19)
(9.24759 7.29002 -5.38408e-19)
(9.25231 7.59263 4.57324e-18)
(9.26486 7.84838 -7.81992e-18)
(9.28126 8.05087 -3.39695e-19)
(9.29368 8.19396 6.99413e-18)
(9.29096 8.27196 -7.00302e-18)
(9.26058 8.28004 6.20379e-18)
(9.19187 8.2149 -1.20467e-18)
(9.0803 8.07597 -2.78109e-18)
(8.93069 7.86711 4.98728e-18)
(8.75691 7.5979 -1.98974e-19)
(8.57658 7.28401 -8.86291e-18)
(8.40396 6.94514 4.732e-18)
(8.24362 6.60298 0)
(8.09829 6.27364 8.9607e-19)
(7.95169 5.97034 0)
(7.85188 5.68163 -3.02448e-18)
(40.7723 -14.6576 0)
(65.2001 -27.3484 -3.77983e-19)
(36.9601 -22.4845 3.76567e-19)
(-12.885 -12.4271 8.26356e-17)
(-48.9925 -2.31543 -1.63174e-16)
(-65.7652 4.92924 8.16084e-17)
(-63.4541 8.62295 2.14097e-19)
(-47.9052 10.096 0)
(-27.8261 10.6839 0)
(-10.9316 11.1273 0)
(-1.29035 11.143 1.09316e-19)
(0.702205 10.0487 4.48212e-19)
(-3.32636 7.46359 0)
(-11.3809 3.56715 -2.49649e-19)
(-21.9065 -1.05487 -6.01835e-19)
(-33.7829 -5.77953 -7.58774e-18)
(-46.0126 -10.211 8.01901e-18)
(-57.6431 -14.1353 2.55716e-19)
(-67.7609 -17.3972 0)
(-75.6623 -19.9007 -1.4865e-19)
(-80.8982 -21.6815 -2.46064e-19)
(-83.1683 -22.8478 1.70939e-17)
(-82.2191 -23.581 3.4513e-18)
(-77.8178 -24.1189 -2.09145e-17)
(-69.8479 -24.7198 -7.3518e-19)
(-58.578 -25.5472 1.49468e-19)
(-45.0357 -26.5719 -2.79139e-17)
(-31.0063 -27.5472 2.68009e-17)
(-18.3545 -28.0526 3.94613e-19)
(-8.28247 -27.7616 6.7868e-19)