/*--------------------------------*- C++ -*----------------------------------*\
| =========                 |                                                 |
| \\      /  F ield         | OpenFOAM: The Open Source CFD Toolbox           |
|  \\    /   O peration     | Version:  2012                                  |
|   \\  /    A nd           | Website:  www.openfoam.com                      |
|    \\/     M anipulation  |                                                 |
\*---------------------------------------------------------------------------*/
FoamFile
{
    version     2.0;
    format      ascii;
    class       volScalarField;
    location    "1.5";
    object      p;
}
// * * * * * * * * * * * * * * * * * * * * * * * * * * * * * * * * * * * * * //

dimensions      [0 2 -2 0 0 0 0];


internalField   nonuniform List<scalar> 
42400
(
3762.13
3491.33
3157.92
2802.62
2393.76
2035.25
1752.51
1532.28
1351.61
1199.73
1078.69
990.029
928.698
886.246
854.873
827.754
799.188
764.794
721.648
668.083
604.288
531.757
452.645
369.503
285.667
204.885
130.823
66.5079
13.6689
-27.4691
-57.9122
-79.3632
-93.7091
-102.684
-107.732
-110.064
-110.491
-109.504
-107.495
-104.728
-101.41
-97.8434
-94.2287
-90.7417
-87.5321
-84.6792
-82.159
-79.9508
-78.0126
-76.2858
-74.7112
-73.2464
-71.7891
-70.2579
-68.6288
-66.8893
-65.0561
-63.1588
-61.2336
-59.3135
-57.4262
-55.5897
-53.8156
-52.1125
-50.4894
-48.9571
-47.5287
-46.2185
-45.0406
-44.0073
-43.1269
-42.4029
-41.833
-41.4081
-41.1134
-40.9436
-40.8677
-40.9043
-41.057
-41.2536
-4386.5
-4070.42
-3623.98
-3083.91
-2450.24
-1819.26
-1239.47
-735.887
-316.241
18.0721
266.048
429.29
515.55
540.074
524.223
489.753
451.617
416.243
381.844
345.557
306.172
264.006
219.827
174.717
129.889
87.0293
48.0748
14.6047
-12.6101
-33.8024
-49.9183
-62.1795
-71.7441
-79.6158
-86.4618
-92.4827
-97.6763
-101.935
-105.021
-106.767
-107.164
-106.358
-104.589
-102.129
-99.2225
-96.0758
-92.8536
-89.6009
-86.2694
-82.983
-79.8192
-76.7481
-73.7988
-70.9997
-68.3451
-65.8047
-63.4059
-61.1462
-59.0134
-56.994
-55.0728
-53.236
-51.4744
-49.7854
-48.174
-46.6517
-45.2342
-43.9388
-42.7817
-41.7762
-40.9306
-40.2478
-39.7245
-39.3522
-39.1184
-39.0082
-39.0049
-39.0937
-39.2585
-39.5074
3140.94
3045.31
2869.8
2586.14
2208.32
1770.54
1303.11
829.935
369.028
-65.0945
-457.36
-787.546
-1028.33
-1155.46
-1165.07
-1080.74
-940.097
-779.946
-627.472
-501.161
-409.22
-350.234
-316.401
-297.309
-283.406
-268.472
-250.223
-229.291
-207.642
-187.099
-168.734
-153.271
-140.971
-131.701
-125.15
-120.869
-118.283
-116.765
-115.69
-114.492
-112.774
-110.329
-107.143
-103.503
-99.4264
-95.0833
-90.624
-86.2452
-82.1808
-78.4252
-74.9443
-71.7456
-68.8207
-66.15
-63.7102
-61.4996
-59.462
-57.5474
-55.7227
-53.959
-52.2371
-50.5497
-48.9003
-47.3006
-45.7678
-44.3216
-42.9818
-41.7663
-40.6902
-39.7642
-38.9942
-38.381
-37.9205
-37.6039
-37.4192
-37.3523
-37.389
-37.5161
-37.7209
-38.046
1080.87
1251.45
1478.75
1697.32
1931.33
2129.16
2286.08
2398.01
2454.92
2445.94
2369.4
2237.28
2068.98
1883.85
1695.6
1512.19
1337.01
1170.89
1014.06
866.685
728.853
600.387
480.861
369.506
265.402
167.697
76.0833
-8.60462
-85.0828
-151.631
-206.609
-248.687
-277.502
-293.773
-299.036
-295.298
-284.675
-269.255
-250.869
-231.009
-210.856
-191.252
-172.789
-155.655
-140.133
-126.275
-114.042
-103.361
-94.1367
-86.246
-79.5535
-73.9168
-69.1909
-65.2316
-61.9004
-59.067
-56.6066
-54.4277
-52.4508
-50.6187
-48.8957
-47.2635
-45.7169
-44.2591
-42.8977
-41.6415
-40.4994
-39.4786
-38.585
-37.8224
-37.192
-36.6925
-36.3194
-36.0656
-35.9218
-35.8772
-35.9208
-36.0427
-36.2324
-36.5353
-6402.5
-6217.84
-5970.52
-5682.57
-5345.6
-5029.95
-4758.63
-4528.76
-4317.62
-4099.3
-3858.29
-3593.43
-3311.82
-3024.11
-2742.01
-2475.75
-2233.27
-2018.85
-1833.68
-1676.77
-1545.39
-1435.27
-1340.8
-1255.36
-1172.66
-1088.1
-999.679
-907.947
-814.522
-721.7
-631.697
-546.851
-468.991
-399.395
-338.709
-286.905
-243.412
-207.325
-177.594
-153.155
-133.036
-116.519
-103.175
-92.4449
-83.7411
-76.7535
-71.2262
-66.9077
-63.5561
-60.9486
-58.8883
-57.2063
-55.7632
-54.4491
-53.1881
-51.9147
-50.5951
-49.2179
-47.7912
-46.3382
-44.8924
-43.4887
-42.1581
-40.9238
-39.7996
-38.7917
-37.9008
-37.1246
-36.46
-35.9037
-35.4522
-35.1018
-34.8476
-34.6837
-34.603
-34.597
-34.6572
-34.775
-34.9424
-35.1838
-2318.92
-2484.12
-2676
-2854.76
-3031.96
-3192.61
-3350.08
-3513.31
-3679.49
-3839.69
-3985.13
-4109.1
-4204.33
-4262.79
-4276.81
-4240.29
-4149.98
-4005.43
-3808.76
-3563.65
-3273.89
-2942.86
-2574.26
-2174.84
-1758.79
-1352.06
-986.68
-686.337
-457.501
-291.332
-173.873
-93.138
-40.0517
-7.7392
9.87349
17.594
18.9246
16.4066
11.8068
6.27367
0.474288
-5.20291
-10.3562
-14.9755
-19.3536
-23.3948
-27.0952
-30.5579
-33.7541
-36.6469
-39.1957
-41.3546
-43.0762
-44.3192
-45.0581
-45.2956
-45.0573
-44.4023
-43.4206
-42.2221
-40.9216
-39.6227
-38.4046
-37.3161
-36.3778
-35.5898
-34.9404
-34.4137
-33.9944
-33.6703
-33.432
-33.2728
-33.1875
-33.171
-33.2176
-33.3201
-33.4707
-33.6607
-33.8827
-34.1492
1088.37
1178.08
1332.69
1541.88
1805.92
2077.14
2329.53
2546.25
2717.81
2839.67
2910.14
2931.29
2908.65
2850.48
2765.28
2660.04
2539.36
2405.88
2261.61
2109.92
1956.33
1807.26
1666.82
1533.33
1399.87
1259.39
1110.02
956.274
806.007
666.217
541.156
433.396
342.966
268.587
208.366
160.602
123.703
95.9752
75.6476
60.9638
50.2767
42.1468
35.4088
29.2036
22.9632
16.2615
9.06708
1.51132
-5.89089
-13.0878
-19.8031
-25.7907
-30.8628
-34.901
-37.8513
-39.717
-40.5715
-40.5515
-39.8467
-38.6814
-37.2863
-35.8665
-34.5734
-33.4935
-32.6543
-32.0414
-31.6196
-31.3485
-31.1931
-31.1272
-31.1342
-31.2047
-31.3345
-31.5205
-31.759
-32.0436
-32.3652
-32.7131
-33.0765
-33.4645
11179.6
11084
10959.8
10748.3
10415.1
9984.67
9485.31
8952.98
8419.52
7903.46
7410.63
6938.22
6478.89
6023.44
5562.62
5089.64
4604.19
4115.35
3642.13
3205.6
2819.1
2480.74
2174.82
1884.26
1601.84
1331.16
1079.14
850.643
648.589
474.916
330.273
214.253
124.998
59.3676
14.2625
-13.9029
-28.8492
-34.1031
-32.8298
-27.6965
-20.803
-13.6721
-7.30549
-2.28242
1.13316
2.90085
3.12331
1.83859
-0.946789
-4.50378
-8.62542
-13.0929
-17.6042
-21.8537
-25.6921
-28.7167
-30.7928
-31.8992
-32.1293
-31.6901
-30.854
-29.8938
-29.0236
-28.3681
-27.9655
-27.7942
-27.8038
-27.9404
-28.1599
-28.4334
-28.7462
-29.0943
-29.4794
-29.9045
-30.3699
-30.8712
-31.3986
-31.9391
-32.4785
-33.0195
-6841.8
-6668.3
-6451.67
-6188.32
-5872.83
-5514.66
-5117.33
-4685.04
-4219.33
-3719.04
-3184.52
-2620.9
-2040.37
-1462.13
-911.364
-416.934
-7.19165
293.151
466.553
509.762
439.056
291.076
113.161
-53.3123
-184.933
-276.783
-334.883
-368.038
-382.909
-383.18
-371.682
-352.013
-325.578
-293.266
-256.879
-218.246
-179.234
-141.685
-107.196
-76.9336
-51.5471
-31.1825
-15.5912
-4.26187
3.42314
8.06095
10.2545
10.6584
9.85065
7.95028
5.07718
1.53851
-2.36745
-6.2078
-9.77565
-13.0029
-15.6546
-17.6213
-18.9432
-19.7621
-20.2688
-20.6507
-21.0505
-21.5464
-22.1558
-22.8554
-23.6043
-24.3635
-25.1059
-25.819
-26.5035
-27.1684
-27.8272
-28.4927
-29.1738
-29.8724
-30.5832
-31.295
-31.9931
-32.6717
-6384.81
-6387.39
-6421.11
-6477.52
-6580.61
-6703.9
-6824.64
-6923.69
-6993.1
-7031.05
-7029.99
-6973.41
-6844.13
-6635.73
-6355.84
-6019.31
-5640.38
-5232.22
-4812.31
-4399.74
-4007.65
-3641.48
-3300.49
-2981.7
-2682.92
-2402.72
-2140.7
-1897.08
-1671.26
-1461.25
-1264.52
-1079.4
-906.388
-746.106
-599.169
-466.698
-349.937
-249.748
-166.352
-99.2246
-47.1642
-8.51731
18.553
35.9951
45.8172
49.9936
50.3909
48.3013
44.708
40.0999
35.1039
29.9707
24.8017
19.5481
14.4948
9.72926
5.29562
1.23572
-2.43228
-5.72324
-8.67551
-11.3287
-13.7119
-15.8456
-17.7478
-19.4373
-20.9334
-22.256
-23.4265
-24.468
-25.4062
-26.2682
-27.08
-27.8647
-28.6396
-29.4149
-30.1928
-30.9683
-31.7304
-32.4648
742.052
857.819
970.246
1053.25
1104.91
1152.56
1220.9
1328.16
1472.48
1641.9
1854.85
2162.02
2573.47
2993.8
3263.6
3288.86
3094.21
2764.97
2381.26
1997.98
1649.11
1351.92
1110.39
919.754
771.79
658.459
572.661
508.438
460.762
425.126
397.182
372.626
347.94
321.238
291.506
258.78
224.085
189.575
157.798
130.788
109.684
94.0559
83.0457
75.7771
70.8777
67.1742
63.7939
60.4005
56.7421
52.7081
48.2933
43.5094
38.2656
32.7545
27.0475
21.251
15.5175
10.0075
4.8596
0.167086
-4.03007
-7.7387
-10.9951
-13.8459
-16.3357
-18.503
-20.3817
-22.0038
-23.4023
-24.6113
-25.6652
-26.5977
-27.4396
-28.2182
-28.9568
-29.6742
-30.3851
-31.0982
-31.8147
-32.5214
11134.6
10946.1
10739.8
10592.4
10504.5
10522.2
10566.9
10539.6
10317.8
9852.49
9279.81
8812.49
8512.79
8241.14
7851.87
7326.86
6702.48
6004.5
5269.88
4547.52
3872.8
3262.75
2725.41
2263.83
1876.53
1559.45
1307.35
1114.14
973.098
875.063
809.204
764.635
731.477
700.96
665.598
620.479
564.391
499.154
428.826
358.677
293.729
237.951
192.586
156.796
129.303
108.484
92.5606
80.157
70.1947
61.6615
53.9887
46.8512
40.1463
33.6053
27.2067
20.9907
15.0216
9.37251
4.10522
-0.738564
-5.13777
-9.08859
-12.6001
-15.6902
-18.3822
-20.7022
-22.6788
-24.3431
-25.7296
-26.8754
-27.8198
-28.6018
-29.2587
-29.8262
-30.3387
-30.8304
-31.3324
-31.8684
-32.4479
-33.0623
10355.9
10141.7
9837.79
9235.96
8043.19
6140.36
3656
1249.22
-323.451
-965.143
-1150.8
-1277.5
-1439.63
-1619.41
-1804.28
-1970.52
-2081.48
-2116.6
-2083.97
-2005.57
-1899.01
-1775.5
-1643.2
-1507.21
-1368.59
-1226.62
-1082.39
-937.706
-792.398
-646.585
-505.954
-380.029
-274.255
-188.514
-118.58
-58.2949
-4.47276
41.3853
75.4987
95.8988
103.946
103.206
97.3487
88.8478
79.0608
69.1357
59.8203
51.3161
43.6232
36.8432
30.806
25.2778
20.0948
15.1437
10.373
5.77676
1.37416
-2.80416
-6.72763
-10.3718
-13.72
-16.7619
-19.4918
-21.9068
-24.0076
-25.7991
-27.2932
-28.5093
-29.4743
-30.2217
-30.7888
-31.215
-31.54
-31.8043
-32.0484
-32.3112
-32.6257
-33.0116
-33.471
-33.9916
-25684
-24464
-23026.3
-21583.2
-19993
-18132
-15898
-13433.8
-11069.2
-9067.41
-7466.63
-6195.57
-5196.25
-4433.76
-3863.3
-3427.52
-3079.92
-2792.89
-2556.22
-2367.07
-2223.09
-2119.23
-2046.23
-1988.23
-1920.65
-1824.58
-1709.36
-1598.39
-1494.71
-1382.94
-1254.46
-1113.41
-970.858
-838.282
-723.307
-629.019
-552.516
-487.631
-428.528
-372.103
-317.897
-267.171
-221.106
-180.502
-145.584
-116.394
-92.5558
-73.4634
-58.4641
-46.9377
-38.3118
-32.0878
-27.7924
-25.0449
-23.504
-22.8755
-22.9134
-23.4172
-24.2288
-25.2273
-26.3218
-27.443
-28.5374
-29.5628
-30.4858
-31.2827
-31.9393
-32.4526
-32.8299
-33.0877
-33.2498
-33.3449
-33.4053
-33.465
-33.5572
-33.7105
-33.9433
-34.2596
-34.6488
-35.0924
8139.2
7830.3
7360.73
6770.55
6211.58
5963.19
6016.73
6068.1
5734.22
4879.65
3717.57
2555.36
1557.26
744.802
74.5601
-494.772
-981.265
-1388.91
-1717.33
-1967.36
-2140.49
-2236.78
-2259.17
-2206.41
-2066.57
-1853.41
-1631.56
-1453.4
-1310.65
-1177.61
-1047.35
-924.053
-811.811
-712.176
-625.373
-550.743
-486.793
-431.418
-382.54
-338.629
-298.78
-262.368
-229.337
-199.583
-173.013
-149.543
-129.066
-111.426
-96.429
-83.8513
-73.4474
-64.9623
-58.1388
-52.7283
-48.4904
-45.2082
-42.6893
-40.7702
-39.3186
-38.2306
-37.4255
-36.8388
-36.4172
-36.1144
-35.8903
-35.7117
-35.5537
-35.4008
-35.2468
-35.0945
-34.9537
-34.8393
-34.7688
-34.7598
-34.826
-34.9741
-35.2017
-35.4978
-35.8452
-36.2282
8641.87
8404.9
8092.28
7698.79
7199.3
6644.43
6078.8
5576.49
5201.31
4941.47
4733.91
4535.65
4336.78
4139.2
3947.7
3766.03
3591.75
3406.63
3186.49
2925.79
2643.03
2360.27
2089.66
1832.05
1572.59
1298.79
1017.64
755.607
532.061
349.338
204.242
93.2902
10.9224
-49.7383
-94.2744
-126.374
-148.505
-162.567
-170.278
-173.21
-172.088
-167.661
-160.738
-152.04
-142.204
-131.781
-121.238
-110.948
-101.194
-92.1763
-84.0174
-76.7744
-70.4495
-65.0012
-60.3564
-56.4193
-53.0903
-50.2732
-47.8841
-45.8551
-44.1323
-42.6714
-41.4343
-40.3861
-39.4957
-38.7367
-38.0885
-37.5366
-37.073
-36.6948
-36.4029
-36.1999
-36.0881
-36.0671
-36.1326
-36.276
-36.4853
-36.7464
-37.0451
-37.375
-4483.39
-4466.06
-4405.59
-4245.05
-3982.07
-3621.42
-3173.54
-2645.52
-2051.23
-1418.98
-792.379
-229.93
209.955
500.772
656.839
718.402
716.238
670.155
620.351
619.192
679.685
769.9
852.812
904.32
909.811
865.6
777.873
660.647
530.007
400.422
282.836
182.97
101.393
35.9406
-15.6974
-55.8294
-86.2805
-108.27
-122.53
-130.406
-133.585
-133.308
-130.465
-125.803
-119.939
-113.37
-106.488
-99.597
-92.9245
-86.6289
-80.8106
-75.5227
-70.7924
-66.5759
-62.8427
-59.5338
-56.5852
-53.9404
-51.557
-49.4085
-47.4802
-45.7622
-44.2444
-42.914
-41.7569
-40.7593
-39.9091
-39.1963
-38.6129
-38.1522
-37.808
-37.5736
-37.4415
-37.4025
-37.4458
-37.5598
-37.7327
-37.9531
-38.2109
-38.5071
-7729.93
-7509.92
-7227.56
-6899.16
-6524.71
-6138.35
-5751.8
-5366.47
-4973.39
-4559.38
-4120.43
-3681.97
-3298.99
-3016.96
-2825.98
-2687.32
-2562.21
-2417.17
-2227.95
-1995.02
-1742.35
-1495.56
-1266.93
-1060.21
-874.738
-708.953
-562.369
-435.707
-329.318
-241.458
-168.68
-107.922
-58.1762
-20.3643
4.10587
15.7769
16.9144
10.6066
-0.645849
-13.5624
-26.2552
-37.7141
-47.3867
-55.0661
-60.7813
-64.707
-67.0962
-68.2298
-68.3794
-67.7663
-66.6406
-65.146
-63.4104
-61.5266
-59.5579
-57.5473
-55.5261
-53.5235
-51.5724
-49.7089
-47.967
-46.3723
-44.9393
-43.6716
-42.5658
-41.6144
-40.8086
-40.1394
-39.5983
-39.1767
-38.866
-38.6575
-38.5421
-38.5103
-38.5526
-38.6592
-38.8211
-39.0294
-39.2774
-39.5681
4610.31
4385.61
4064.38
3624.54
3030.26
2386.17
1785.06
1284.69
882.521
546.598
263.544
38.5102
-136.989
-286.474
-428.788
-567.164
-697.674
-814.24
-910.971
-987.221
-1050.02
-1103.67
-1143.73
-1156.3
-1128.77
-1057.54
-951.241
-826.95
-701.595
-586.236
-485.724
-401.036
-331.328
-275.048
-230.374
-195.313
-168.173
-148.056
-132.857
-121.328
-112.499
-105.566
-99.9177
-95.1074
-90.8237
-86.864
-83.1089
-79.4997
-76.0176
-72.6658
-69.4582
-66.4047
-63.509
-60.77
-58.1842
-55.7497
-53.4695
-51.3524
-49.4114
-47.6591
-46.1031
-44.743
-43.5702
-42.5707
-41.728
-41.0264
-40.4515
-39.9914
-39.6359
-39.3761
-39.2042
-39.1128
-39.0947
-39.143
-39.2508
-39.4115
-39.6189
-39.8673
-40.1535
-40.4787
4080.09
4089.08
4106.87
4111.17
4082.77
4044.56
4037.33
4086.55
4156.9
4162.7
4038.69
3790.24
3469.56
3121.17
2758.88
2381.2
1996.79
1635.41
1331.75
1098.75
921.498
774.683
640.828
512.156
388.066
271.571
166.21
74.2876
-3.51757
-67.6654
-119.081
-158.591
-186.752
-204.135
-211.865
-211.809
-205.775
-195.101
-181.768
-167.613
-153.65
-140.476
-128.391
-117.476
-107.69
-98.9394
-91.1245
-84.1562
-77.9584
-72.4613
-67.5947
-63.288
-59.4733
-56.0933
-53.1055
-50.4822
-48.2063
-46.263
-44.6335
-43.2915
-42.2036
-41.333
-40.6435
-40.1029
-39.6853
-39.3702
-39.1431
-38.9931
-38.9123
-38.8946
-38.935
-39.0293
-39.1735
-39.3636
-39.5961
-39.8673
-40.1735
-40.5116
-40.8797
-41.2769
4413.79
4736.25
5293.59
6031.14
6846.19
7563.19
8108.86
8454.44
8586.71
8511.53
8253.53
7849.4
7337.8
6753.15
6123.46
5470.5
4811.56
4157.02
3517.74
2903.33
2324.18
1791.52
1315.68
904.419
561.885
288.233
80.41
-67.9783
-164.927
-218.873
-238.941
-234.755
-215.141
-187.192
-156.061
-125.122
-96.457
-71.343
-50.0073
-32.4263
-18.4692
-7.67587
0.434374
6.30132
10.3769
12.9998
14.6411
15.8197
16.7688
17.6285
18.4741
19.3076
20.0699
20.6635
20.9841
20.9346
20.4007
19.4814
18.2401
16.7624
15.0782
13.3265
11.5598
9.80854
8.09493
6.43365
4.83467
3.30518
1.85088
0.476733
-0.812565
-2.01247
-3.11857
-4.12651
-5.03243
-5.83334
-6.52472
-7.11874
-7.59373
-7.95843
4873.05
4341.05
3583.72
2565.87
1216.89
-245.161
-1587
-2641.16
-3393.75
-3936.34
-4352.44
-4666.38
-4867.06
-4940.63
-4885.14
-4711.96
-4442.21
-4101.66
-3715.7
-3305.32
-2885.51
-2465.64
-2052.03
-1650.84
-1270.02
-919.533
-609.835
-349.278
-142.536
10.3913
113.822
175.336
204.087
209.425
199.855
182.017
160.477
138.259
116.983
97.6749
80.7282
65.9349
53.1748
42.5317
34.0596
27.8188
23.5809
20.9094
19.5165
18.9494
18.8427
18.9189
19.0212
19.1441
19.1749
19.0718
18.8275
18.2829
17.421
16.2762
14.9013
13.3583
11.7058
9.99387
8.2634
6.54584
4.86477
3.23754
1.67701
0.192852
-1.20734
-2.51738
-3.73193
-4.84621
-5.85609
-6.7586
-7.55048
-8.24327
-8.81487
-9.26476
-14078
-13445
-12658.4
-11800.9
-10767.6
-9541.04
-8152.5
-6781.49
-5623.84
-4744.42
-4093.19
-3606.91
-3246.5
-2978.63
-2766.17
-2575.93
-2383.78
-2176.09
-1949.25
-1708.48
-1465.72
-1235.99
-1032.25
-860.995
-721.595
-609.276
-518.904
-445.839
-386.791
-339.156
-300.504
-268.6
-241.546
-217.326
-193.829
-169.78
-144.986
-120.258
-96.4299
-74.2757
-54.5036
-37.4664
-23.2341
-11.714
-2.59337
4.54695
10.1049
14.3563
17.4451
19.5791
20.846
21.3556
21.2719
20.7234
19.9383
19.0035
17.9428
16.7597
15.4614
14.061
12.5773
11.0315
9.44482
7.8361
6.222
4.617
3.034
1.48476
-0.0197593
-1.46924
-2.85403
-4.1652
-5.39464
-6.53497
-7.57982
-8.52454
-9.36571
-10.1129
-10.7437
-11.2454
5784.63
5797.78
5798.32
5750.45
5652.01
5494.12
5268.96
4978.83
4646.75
4305.65
3979.05
3674.98
3392.2
3124.11
2862.74
2604.69
2350.92
2104.89
1871.29
1654.16
1455.8
1276.56
1115.47
971.25
842.943
730.096
632.297
548.843
478.8
420.631
372.071
330.042
290.732
250.657
208.355
165.242
124.677
90.1201
63.1405
43.5056
30.2278
21.9505
17.209
14.8367
14.0391
14.1916
14.7984
15.4775
15.9574
16.0901
15.8569
15.3515
14.7222
14.0937
13.5143
12.9545
12.3473
11.6309
10.7703
9.75891
8.61057
7.34911
6.00128
4.59267
3.14611
1.68135
0.215509
-1.23645
-2.66114
-4.04634
-5.38087
-6.65447
-7.85785
-8.98269
-10.0217
-10.9696
-11.8231
-12.5904
-13.2511
-13.781
5618.04
5331.19
4945.72
4457.44
3850.2
3207.32
2587.95
2037.16
1574.98
1191.26
861.311
564.996
292.08
35.6435
-212.029
-457.188
-699.884
-930.89
-1133.28
-1284.72
-1361.9
-1351.24
-1260.32
-1116.4
-950.253
-785.293
-632.247
-492.409
-363.394
-242.841
-130.797
-29.1122
60.6352
136.043
191.959
223.19
229.581
217.004
193.424
165.188
136.367
109.453
85.9531
66.5104
51.0842
39.3002
30.612
24.4012
20.0595
17.0458
14.9224
13.3744
12.1952
11.2495
10.4363
9.67192
8.88887
8.03983
7.09901
6.05858
4.92297
3.70364
2.41547
1.07462
-0.302592
-1.70026
-3.10319
-4.49698
-5.86819
-7.20435
-8.49408
-9.72719
-10.8948
-11.9893
-13.0043
-13.9354
-14.7809
-15.5488
-16.2224
-16.7684
-12374.7
-11886.4
-11244.2
-10458.2
-9471.54
-8339.08
-7102.06
-5821.28
-4565.56
-3403.27
-2394.6
-1579.32
-961.07
-512.53
-210.416
-49.8334
-19.4397
-90.6765
-228.806
-396.399
-554.263
-672.064
-737.414
-753.112
-731.051
-682.667
-617.674
-544.047
-468.796
-398.562
-338.985
-292.758
-258.303
-230.847
-205.518
-179.798
-153.656
-128.225
-104.651
-83.6564
-65.4798
-50.0447
-37.1113
-26.3587
-17.4728
-10.1953
-4.33787
0.243087
3.68366
6.09381
7.625
8.46036
8.76755
8.66867
8.25569
7.5824
6.68792
5.61358
4.40326
3.09672
1.72557
0.313477
-1.12179
-2.56627
-4.00846
-5.43843
-6.84718
-8.22629
-9.56768
-10.8635
-12.1065
-13.2899
-14.4079
-15.4556
-16.4292
-17.3266
-18.1488
-18.9042
-19.5809
-20.1379
9989.49
9812.39
9577.95
9238
8756.49
8183.83
7536.85
6826.83
6062.17
5235.1
4320.45
3324.04
2372.52
1641.75
1147.42
764.319
424.191
141.716
-73.2565
-232.989
-344.986
-405.831
-420.333
-407.224
-382.748
-354.366
-325.338
-297.791
-273.341
-252.647
-236.263
-223.624
-213.451
-204.234
-194.749
-184.247
-172.432
-159.304
-144.993
-129.691
-113.65
-97.3721
-81.385
-66.1689
-52.172
-39.7898
-29.3372
-21.0337
-14.9336
-10.6648
-7.63622
-5.26001
-3.08735
-1.13969
0.445817
1.398
1.62352
1.23263
0.411628
-0.683581
-1.95461
-3.34281
-4.80651
-6.31099
-7.82621
-9.32704
-10.7936
-12.2108
-13.5683
-14.8587
-16.0776
-17.2229
-18.2937
-19.2905
-20.2147
-21.0689
-21.8582
-22.5934
-23.2683
-23.8361
-1846.64
-1430.34
-854.786
-272.01
264.901
688.062
1014.56
1246
1373.45
1399.11
1342.23
1236.13
1103.81
937.234
725.679
494.522
284.336
114.07
-19.1643
-123.29
-205.102
-270.879
-327.006
-376.12
-414.727
-437.186
-441.111
-428.517
-403.61
-371.292
-334.887
-297.3
-260.702
-226.547
-195.693
-168.493
-145.03
-124.849
-107.365
-91.6495
-77.2637
-63.874
-51.2289
-39.2724
-28.081
-17.8225
-8.70435
-0.884856
5.52113
9.82237
12.2541
13.1776
12.63
10.8804
8.14759
4.85979
1.54103
-1.39434
-3.78376
-5.71515
-7.38523
-8.95074
-10.4797
-11.9779
-13.4297
-14.8213
-16.1457
-17.4014
-18.5893
-19.7108
-20.7677
-21.7617
-22.6947
-23.5695
-24.3893
-25.1583
-25.8831
-26.5748
-27.2314
-27.804
-2327.19
-2699.9
-3157.36
-3598.08
-4024.99
-4361.77
-4598.2
-4742.28
-4818.73
-4860.79
-4900.21
-4954.62
-5017.68
-5059.92
-5043.97
-4941.13
-4736.65
-4433.98
-4047.72
-3594.09
-3088.78
-2558.43
-2048.92
-1609.86
-1266.06
-1009.69
-816.558
-665.359
-542.945
-442.153
-359.129
-291.316
-236.842
-194.194
-161.761
-137.922
-120.993
-109.257
-101.327
-96.0592
-92.3539
-89.4016
-86.7004
-83.98
-81.1306
-78.1278
-74.9594
-71.5404
-67.8493
-63.7627
-59.1281
-53.8447
-47.5787
-40.3243
-32.6208
-25.3507
-19.3573
-15.1174
-12.6801
-11.7884
-12.0531
-13.0827
-14.5474
-16.2013
-17.8801
-19.4866
-20.9723
-22.3211
-23.5355
-24.6275
-25.6128
-26.5079
-27.3277
-28.0861
-28.7953
-29.4663
-30.1103
-30.7405
-31.3609
-31.9291
-4977.23
-4590.49
-4060.66
-3475.91
-2838.51
-2248.43
-1737.92
-1322.38
-1003.97
-771.612
-596.39
-437.935
-278.979
-136.333
-25.9406
53.4228
110.471
151.741
180.911
200.383
212.452
219.103
220.921
217.118
208.978
198.004
184.338
167.565
147.369
124.845
101.092
77.321
54.5951
33.6419
14.8766
-1.54843
-15.7085
-27.8595
-38.3681
-47.6339
-56.0155
-63.786
-71.1115
-78.043
-84.5225
-90.3759
-95.325
-99.1162
-101.085
-100.819
-98.2748
-93.3196
-86.1447
-77.3265
-67.7554
-58.4513
-50.2818
-43.7299
-38.8473
-35.3945
-33.0414
-31.4962
-30.5417
-30.0228
-29.8248
-29.859
-30.0564
-30.3643
-30.7434
-31.166
-31.6133
-32.0735
-32.5403
-33.0116
-33.4882
-33.973
-34.4706
-34.9866
-35.525
-36.056
11434.4
11318.1
11151.4
10865.3
10433.3
9895.46
9283.48
8611.04
7849.12
6925.8
5863.41
4907.78
4271.71
3841.89
3430.72
3038.7
2716.09
2457.36
2246.72
2075.86
1935.27
1811.42
1688.62
1557.82
1414.45
1257.6
1092.63
929.641
779.285
647.646
535.909
441.475
360.173
288.187
223.199
164.634
113.043
69.097
32.8341
3.51233
-20.0863
-39.228
-54.9303
-67.8656
-78.3907
-86.6294
-92.5644
-96.2266
-98.0581
-97.823
-95.6273
-91.6873
-86.3145
-79.9408
-73.0919
-66.3172
-60.0904
-54.7224
-50.3356
-46.879
-44.2255
-42.2195
-40.7191
-39.6097
-38.8026
-38.2298
-37.8389
-37.59
-37.4528
-37.4047
-37.4293
-37.5152
-37.6549
-37.8443
-38.082
-38.3681
-38.7037
-39.0871
-39.5145
-39.9684
-1495.4
-1319.26
-1075.79
-778.129
-392.534
41.637
496.187
929.73
1292.8
1538.04
1644.61
1647.13
1603.53
1522.55
1373.54
1153.05
890.928
615.31
345.521
95.0976
-126.55
-311.773
-453.839
-548.454
-593.357
-590.079
-547.719
-482.674
-413.327
-350.908
-295.833
-243.414
-190.997
-140.047
-94.2954
-57.2935
-30.9373
-15.186
-8.68839
-9.45606
-15.4207
-24.6964
-35.6457
-46.9317
-57.5402
-66.7686
-74.194
-79.6067
-82.966
-84.3891
-84.0892
-82.3502
-79.5037
-75.904
-71.901
-67.8102
-63.8838
-60.2917
-57.1208
-54.3901
-52.0752
-50.1312
-48.5087
-47.1573
-46.0363
-45.1097
-44.348
-43.7271
-43.2282
-42.8365
-42.5411
-42.334
-42.2104
-42.1677
-42.205
-42.3231
-42.5237
-42.8049
-43.1614
-43.5852
-5905.5
-5905
-5934.15
-5978.58
-6013.03
-6008.78
-5947.83
-5821.06
-5625.76
-5369.26
-5068.07
-4736.06
-4379.44
-4006.26
-3633.37
-3279.32
-2955.2
-2663.04
-2397.65
-2149.51
-1907.72
-1662.99
-1409.89
-1149.03
-885.491
-629.157
-401.246
-232.281
-144.021
-128.312
-150.925
-178.73
-195.601
-198.791
-190.783
-175.367
-156.59
-138.053
-122.231
-110.192
-101.852
-96.5084
-93.3004
-91.4616
-90.4197
-89.7734
-89.2575
-88.6736
-87.6581
-86.3133
-84.6011
-82.5099
-80.0808
-77.3922
-74.5439
-71.641
-68.778
-66.0294
-63.446
-61.0569
-58.8742
-56.8991
-55.1251
-53.5419
-52.1373
-50.8986
-49.8135
-48.8707
-48.0602
-47.3738
-46.8047
-46.3483
-46.0015
-45.7628
-45.6325
-45.6117
-45.7027
-45.9044
-46.2105
-46.6201
2918.43
2903.82
2874.04
2826.81
2782.4
2773.18
2825.22
2925.48
3006.81
2997.55
2888.12
2726.09
2559.22
2404.46
2258.47
2113.69
1964.59
1808.53
1646.39
1482.16
1321.65
1171.07
1035.41
917.154
814.279
720.27
628.171
533.664
439.527
355.409
287.914
235.789
191.648
147.307
99.667
51.974
10.0206
-22.6035
-45.8946
-61.9935
-73.3053
-81.5688
-87.7504
-92.3595
-95.6521
-97.7685
-98.7939
-98.8397
-98.2223
-96.8444
-94.8245
-92.3081
-89.429
-86.3127
-83.0733
-79.8083
-76.5966
-73.4983
-70.5557
-67.7961
-65.235
-62.8788
-60.7271
-58.7754
-57.0162
-55.4404
-54.0384
-52.8007
-51.7185
-50.784
-49.9908
-49.334
-48.8105
-48.4186
-48.1584
-48.0311
-48.0389
-48.1817
-48.4526
-48.8593
6256.08
6129.28
5996.87
5840.07
5648.78
5392.28
5037.31
4556.75
3951.61
3268.94
2597.49
2013.98
1524.84
1095.76
709.856
374.636
98.5497
-118.051
-279.108
-389.206
-452.45
-473.463
-458.506
-414.828
-350.935
-277.256
-203.776
-139.587
-91.3933
-60.842
-44.8753
-39.9412
-44.766
-58.8764
-79.3733
-102.609
-124.898
-143.7
-158.007
-167.816
-173.516
-175.566
-174.425
-170.583
-164.612
-157.139
-148.749
-140.077
-131.739
-123.92
-116.67
-109.991
-103.855
-98.2213
-93.0503
-88.3054
-83.9522
-79.9607
-76.3052
-72.9629
-69.9138
-67.1395
-64.6227
-62.347
-60.2967
-58.4575
-56.8159
-55.36
-54.0791
-52.9646
-52.0091
-51.2073
-50.5555
-50.0517
-49.6958
-49.489
-49.4337
-49.5312
-49.7755
-50.1755
-14498.5
-13830.6
-12939.9
-11938.5
-10812.7
-9704.33
-8672.49
-7730.77
-6850
-6015.24
-5268.43
-4669.8
-4231
-3926.92
-3741.99
-3668.63
-3684.88
-3758.81
-3861.24
-3963.69
-4034.87
-4045.95
-3978.49
-3828
-3602.77
-3319.89
-3001.21
-2669.77
-2344.52
-2036.54
-1751.05
-1490.95
-1258.92
-1057.12
-885.807
-742.71
-623.716
-524.735
-442.28
-373.958
-317.792
-272.054
-235.241
-206.193
-183.907
-166.885
-154.029
-144.236
-136.258
-129.231
-122.602
-116.119
-109.78
-103.689
-97.9171
-92.5715
-87.6526
-83.1577
-79.0702
-75.3654
-72.0159
-68.994
-66.273
-63.8275
-61.6342
-59.6722
-57.9227
-56.3698
-55.0002
-53.8032
-52.7705
-51.8965
-51.1776
-50.6123
-50.2009
-49.9455
-49.8492
-49.9154
-50.1416
-50.5257
3512.53
3294.08
2945.97
2458.49
1848.14
1235.11
683.426
220.609
-151.298
-444.749
-679.144
-871.798
-1028.82
-1149.21
-1236.5
-1299.87
-1346.48
-1378.43
-1395.17
-1395.42
-1377.47
-1339.87
-1281.56
-1203.74
-1109.46
-1004.24
-895.38
-790.458
-695.664
-614.588
-548.151
-495.158
-452.953
-418.13
-387.809
-360.545
-336.096
-314.685
-296.198
-279.961
-265.09
-250.249
-234.239
-215.961
-195.826
-175.24
-155.33
-137.128
-121.55
-109.124
-99.8102
-93.1121
-88.3366
-84.8162
-82.022
-79.5908
-77.3024
-75.0464
-72.786
-70.5272
-68.2971
-66.1283
-64.0508
-62.0881
-60.2561
-58.5645
-57.0175
-55.6161
-54.3595
-53.2456
-52.2725
-51.4388
-50.7439
-50.189
-49.7765
-49.5105
-49.3964
-49.4408
-49.6501
-49.9968
7113.93
7078.8
7047.08
6980.53
6869.77
6702.38
6482.16
6216.15
5910.35
5570.09
5203.56
4820.24
4430.51
4045.06
3673.22
3320.85
2990.19
2681.77
2394.93
2128.52
1882
1655.63
1449.03
1262.67
1096.5
949.995
821.556
708.074
605.546
510.153
419.251
331.907
249.063
172.104
102.607
41.2825
-12.1687
-58.7069
-99.0936
-133.186
-159.919
-178.278
-187.649
-188.899
-183.303
-172.619
-158.926
-144.313
-130.49
-118.497
-108.658
-100.775
-94.4236
-89.1779
-84.7082
-80.7929
-77.2928
-74.118
-71.2146
-68.5482
-66.0932
-63.8323
-61.7524
-59.8427
-58.0945
-56.5003
-55.054
-53.751
-52.5878
-51.5617
-50.6706
-49.9129
-49.2875
-48.7941
-48.4329
-48.2059
-48.1161
-48.1674
-48.3787
-48.6726
-9804.39
-9452.4
-9003.09
-8480.2
-7850.16
-7166.46
-6444.48
-5697.38
-4937.21
-4174.3
-3421.01
-2692.06
-2002.94
-1367.57
-797.622
-303.161
108.823
435.558
678.065
840.762
931.158
959.501
937.264
875.418
783.996
672.44
550.015
426.047
309.479
207.657
125.299
64.1765
22.8668
-1.81648
-14.7144
-20.904
-24.6932
-28.7463
-34.1101
-40.7282
-48.0716
-55.5005
-62.3973
-68.2617
-72.773
-75.8188
-77.4913
-78.0372
-77.7724
-76.9936
-75.9214
-74.688
-73.3567
-71.9506
-70.4758
-68.9356
-67.338
-65.6919
-64.018
-62.383
-60.7614
-59.1706
-57.6273
-56.1408
-54.7253
-53.3897
-52.1408
-50.9893
-49.9455
-49.018
-48.2138
-47.5375
-46.9918
-46.5769
-46.2916
-46.1336
-46.1017
-46.1882
-46.423
-46.6773
4215.54
4077.56
3885.34
3612.02
3214.36
2731.7
2196.96
1645.31
1108.24
607.705
155.272
-246.13
-598.981
-907.836
-1176.62
-1406.61
-1596.94
-1745.22
-1848.78
-1905.56
-1914.7
-1876.54
-1792.07
-1664.42
-1500.29
-1311.46
-1113.95
-924.022
-753.647
-608.553
-489.302
-393.818
-319.051
-261.688
-218.278
-185.708
-161.409
-143.297
-129.669
-119.215
-110.985
-104.226
-98.5109
-93.5905
-89.3137
-85.6005
-82.451
-79.8146
-77.6125
-75.751
-74.1321
-72.6576
-71.2367
-69.7998
-68.3053
-66.7467
-65.1264
-63.4698
-61.8012
-60.0988
-58.4267
-56.7997
-55.2247
-53.7107
-52.2603
-50.8828
-49.5921
-48.4003
-47.3203
-46.3646
-45.5437
-44.8651
-44.3334
-43.951
-43.7184
-43.6217
-43.6703
-43.8196
-44.0734
-44.4185
-8.5421
-8.82345
-8.44901
-7.58266
-6.38069
-4.9734
-3.48972
-2.03002
-0.674733
0.519796
1.5237
2.31559
2.90469
3.30229
3.53385
3.62995
3.62134
3.5331
3.38503
3.19074
2.95797
2.68982
2.38629
2.04607
1.66734
1.24659
0.775845
0.240382
-0.381013
-1.11318
-1.9803
-3.00207
-4.19102
-5.54982
-7.06716
-8.71244
-10.4322
-12.151
-13.778
-15.2163
-16.375
-17.1785
-17.5751
-17.5568
-17.131
-16.3472
-15.2777
-14.0083
-12.6264
-11.2107
-9.82799
-8.53158
-7.36193
-6.34561
-5.49469
-4.80769
-4.27267
-3.87157
-3.58432
-3.39186
-3.27772
-3.22853
-3.23391
-3.28602
-3.37901
-3.50859
-3.67158
-3.86576
-4.08956
-4.34194
-4.62195
-4.92837
-5.25903
-5.61014
-5.97571
-6.34733
-6.71433
-7.0644
-7.38439
-7.66132
-7.88346
-8.04125
-8.12833
-8.1424
-8.08533
-7.96429
-7.78799
-7.56812
-7.31685
-7.04547
-6.76276
-6.47376
-6.17972
-5.87949
-5.57137
-5.25467
-4.93048
-4.60148
-4.27131
-3.94386
-3.62278
-3.31115
-3.01143
-2.72544
-2.45448
-2.19947
-1.96099
-1.73943
-1.53489
-1.34726
-1.17616
-1.02103
-0.88112
-0.755577
-0.643419
-0.543601
-0.455067
-0.376833
-0.308024
-0.247905
-0.19588
-0.151474
-0.114357
-0.0843676
-0.0616868
-0.0457541
-0.0363169
-0.0331794
-0.0361263
-0.0449292
-0.0593558
-0.0791855
-0.104233
-0.134377
-0.169576
-0.209872
-0.255395
-0.306367
-0.363113
-0.426079
-0.495841
-0.573114
-0.658765
-0.753834
-0.85956
-0.977391
-1.10897
-1.25607
-1.42049
-1.60394
-1.8079
-2.03354
-2.28173
-2.55318
-2.8487
-3.16937
-3.51674
-3.89279
-4.29967
-4.73923
-5.21249
-5.71904
-6.25651
-6.82026
-7.40326
-7.99616
-8.58765
-9.1649
-9.71414
-10.2212
-10.6721
-11.0538
-11.3544
-11.5644
-11.6763
-11.6861
-11.5925
-11.3977
-11.1071
-10.7286
-10.2725
-9.75084
-9.1766
-8.56344