/*--------------------------------*- C++ -*----------------------------------*\
| =========                 |                                                 |
| \\      /  F ield         | OpenFOAM: The Open Source CFD Toolbox           |
|  \\    /   O peration     | Version:  2012                                  |
|   \\  /    A nd           | Website:  www.openfoam.com                      |
|    \\/     M anipulation  |                                                 |
\*---------------------------------------------------------------------------*/
FoamFile
{
    version     2.0;
    format      ascii;
    class       volVectorField;
    location    "1.5";
    object      U;
}
// * * * * * * * * * * * * * * * * * * * * * * * * * * * * * * * * * * * * * //

dimensions      [0 1 -1 0 0 0 0];


internalField   nonuniform List<vector> 
42400
(
(0.67462 -0.719731 3.37034e-17)
(6.24007 -13.2008 4.4796e-17)
(22.4624 -29.5694 -4.58615e-17)
(33.2653 -48.318 0)
(36.6661 -55.2813 0)
(29.0948 -51.3263 -1.24863e-20)
(14.2663 -39.7201 0)
(-1.67954 -26.3715 4.82725e-20)
(-14.1626 -15.6029 0)
(-21.9331 -8.42521 7.73226e-20)
(-25.9272 -4.01864 8.73363e-20)
(-27.4216 -1.38153 -9.42433e-20)
(-27.281 0.129602 -1.57677e-17)
(-26.0421 0.913725 1.61013e-17)
(-24.1197 1.26601 -9.75014e-20)
(-21.9179 1.42087 0)
(-19.7667 1.54588 0)
(-17.8672 1.73472 0)
(-16.2888 1.99669 0)
(-15.0299 2.27749 0)
(-14.0355 2.50777 0)
(-13.2841 2.65011 -1.26889e-19)
(-12.7825 2.70361 -8.6377e-18)
(-12.547 2.67432 1.66511e-18)
(-12.5654 2.5719 6.99507e-18)
(-12.766 2.38839 -4.92609e-20)
(-13.016 2.10504 -3.05823e-20)
(-13.1605 1.71113 2.80771e-20)
(-13.0734 1.21669 0)
(-12.7006 0.655709 0)
(-12.0577 0.0714046 -1.56831e-18)
(-11.2009 -0.499313 1.58377e-18)
(-10.2006 -1.03136 -6.03467e-20)
(-9.12437 -1.51018 2.47575e-18)
(-8.02841 -1.92903 -2.42301e-18)
(-6.95964 -2.2885 0)
(-5.95785 -2.59014 0)
(-5.05032 -2.83015 0)
(-4.25392 -3.00132 0)
(-3.57732 -3.09569 2.51424e-18)
(-3.02108 -3.10599 -2.5221e-18)
(-2.5798 -3.03244 2.35543e-18)
(-2.24035 -2.88368 -2.39758e-19)
(-1.98433 -2.67444 -4.31481e-18)
(-1.78921 -2.42401 2.04606e-18)
(-1.63449 -2.15436 -1.90756e-18)
(-1.50214 -1.88549 3.8911e-18)
(-1.37844 -1.63381 -1.8479e-18)
(-1.25485 -1.41317 -1.24677e-19)
(-1.12529 -1.23395 1.82447e-18)
(-0.98315 -1.10465 -3.59034e-18)
(-0.822314 -1.03235 -1.88716e-19)
(-0.638313 -1.0193 1.9311e-18)
(-0.429251 -1.06032 -2.06992e-19)
(-0.197568 -1.14216 0)
(0.0489514 -1.24564 0)
(0.296568 -1.34965 0)
(0.530904 -1.43387 1.73985e-19)
(0.740829 -1.48192 1.65969e-19)
(0.920738 -1.48307 0)
(1.07176 -1.43316 2.4203e-18)
(1.19965 -1.33264 -2.52264e-18)
(1.31265 -1.18469 -2.19043e-18)
(1.41935 -0.993798 2.14918e-18)
(1.52715 -0.76497 0)
(1.64142 -0.50337 0)
(1.76558 -0.214355 -1.78596e-18)
(1.90126 0.0965119 1.74552e-18)
(2.04885 0.423349 1.99539e-19)
(2.20784 0.759958 0)
(2.37714 1.10002 0)
(2.55532 1.43725 1.73885e-19)
(2.74071 1.76562 1.66951e-19)
(2.9316 2.07956 0)
(3.12663 2.37438 1.55102e-19)
(3.32432 2.64576 1.22809e-18)
(3.52413 2.89003 -1.19109e-18)
(3.72674 3.10524 -2.82183e-19)
(3.93211 3.28338 -1.12464e-18)
(4.14156 3.44804 -1.1058e-18)
(-10.9054 10.3291 0)
(-25.7476 28.1467 -5.19273e-17)
(-33.7582 33.7244 5.32275e-17)
(-32.449 34.3171 0)
(-28.7005 28.3746 0)
(-22.6955 20.2488 -2.27603e-17)
(-16.4176 12.1922 2.33233e-17)
(-10.7232 5.55728 -4.84449e-20)
(-5.81917 0.471928 0)
(-1.70384 -3.47602 -7.76437e-20)
(1.69448 -6.70648 -8.77308e-20)
(4.38484 -9.38451 -7.98762e-18)
(6.27418 -11.4591 -1.01035e-18)
(7.28285 -12.8319 9.41015e-18)
(7.46183 -13.4596 9.33171e-18)
(6.90102 -13.4198 -9.50179e-18)
(5.69393 -12.8904 0)
(3.99808 -12.07 -5.47007e-20)
(2.02314 -11.1454 0)
(0.0025012 -10.2326 0)
(-1.87886 -9.41423 0)
(-3.51718 -8.76966 -4.84179e-18)
(-4.85028 -8.34293 1.03821e-18)
(-5.8343 -8.13345 4.23956e-18)
(-6.45048 -8.09815 0)
(-6.69139 -8.18378 8.01186e-20)
(-6.563 -8.31523 3.06567e-20)
(-6.10328 -8.41854 -2.81286e-20)
(-5.3731 -8.43272 5.17082e-19)
(-4.45927 -8.30966 -5.22504e-19)
(-3.44991 -8.02378 7.82354e-20)
(-2.41838 -7.56934 7.77918e-20)
(-1.42579 -6.96663 1.74491e-18)
(-0.515468 -6.24988 -1.77578e-18)
(0.286057 -5.4628 -2.18666e-18)
(0.967903 -4.65123 2.20787e-18)
(1.52889 -3.85588 0)
(1.97118 -3.11341 -8.22283e-20)
(2.29941 -2.452 0)
(2.5216 -1.88585 -1.67755e-19)
(2.64629 -1.41599 2.43103e-18)
(2.68293 -1.03315 -2.60427e-18)
(2.64155 -0.721129 1.51776e-19)
(2.52971 -0.46187 -1.47336e-19)
(2.3566 -0.240488 -9.08456e-21)
(2.13108 -0.0478885 -1.37911e-19)
(1.8639 0.118903 1.33269e-19)
(1.57106 0.256817 2.00853e-18)
(1.2772 0.362267 -2.00488e-18)
(1.00744 0.429729 0)
(0.781024 0.447888 1.15845e-19)
(0.614488 0.408215 2.23049e-19)
(0.519957 0.307753 1.49507e-18)
(0.500432 0.148078 -1.48846e-18)
(0.548753 -0.0619139 -1.91312e-19)
(0.650149 -0.304547 2.78156e-18)
(0.785165 -0.557039 -3.10348e-18)
(0.933444 -0.797293 -1.73852e-19)
(1.08105 -1.00614 -1.65874e-19)
(1.22246 -1.17024 2.43775e-18)
(1.35873 -1.28255 -2.39942e-18)
(1.49409 -1.34061 1.43149e-19)
(1.63276 -1.34461 1.29689e-19)
(1.77723 -1.29617 0)
(1.92798 -1.19783 -1.65261e-18)
(2.08405 -1.05296 5.72805e-20)
(2.24374 -0.865806 1.96108e-18)
(2.40522 -0.641461 0)
(2.56679 -0.385765 -3.89326e-19)
(2.72708 -0.105159 1.80803e-19)
(2.88502 0.193517 1.40378e-18)
(3.03984 0.503225 -1.54103e-18)
(3.19105 0.816958 -1.46269e-18)
(3.33835 1.12801 1.41287e-18)
(3.48166 1.43019 -3.03207e-19)
(3.6211 1.71793 1.17164e-18)
(3.75675 1.98661 -8.5816e-19)
(3.88909 2.2326 2.82328e-19)
(4.02112 2.45227 -1.33986e-18)
(4.14302 2.67866 1.04732e-18)
(1.17094 -1.57977 -1.40664e-17)
(1.35938 -0.24904 1.12886e-19)
(1.54937 2.78404 -2.0243e-20)
(1.74182 7.14385 1.17409e-19)
(1.67504 12.0075 0)
(1.47628 16.2295 -2.25108e-17)
(1.29095 19.4793 3.88996e-17)
(1.2005 21.8463 -1.62512e-17)
(1.19805 23.4529 2.40199e-18)
(1.27209 24.415 -6.51333e-18)
(1.36344 24.8139 4.26014e-18)
(1.42082 24.8157 2.28356e-20)
(1.37717 24.6608 3.32664e-20)
(1.02225 24.5056 -1.96156e-17)
(0.0163608 24.3469 1.99772e-17)
(-1.73611 24.1904 1.10574e-19)
(-4.01128 24.0844 1.5348e-17)
(-6.41776 23.9611 -2.85573e-18)
(-8.61505 23.636 -1.31112e-17)
(-10.3433 23.0312 5.417e-20)
(-11.4572 22.1872 -4.82945e-20)
(-11.8991 21.1526 -3.8517e-20)
(-11.6385 19.9578 0)
(-10.6687 18.6111 3.10844e-20)
(-9.03153 17.1112 -5.73356e-18)
(-6.81837 15.449 1.12537e-17)
(-4.17294 13.6387 -5.55764e-18)
(-1.2806 11.7432 4.74892e-18)
(1.63409 9.83004 -4.81206e-18)
(4.32826 7.99895 -4.08575e-18)
(6.61066 6.33919 7.56914e-18)
(8.37262 4.92426 -2.50482e-19)
(9.56782 3.79409 -3.46245e-18)
(10.2035 2.9571 0)
(10.3314 2.39941 0)
(10.0358 2.09045 -7.87068e-20)
(9.41666 1.98256 0)
(8.57509 2.01813 -6.25349e-20)
(7.60462 2.13938 2.76784e-18)
(6.58098 2.29295 -5.61933e-18)
(5.55642 2.43491 2.92202e-18)
(4.56897 2.53843 0)
(3.64314 2.59022 0)
(2.7879 2.58044 2.47596e-18)
(2.00704 2.508 -2.32528e-18)
(1.30755 2.38322 -1.68702e-19)
(0.695778 2.21803 0)
(0.177588 2.02031 0)
(-0.241264 1.7906 1.94455e-18)
(-0.554699 1.52829 -1.93585e-18)
(-0.754863 1.23812 -1.15905e-19)
(-0.839007 0.926799 0)
(-0.813063 0.600258 -1.79889e-18)
(-0.690417 0.266079 1.58132e-18)
(-0.489656 -0.0656723 -2.71402e-18)
(-0.232384 -0.384512 2.88405e-18)
(0.0616338 -0.680043 -2.48039e-18)
(0.377478 -0.941337 5.15757e-18)
(0.7047 -1.15985 -4.92455e-18)
(1.03579 -1.33008 7.58412e-20)
(1.36484 -1.44885 2.2743e-18)
(1.68636 -1.51512 2.09396e-18)
(1.99508 -1.52972 -2.1863e-18)
(2.28626 -1.495 0)
(2.55622 -1.41435 1.55828e-18)
(2.80257 -1.29178 -5.42809e-20)
(3.02421 -1.13161 -2.07227e-18)
(3.22113 -0.938311 0)
(3.39411 -0.71647 3.69853e-19)
(3.54453 -0.470872 1.21639e-18)
(3.67418 -0.206577 -1.19724e-18)
(3.78519 0.0710374 0)
(3.88 0.356326 0)
(3.96136 0.64353 -1.53234e-19)
(4.03226 0.927028 1.48051e-19)
(4.09596 1.20163 8.4769e-19)
(4.1559 1.46294 -1.36717e-18)
(4.21555 1.70738 0)
(4.28327 1.93676 2.63173e-19)
(4.33531 2.14836 1.01763e-18)
(6.08546 -5.9945 -1.01557e-17)
(25.9718 -18.361 1.69406e-17)
(41.422 -33.5229 -9.42353e-18)
(46.695 -35.7161 -1.30649e-17)
(39.2608 -30.9343 1.31485e-17)
(28.0676 -22.9122 0)
(17.2139 -15.4566 -3.55975e-17)
(7.59741 -9.4516 3.65458e-17)
(-1.31634 -4.5557 -3.89768e-17)
(-9.91381 -0.328268 3.984e-17)
(-18.0075 3.44039 -3.84953e-17)
(-25.1856 6.76164 7.56138e-17)
(-31.1728 9.57692 -7.15798e-17)
(-35.8333 11.8476 6.64837e-17)
(-39.0555 13.4568 -6.09692e-17)
(-40.7912 14.3422 2.92795e-17)
(-41.069 14.4772 2.34397e-17)
(-39.999 13.9225 -4.44585e-17)
(-37.7781 12.8044 2.10797e-17)
(-34.6618 11.2613 -5.59514e-20)
(-30.9225 9.41299 1.7671e-19)
(-26.8195 7.36303 1.08564e-17)
(-22.5814 5.21142 -1.11128e-17)
(-18.4037 3.05395 -1.17413e-20)
(-14.4505 0.976994 0)
(-10.8642 -0.940079 1.68383e-20)
(-7.77553 -2.61996 0)
(-5.29231 -3.97657 8.5726e-19)
(-3.46749 -4.97406 1.589e-18)
(-2.28229 -5.58682 -2.52689e-18)
(-1.63947 -5.8569 -5.1604e-18)
(-1.39086 -5.87896 5.07066e-18)
(-1.3727 -5.74887 -1.18743e-19)
(-1.44906 -5.53732 -2.53246e-19)
(-1.54194 -5.28503 -7.00832e-18)
(-1.62315 -5.00333 7.27884e-18)
(-1.69682 -4.68956 0)
(-1.77901 -4.34118 6.41002e-18)
(-1.88121 -3.96112 -6.29794e-18)
(-2.00786 -3.55884 2.62483e-19)
(-2.16104 -3.15006 -2.62192e-19)
(-2.33348 -2.74672 0)
(-2.5146 -2.35876 0)
(-2.68722 -1.99184 0)
(-2.83332 -1.65116 -1.71587e-19)
(-2.94055 -1.34771 3.11588e-18)
(-2.99714 -1.09002 -2.94053e-18)
(-2.99185 -0.884863 0)
(-2.91615 -0.738467 0)
(-2.76559 -0.654319 2.0045e-18)
(-2.53919 -0.632009 -1.88871e-18)
(-2.23934 -0.667225 1.70783e-18)
(-1.87201 -0.751785 -1.30536e-18)
(-1.44612 -0.87423 1.75445e-19)
(-0.972618 -1.02093 -1.23806e-18)
(-0.463611 -1.17733 1.56279e-18)
(0.0680298 -1.32856 -2.52053e-18)
(0.609159 -1.46112 2.34271e-18)
(1.14634 -1.56409 0)
(1.66644 -1.62958 -1.31824e-19)
(2.15733 -1.65333 -2.05895e-18)
(2.60894 -1.63475 1.86272e-19)
(3.01409 -1.57624 3.8953e-18)
(3.36896 -1.48223 -3.48427e-18)
(3.67291 -1.35798 1.52702e-18)
(3.92783 -1.20856 1.5988e-18)
(4.13731 -1.03815 -1.17891e-18)
(4.30578 -0.849775 -1.78178e-19)
(4.4379 -0.64545 -1.39826e-18)
(4.5382 -0.426612 1.35485e-18)
(4.61105 -0.194637 -3.21512e-19)
(4.66073 0.0486865 -1.38009e-18)
(4.69165 0.300843 1.19599e-18)
(4.70852 0.558503 0)
(4.7165 0.817638 -1.11088e-18)
(4.72121 1.07382 2.74995e-19)
(4.72868 1.3226 2.35126e-18)
(4.74504 1.55958 -1.01603e-18)
(4.78225 1.78652 9.94945e-19)
(4.81044 1.98585 -9.66773e-19)
(2.10131 -1.19672 2.87776e-17)
(9.18237 -2.90309 0)
(12.0783 -6.67709 0)
(13.385 -6.55731 3.45457e-19)
(10.9512 -6.40155 0)
(6.67094 -4.33439 0)
(1.73634 -1.55376 0)
(-2.38217 0.965699 3.56053e-19)
(-4.49785 2.48347 0)
(-3.93883 2.51627 -4.98491e-19)
(-0.714531 0.957852 6.07625e-17)
(4.33505 -1.73328 -1.20298e-16)
(9.76517 -4.65425 5.91307e-17)
(14.1856 -6.95884 0)
(16.9213 -8.31923 -7.2671e-20)
(17.9324 -8.81073 -4.07163e-19)
(17.572 -8.72747 0)
(16.2654 -8.39445 3.62309e-17)
(14.3544 -8.07281 -7.13166e-17)
(12.0925 -7.94848 2.01215e-18)
(9.68803 -8.15237 3.17742e-17)
(7.32634 -8.76487 1.31185e-19)
(5.17767 -9.81367 0)
(3.40458 -11.2446 -2.46464e-17)
(2.09898 -12.8672 2.60624e-17)
(1.27129 -14.369 -2.23176e-17)
(0.83586 -15.4226 2.29664e-17)
(0.677921 -15.847 1.90825e-17)
(0.711184 -15.6821 -1.91686e-17)
(0.888645 -15.0937 0)
(1.1748 -14.2665 -1.34316e-17)
(1.51338 -13.3277 1.35754e-17)
(1.82874 -12.3387 2.71064e-19)
(2.05337 -11.3166 -8.41175e-18)
(2.14493 -10.2669 8.7373e-18)
(2.08691 -9.19828 -1.16454e-19)
(1.88294 -8.12367 -8.41023e-20)
(1.55153 -7.05972 -4.64689e-18)
(1.12111 -6.02595 4.66979e-18)
(0.627217 -5.04369 3.43003e-18)
(0.111053 -4.13276 -1.85524e-19)
(-0.385848 -3.3137 -3.14974e-18)
(-0.835086 -2.61503 0)
(-1.22312 -2.06162 8.23327e-20)
(-1.53904 -1.65367 -1.7187e-18)
(-1.77443 -1.36791 3.85754e-18)
(-1.93257 -1.17788 -3.49961e-18)
(-2.01797 -1.06065 1.61035e-18)
(-2.0284 -1.00063 0)
(-1.95576 -0.989042 7.37035e-20)
(-1.79084 -1.02096 -1.42518e-18)
(-1.52817 -1.09176 1.38528e-18)
(-1.16836 -1.19478 -3.86338e-20)
(-0.718639 -1.32044 -1.2934e-18)
(-0.191701 -1.45686 9.40479e-19)
(0.394779 -1.59029 -1.17749e-18)
(1.01944 -1.70637 -1.23778e-18)
(1.65834 -1.79208 2.38086e-18)
(2.28644 -1.83717 -2.07882e-18)
(2.87999 -1.83543 2.17922e-18)
(3.41885 -1.78557 0)
(3.88859 -1.69128 -1.19291e-19)
(4.28174 -1.56029 -1.72576e-18)
(4.59777 -1.40264 1.47689e-18)
(4.84192 -1.22861 3.94413e-19)
(5.02323 -1.04687 0)
(5.15234 -0.863226 1.41457e-18)
(5.23968 -0.680241 -1.21754e-18)
(5.2943 -0.497672 -1.70386e-19)
(5.32344 -0.31338 -1.5413e-19)
(5.33273 -0.124461 3.05651e-19)
(5.32675 0.0717307 7.19326e-21)
(5.30971 0.276815 -1.27801e-18)
(5.286 0.490982 1.10725e-18)
(5.2606 0.712914 -1.31153e-19)
(5.23919 0.939964 0)
(5.22805 1.1685 -1.26842e-18)
(5.23372 1.39417 9.80255e-19)
(5.26653 1.61538 0)
(5.3063 1.82787 -9.38016e-19)
(9.49188 -6.49431 3.64401e-19)
(17.5527 -15.2473 -1.61961e-17)
(13.8242 -17.0887 1.90683e-17)
(2.98332 -18.9296 -4.03973e-17)
(-7.77709 -20.7409 2.11603e-17)
(-18.9209 -22.3053 6.40345e-20)
(-29.3218 -23.1268 2.56868e-17)
(-37.6445 -23.2476 -2.67747e-17)
(-43.4055 -22.8749 -5.87928e-20)
(-47.0871 -21.9655 4.32988e-19)
(-49.5894 -20.3914 -3.24783e-17)
(-51.6682 -18.0645 -3.54723e-17)
(-53.6706 -14.9971 7.05082e-17)
(-55.478 -11.3493 -7.39743e-17)
(-56.7442 -7.35671 1.50361e-16)
(-57.1795 -3.219 -7.62237e-17)
(-56.7046 0.926959 0)
(-55.3785 4.99658 0)
(-53.4596 8.92346 7.11302e-17)
(-51.198 12.6361 -4.37191e-18)
(-48.7717 16.002 -6.72778e-17)
(-46.1868 18.8092 5.52269e-17)
(-43.1709 20.7134 -1.04495e-16)
(-39.1361 21.191 4.85879e-17)
(-33.4661 19.6961 3.22545e-17)
(-26.0556 16.0529 -8.24384e-18)
(-17.7277 10.8729 -2.57321e-17)
(-9.90458 5.41018 -4.63626e-20)
(-3.76169 0.824033 6.06939e-20)
(0.313156 -2.45184 -1.32288e-19)
(2.64059 -4.59517 0)
(3.79556 -5.96692 1.67187e-18)
(4.25769 -6.84412 -2.23923e-18)
(4.32112 -7.3899 5.69118e-19)
(4.14903 -7.68401 0)
(3.83728 -7.75392 3.36064e-19)
(3.43715 -7.61338 -3.55082e-19)
(2.97227 -7.27735 0)
(2.45427 -6.76518 0)
(1.89237 -6.10464 1.39566e-19)
(1.29753 -5.33664 -8.37556e-20)
(0.68651 -4.51357 1.21658e-19)
(0.0887243 -3.68289 0)
(-0.460026 -2.88531 3.38371e-19)
(-0.933735 -2.16919 2.43215e-20)
(-1.31092 -1.57123 -5.99985e-19)
(-1.57072 -1.10383 -1.37808e-20)
(-1.70104 -0.770094 9.63972e-20)
(-1.69736 -0.566273 0)
(-1.5609 -0.478352 -9.89373e-19)
(-1.29614 -0.488943 1.84767e-18)
(-0.910582 -0.579642 -1.0101e-18)
(-0.414734 -0.73085 -1.46146e-19)
(0.1757 -0.923657 -1.19233e-18)
(0.841578 -1.13709 1.31097e-19)
(1.55903 -1.3489 2.07406e-18)
(2.29914 -1.5373 -7.67621e-19)
(3.02967 -1.68252 0)
(3.71738 -1.76921 0)
(4.33168 -1.78859 1.09894e-19)
(4.84878 -1.73985 1.04526e-19)
(5.25516 -1.63026 0)
(5.54933 -1.47369 1.45952e-18)
(5.74102 -1.28756 -1.4349e-18)
(5.84812 -1.0892 -1.61802e-18)
(5.89232 -0.892687 -1.36367e-19)
(5.8948 -0.706917 1.16865e-18)
(5.87314 -0.535249 -1.27217e-18)
(5.83975 -0.376422 1.24247e-18)
(5.80203 -0.226181 1.05805e-20)
(5.76348 -0.0790487 1.00371e-18)
(5.72542 0.0701805 -9.78741e-19)
(5.68857 0.225437 -9.47508e-19)
(5.65424 0.3889 1.18555e-18)
(5.62502 0.560967 -8.98302e-19)
(5.60495 0.74053 9.99379e-19)
(5.59922 0.92539 -9.78014e-19)
(5.61363 1.1128 1.90164e-18)
(5.6553 1.30035 6.66938e-21)
(5.7148 1.49611 8.15998e-21)
(-14.2267 8.06044 -4.8761e-18)
(-50.8802 30.93 3.43866e-20)
(-91.6078 53.1444 9.87192e-18)
(-118.423 69.4407 -2.1959e-17)
(-126.09 73.3166 1.20963e-17)
(-116.849 67.4636 -1.63721e-17)
(-96.3288 55.0867 -2.42061e-18)
(-71.1896 40.0907 1.82203e-17)
(-47.1677 25.7975 -2.27135e-17)
(-27.268 13.8818 2.19785e-17)
(-11.6663 4.3913 -2.4302e-17)
(0.715409 -3.24652 2.41864e-17)
(10.7842 -9.44799 -2.50261e-17)
(18.9316 -14.3562 2.56477e-17)
(25.2295 -17.9577 1.06885e-19)
(29.611 -20.1817 1.13934e-19)
(31.9471 -20.9667 -4.65202e-17)
(32.1694 -20.2929 4.73666e-17)
(30.2435 -18.2483 -2.35488e-19)
(26.425 -15.0367 -8.22551e-19)
(21.2214 -10.9685 -3.86398e-17)
(15.2871 -6.39164 3.77795e-17)
(9.33928 -1.65929 0)
(4.11391 2.76909 5.61144e-19)
(0.260595 6.26408 0)
(-1.90217 8.27466 0)
(-2.55583 8.64289 3.7405e-19)
(-2.22774 7.63939 1.92742e-17)
(-1.42653 5.75623 -1.98379e-17)
(-0.496231 3.43899 -1.35771e-17)
(0.401411 1.01243 1.38592e-17)
(1.2171 -1.27564 -1.23098e-19)
(1.9455 -3.24261 1.10623e-19)
(2.58283 -4.80073 0)
(3.12271 -5.94488 8.26515e-20)
(3.55269 -6.7007 0)
(3.85866 -7.09445 0)
(4.02469 -7.14897 2.33972e-20)
(4.03564 -6.89105 0)
(3.88437 -6.35666 0)
(3.57773 -5.59342 -1.13202e-18)
(3.13868 -4.66002 1.1058e-18)
(2.60586 -3.62366 0)
(2.03273 -2.55595 0)
(1.48066 -1.52717 0)
(1.00286 -0.605028 1.46567e-20)
(0.640598 0.154184 1.37555e-20)
(0.413559 0.712114 2.97443e-20)
(0.332056 1.06412 -5.16185e-20)
(0.401163 1.22929 3.95224e-19)
(0.609928 1.22903 -4.58352e-19)
(0.946454 1.0935 7.88689e-20)
(1.40129 0.85771 3.57677e-20)
(1.96152 0.553587 0)
(2.60894 0.213561 0)
(3.31719 -0.133671 -8.21954e-19)
(4.05059 -0.459351 -1.30816e-19)
(4.76636 -0.736668 9.06702e-19)
(5.41953 -0.943434 -8.65639e-19)
(5.96918 -1.06533 8.38385e-19)
(6.38582 -1.09872 1.45897e-18)
(6.65734 -1.05156 -5.70254e-20)
(6.79122 -0.941535 -2.77603e-18)
(6.81178 -0.79165 1.37813e-18)
(6.75329 -0.624716 7.51793e-20)
(6.65153 -0.45872 1.64294e-19)
(6.53659 -0.30443 1.1975e-18)
(6.42883 -0.165488 -2.33337e-18)
(6.33823 -0.0401982 1.13561e-18)
(6.26647 0.0760332 1.43508e-19)
(6.21009 0.188472 1.07681e-18)
(6.16385 0.301478 -1.17572e-18)
(6.12323 0.417672 0)
(6.08604 0.537754 -1.28768e-19)
(6.05306 0.660835 0)
(6.02782 0.785069 9.67338e-19)
(6.01584 0.908404 9.74792e-21)
(6.02344 1.02922 -9.18953e-19)
(6.0571 1.14748 6.85863e-19)
(6.1135 1.26864 2.31047e-19)
(-9.95589 3.45044 4.9851e-17)
(-21.8251 8.26316 -7.48297e-17)
(-26.8536 12.0435 -1.20862e-19)
(-29.4454 15.8642 -7.41507e-17)
(-31.5945 21.7206 7.56722e-17)
(-32.769 27.1924 -7.11671e-17)
(-32.9421 31.5047 1.41778e-16)
(-32.4057 34.3066 -6.93064e-17)
(-31.4459 35.4893 6.3849e-17)
(-30.1467 35.2397 -6.37376e-17)
(-28.4724 33.8466 0)
(-26.3405 31.6073 3.5526e-19)
(-23.6504 28.7875 2.89337e-19)
(-20.2873 25.6376 0)
(-16.184 22.4124 0)
(-11.3681 19.395 0)
(-6.14148 17.0041 0)
(-1.17478 15.6248 -3.1549e-19)
(2.70396 15.4621 0)
(4.95773 16.1775 2.95144e-17)
(5.88277 16.8807 -2.85728e-17)
(6.28893 16.5828 -4.55107e-17)
(6.48154 15.0599 4.70576e-17)
(5.7814 13.1679 3.5339e-17)
(3.4036 11.9598 -3.67363e-17)
(-0.350862 11.6272 2.56549e-17)
(-4.16158 11.5479 -2.6409e-17)
(-6.78979 11.0603 1.6658e-17)
(-7.72957 9.94092 -4.16783e-18)
(-7.17989 8.32782 -1.26297e-17)
(-5.6298 6.48235 0)
(-3.54842 4.63746 4.93317e-20)
(-1.25075 2.93874 7.25197e-20)
(1.07584 1.46496 0)
(3.30769 0.247004 -8.18497e-20)
(5.35267 -0.694104 0)
(7.13271 -1.34285 0)
(8.58376 -1.69855 7.79445e-19)
(9.65957 -1.76961 -1.48353e-18)
(10.3344 -1.57395 7.32681e-19)
(10.6054 -1.14023 3.9198e-19)
(10.4931 -0.50694 -4.20315e-19)
(10.0388 0.280385 -8.70686e-21)
(9.30167 1.17216 0)
(8.35585 2.11491 -5.22202e-20)
(7.28536 3.05022 3.41367e-20)
(6.18427 3.92254 0)
(5.14569 4.67307 0)
(4.24815 5.23258 -7.16918e-20)
(3.5613 5.55287 6.20946e-20)
(3.14037 5.62913 2.8196e-19)
(3.00765 5.47588 -2.85209e-19)
(3.15254 5.12558 -4.98679e-19)
(3.54129 4.6252 1.01253e-18)
(4.11825 4.02673 -5.48133e-19)
(4.81564 3.38203 -1.57261e-19)
(5.56642 2.7453 0)
(6.30129 2.16063 6.89885e-20)
(6.95275 1.66111 -6.31429e-19)
(7.46421 1.26838 1.27356e-18)
(7.79991 0.990073 -6.66915e-19)
(7.95276 0.819344 0)
(7.94527 0.737409 -8.18681e-20)
(7.82195 0.718826 0)
(7.6359 0.738037 -7.50914e-20)
(7.43494 0.774771 -6.14573e-20)
(7.25225 0.816521 -1.22086e-19)
(7.10359 0.858017 -1.04198e-18)
(6.99005 0.898921 8.96971e-19)
(6.90363 0.941192 -1.20071e-19)
(6.83286 0.986995 -9.98383e-19)
(6.76712 1.03742 1.21758e-18)
(6.69924 1.09186 -9.71824e-19)
(6.62673 1.14801 9.45071e-19)
(6.55195 1.20223 -1.06211e-18)
(6.48137 1.25052 8.05409e-19)
(6.4241 1.28958 9.22464e-19)
(6.38984 1.31796 -8.94189e-19)
(6.38732 1.33775 2.24142e-19)
(6.41562 1.34863 -2.20638e-19)
(-1.49274 2.42288 3.06515e-17)
(6.47842 1.1033 4.45511e-17)
(18.8948 -2.43886 -8.86562e-17)
(28.6261 -4.65524 8.70165e-17)
(33.6813 -5.1625 -4.34141e-17)
(36.2516 -4.60159 1.28355e-19)
(36.7634 -3.59402 3.68198e-17)
(35.7482 -2.74958 -7.17475e-17)
(33.9046 -2.62935 3.09167e-18)
(31.8907 -3.73276 3.17229e-17)
(30.3822 -6.39284 -6.50085e-19)
(30.0995 -10.7459 -1.91227e-17)
(31.6196 -16.6517 1.94931e-17)
(35.2356 -23.6906 -1.02895e-17)
(40.8368 -31.2284 1.04889e-17)
(47.5603 -38.4258 1.93175e-18)
(53.3834 -44.0401 -1.96856e-18)
(55.2987 -46.5441 3.21005e-19)
(50.3403 -44.5446 0)
(37.3146 -37.7357 4.2998e-18)
(18.3147 -27.3942 -4.6778e-18)
(-1.82809 -16.0368 5.24784e-19)
(-18.1781 -6.26774 -3.18282e-19)
(-28.2457 0.48886 -1.67963e-19)
(-32.2562 4.27706 7.04526e-19)
(-31.9028 6.04174 0)
(-28.8785 6.71514 -4.18555e-19)
(-24.3601 6.86004 -3.05212e-19)
(-19.0847 6.7432 -8.13975e-18)
(-13.5696 6.48655 8.59148e-18)
(-8.21267 6.15717 8.20561e-18)
(-3.26655 5.76124 -8.08033e-18)
(1.09541 5.27282 3.72325e-19)
(4.80394 4.71286 -6.7945e-18)
(7.84521 4.12957 1.20523e-17)
(10.2212 3.54662 -5.62589e-18)
(11.9449 2.99509 -3.62985e-18)
(13.0376 2.51952 3.84863e-18)
(13.5253 2.16409 5.0197e-20)
(13.4501 1.9702 -6.65058e-20)
(12.879 1.9619 2.74081e-20)
(11.9092 2.13942 -5.71496e-19)
(10.6627 2.48359 3.37265e-19)
(9.26738 2.96313 2.44078e-19)
(7.83593 3.53651 1.42441e-19)
(6.46031 4.16439 -1.38809e-19)
(5.21159 4.80723 0)
(4.14376 5.41816 -2.92936e-19)
(3.30428 5.96158 2.54019e-19)
(2.72922 6.40766 -1.54168e-19)
(2.43927 6.71802 7.36339e-20)
(2.43694 6.86174 8.80202e-20)
(2.70524 6.82665 9.0944e-20)
(3.21254 6.62561 8.62401e-20)
(3.91577 6.29631 -1.83451e-19)
(4.75132 5.87551 5.70928e-20)
(5.63882 5.39468 0)
(6.49314 4.89068 -4.75081e-19)
(7.23237 4.40028 3.30705e-19)
(7.79108 3.95293 0)
(8.13562 3.56784 -4.73693e-19)
(8.27267 3.25295 3.86209e-19)
(8.24526 3.00593 0)
(8.11662 2.81701 -4.71612e-20)
(7.94925 2.67293 0)
(7.78861 2.56082 -8.39078e-19)
(7.65687 2.47061 1.86026e-18)
(7.55616 2.39558 -8.89646e-19)
(7.47652 2.33172 1.20661e-19)
(7.40375 2.27672 1.19941e-19)
(7.32497 2.22906 -9.25411e-19)
(7.23142 2.18732 7.83399e-19)
(7.1196 2.14952 -1.12244e-19)
(6.99168 2.11255 -1.12049e-19)
(6.8555 2.07207 2.2674e-19)
(6.72378 2.02314 1.13954e-19)
(6.61228 1.96167 1.01143e-18)
(6.53677 1.88615 1.99057e-20)
(6.50976 1.79962 -9.74151e-19)
(6.53073 1.70011 -2.15917e-19)
(-2.5395 2.269 0)
(-14.797 7.42489 -3.43626e-19)
(-30.9691 17.5246 -1.46745e-19)
(-42.5519 23.9632 -4.58237e-17)
(-49.2588 29.7899 9.453e-17)
(-56.6004 35.7726 -9.8501e-17)
(-66.888 42.2726 5.06201e-17)
(-80.3906 48.8057 0)
(-95.8663 54.4783 6.82566e-19)
(-110.842 58.2649 -5.59266e-17)
(-122.156 59.011 5.77627e-17)
(-126.485 55.473 5.73337e-17)
(-121.652 46.9726 -1.15963e-16)
(-107.417 34.4212 1.86132e-18)
(-85.3941 20.096 2.71725e-18)
(-58.2345 5.90991 5.55466e-17)
(-29.2318 -7.34007 1.82549e-19)
(-2.33163 -18.7738 -4.69619e-17)
(18.5903 -27.1288 4.75909e-17)
(31.6063 -31.3068 2.93559e-19)
(37.4322 -31.2434 1.80701e-19)
(38.595 -27.8823 -1.64911e-19)
(37.7559 -22.592 -3.17113e-17)
(36.5906 -16.6733 3.97269e-18)
(35.7809 -10.9781 2.85855e-17)
(35.2801 -5.87103 2.85856e-19)
(34.8567 -1.48346 -2.13053e-17)
(34.3761 2.18142 4.12806e-17)
(33.786 5.17146 -3.68006e-17)
(33.0371 7.56867 1.7055e-17)
(32.0288 9.45926 0)
(30.7327 10.9374 -2.25807e-17)
(29.1595 12.1222 4.08946e-17)
(27.3707 13.0528 -1.85844e-17)
(25.4558 13.7219 1.2233e-17)
(23.5206 14.1253 -1.25249e-17)
(21.65 14.2682 -1.94271e-19)
(19.8934 14.1728 0)
(18.2513 13.8663 -9.85805e-20)
(16.7265 13.3755 -1.70787e-18)
(15.3019 12.7402 1.76987e-18)
(13.9621 11.9961 3.22512e-20)
(12.6902 11.1903 -3.84073e-20)
(11.4751 10.3825 0)
(10.2995 9.6316 0)
(9.14869 8.98855 -1.12774e-18)
(8.02519 8.48872 1.30101e-18)
(6.95488 8.13818 4.44762e-20)
(5.98769 7.91997 1.02076e-18)
(5.18814 7.79096 -1.98645e-18)
(4.61844 7.69385 8.33851e-19)
(4.32482 7.58447 0)
(4.32306 7.43368 -5.67282e-19)
(4.59295 7.21647 5.16459e-19)
(5.07768 6.9158 0)
(5.70055 6.5407 -1.69557e-19)
(6.36783 6.1144 1.69876e-19)
(6.98307 5.66631 1.26214e-20)
(7.46919 5.22807 -1.57752e-20)
(7.78777 4.82773 0)
(7.94631 4.48464 5.53541e-20)
(7.98733 4.20667 4.18009e-20)
(7.96515 3.99182 -3.0331e-19)
(7.92397 3.83191 6.39641e-21)
(7.88715 3.71586 3.3185e-19)
(7.8584 3.63143 0)
(7.82957 3.56644 5.27705e-20)
(7.78883 3.50979 0)
(7.72622 3.45252 0)
(7.63596 3.38853 -8.81054e-19)
(7.51636 3.31472 8.59138e-19)
(7.36898 3.23045 7.84463e-19)
(7.19815 3.13642 1.38267e-19)
(7.01165 3.03315 -7.61208e-19)
(6.82197 2.91985 -1.00829e-18)
(6.64692 2.79429 8.70703e-19)
(6.50796 2.6541 -1.10579e-19)
(6.426 2.49889 -8.84612e-19)
(6.41568 2.33209 1.95189e-18)
(6.47615 2.15715 -6.3412e-19)
(19.0459 -6.29278 -6.90565e-18)
(45.4596 -15.9048 5.39163e-18)
(63.7653 -19.45 7.14067e-18)
(81.8814 -21.2664 -7.317e-18)
(91.3958 -16.9083 1.55265e-19)
(83.7091 -5.29248 1.61063e-19)
(61.6347 10.9855 0)
(31.5662 29.1962 -1.08492e-17)
(-0.939575 47.1302 1.14343e-17)
(-32.3893 63.8863 0)
(-60.9492 79.5274 1.65006e-17)
(-83.3509 93.1668 -3.66676e-17)
(-91.9631 101.1 -3.27537e-18)
(-77.6629 98.4759 5.19282e-17)
(-43.797 86.5797 -2.79422e-17)
(-8.95852 73.6265 1.94525e-19)
(13.8835 64.617 -8.95824e-19)
(25.4809 58.6626 0)
(29.8864 53.9836 -2.08708e-17)
(29.6651 50.0775 2.13739e-17)
(26.2747 46.9742 -6.0895e-19)
(20.79 44.6864 -1.27285e-17)
(14.1693 43.0872 1.22379e-17)
(7.30169 41.8781 -9.06614e-18)
(0.899059 40.7995 9.16428e-18)
(-4.55771 39.6118 -2.88635e-19)
(-8.77802 38.1678 -5.54083e-18)
(-11.6501 36.4035 6.08985e-19)
(-13.2076 34.3175 9.95358e-18)
(-13.582 31.955 5.17357e-20)
(-12.9566 29.3998 -4.40903e-18)
(-11.5346 26.7454 -4.08982e-18)
(-9.58158 24.1378 4.32141e-18)
(-7.32942 21.6916 0)
(-4.94354 19.4621 1.11974e-19)
(-2.57819 17.4979 7.62372e-20)
(-0.418242 15.8417 0)
(1.34548 14.508 -4.13471e-18)
(2.55731 13.4744 4.1539e-18)
(3.17874 12.6903 1.1842e-20)
(3.25454 12.1122 0)
(2.91367 11.6531 -3.23216e-20)
(2.32296 11.2106 -1.99228e-18)
(1.64311 10.7184 1.92925e-18)
(1.0173 10.1664 0)
(0.539317 9.56606 1.43516e-18)
(0.2445 8.94086 -1.67499e-18)
(0.130883 8.32715 0)
(0.184488 7.76676 0)
(0.393282 7.28555 6.95715e-20)
(0.751399 6.88865 6.21551e-20)
(1.25552 6.56874 0)
(1.89109 6.30424 -7.89129e-19)
(2.62735 6.0713 8.27939e-19)
(3.4182 5.85763 5.57825e-19)
(4.21161 5.65512 -1.61557e-19)
(4.96041 5.45849 -7.03795e-19)
(5.6329 5.26703 4.51094e-19)
(6.21623 5.08401 -1.0466e-19)
(6.71203 4.91568 -5.59149e-20)
(7.12738 4.76934 -1.68874e-20)
(7.4672 4.65051 0)
(7.7317 4.56037 0)
(7.91813 4.49479 3.03769e-19)
(8.02432 4.44541 -3.40708e-19)
(8.05154 4.40189 0)
(8.00565 4.35417 5.09856e-20)
(7.8968 4.29408 0)
(7.73788 4.21614 4.34235e-19)
(7.54243 4.11781 -4.23835e-19)
(7.32268 3.99926 1.15155e-19)
(7.08845 3.8628 1.01756e-18)
(6.84786 3.71195 -8.82663e-19)
(6.60992 3.55005 1.15312e-19)
(6.38796 3.37913 0)
(6.20162 3.19953 0)
(6.07509 3.01075 0)
(6.03096 2.81344 -9.98704e-19)
(6.08162 2.61048 -1.2805e-19)
(6.22112 2.41286 1.72145e-18)
(10.0975 -3.34762 -4.98757e-17)
(26.1981 -16.0062 -7.30626e-17)
(50.3039 -27.023 7.48948e-17)
(80.9244 -45.0205 -7.48114e-17)
(96.2186 -53.1169 7.74239e-17)
(77.0955 -48.6444 4.87574e-19)
(37.9829 -33.1911 4.27278e-19)
(0.0707283 -13.8129 0)
(-27.2839 1.86195 -3.71935e-19)
(-44.312 12.8499 0)
(-55.0593 23.126 2.67917e-19)
(-59.6511 32.7375 7.48734e-17)
(-54.2311 37.4784 -7.61325e-17)
(-38.3912 34.9735 -7.21522e-17)
(-19.6252 29.0822 7.31743e-17)
(-6.95978 24.0688 -6.50819e-17)
(-1.1313 19.4006 6.78341e-17)
(1.85928 14.1894 0)
(4.07931 9.00721 0)
(5.87095 4.14698 0)
(7.23489 -0.414058 3.6837e-17)
(8.26596 -4.5133 -6.8239e-17)
(9.15267 -7.97524 5.60253e-18)
(9.92597 -10.7585 4.90609e-17)
(10.568 -12.8901 -2.2658e-17)
(11.0977 -14.3846 0)
(11.4761 -15.2719 -3.9285e-20)
(11.6808 -15.5649 0)
(11.758 -15.2844 1.0832e-17)
(11.7831 -14.5279 -1.0878e-17)
(11.7976 -13.3919 -1.6457e-19)
(11.7979 -11.9335 0)
(11.7749 -10.2245 -8.693e-18)
(11.7057 -8.38461 1.68058e-17)
(11.452 -6.49983 -8.3103e-18)
(10.8557 -4.66135 7.15587e-18)
(9.84984 -2.97529 -1.36416e-17)
(8.4798 -1.54364 6.47869e-18)
(6.88641 -0.440699 0)
(5.22859 0.322382 0)
(3.63138 0.790013 0)
(2.19496 1.04341 -2.65018e-18)
(0.985522 1.19317 7.06158e-18)
(0.0498503 1.30621 -4.30293e-18)
(-0.59038 1.40678 0)
(-0.929041 1.51548 2.53504e-18)
(-0.981323 1.64219 -2.46079e-18)
(-0.780943 1.79045 -1.83307e-18)
(-0.365487 1.96733 3.10707e-19)
(0.225397 2.17102 1.95508e-19)
(0.949072 2.38938 1.77445e-19)
(1.76348 2.61209 1.19976e-18)
(2.63052 2.83452 0)
(3.51176 3.05232 0)
(4.36987 3.25488 5.30749e-19)
(5.17399 3.43569 -5.40521e-19)
(5.9005 3.59236 0)
(6.53253 3.72484 0)
(7.05909 3.83482 1.79876e-21)
(7.47377 3.92433 7.72216e-22)
(7.77429 3.99461 0)
(7.96257 4.04585 0)
(8.04494 4.07756 -4.12125e-20)
(8.03177 4.08908 -4.73827e-20)
(7.93659 4.08006 4.28878e-19)
(7.77494 4.05059 -7.97856e-19)
(7.56321 4.0011 -8.55667e-20)
(7.3175 3.93225 8.99295e-19)
(7.05243 3.84494 -9.91653e-19)
(6.78003 3.74038 9.47863e-19)
(6.50913 3.62032 -1.63462e-19)
(6.24593 3.48716 -4.73649e-19)
(5.99621 3.34389 9.65825e-19)
(5.76911 3.19366 2.43187e-20)
(5.58052 3.03921 -1.87504e-18)
(5.45346 2.88248 1.0364e-18)
(5.41334 2.72481 0)
(5.47873 2.56771 2.25619e-19)
(5.65151 2.41345 0)
(5.91014 2.27137 -8.85449e-19)
(-41.1462 10.4911 0)
(-76.5878 14.7955 1.88041e-19)
(-66.027 8.22358 -1.7684e-19)
(-33.239 -11.0495 6.06488e-17)
(8.62958 -31.1814 -1.13459e-16)
(69.3649 -58.7007 5.1312e-17)
(139.287 -86.7177 -4.1751e-19)
(176.542 -95.4425 0)
(158.812 -82.7012 0)
(114.345 -66.847 0)
(72.3481 -55.6769 -2.6114e-19)
(39.5512 -44.3002 -4.91798e-19)
(15.6724 -31.8981 0)
(1.48482 -21.6762 2.05513e-19)
(-3.98066 -14.4581 8.08418e-19)
(-4.14619 -8.75137 1.81814e-17)
(-1.95516 -3.34044 -1.91788e-17)
(0.888606 1.91815 -3.55938e-19)
(3.41005 6.89192 0)
(5.21996 11.6616 3.27607e-19)
(6.23722 16.1462 1.50223e-19)
(6.50461 20.1339 1.68007e-17)
(6.05943 23.3746 -1.05645e-18)
(4.98115 25.7372 -1.60324e-17)
(3.58813 27.1867 8.17827e-20)
(2.45836 27.7411 2.4873e-19)
(2.19431 27.6082 -1.11046e-17)
(3.02413 27.1007 1.03883e-17)
(4.79266 26.2982 3.86854e-19)
(7.26092 24.993 -3.91344e-20)
(10.2182 23.0751 -5.26047e-20)
(13.3824 20.6849 -3.68741e-18)
(16.3098 18.0278 3.73296e-18)
(18.3901 15.3413 9.25486e-20)
(19.0701 12.8967 9.95042e-20)
(18.1229 10.8417 1.26278e-19)