/*--------------------------------*- C++ -*----------------------------------*\
| =========                 |                                                 |
| \\      /  F ield         | OpenFOAM: The Open Source CFD Toolbox           |
|  \\    /   O peration     | Version:  2012                                  |
|   \\  /    A nd           | Website:  www.openfoam.com                      |
|    \\/     M anipulation  |                                                 |
\*---------------------------------------------------------------------------*/
FoamFile
{
    version     2.0;
    format      ascii;
    class       volScalarField;
    location    "0.92";
    object      p;
}
// * * * * * * * * * * * * * * * * * * * * * * * * * * * * * * * * * * * * * //

dimensions      [0 2 -2 0 0 0 0];


internalField   nonuniform List<scalar> 
42400
(
8293.04
8130.05
7897.54
7549.34
7057.4
6467
5820.03
5156.14
4503.15
3877.17
3284.79
2728.63
2210.55
1732.72
1297.89
908.646
565.864
267.947
12.1322
-204.758
-385.43
-531.82
-645.178
-726.739
-778.391
-802.938
-803.942
-785.208
-750.351
-702.734
-645.654
-582.631
-517.147
-452.193
-390.076
-332.447
-280.685
-235.522
-197.171
-165.711
-140.835
-121.926
-108.134
-98.502
-92.1013
-88.1135
-85.8643
-84.8057
-84.4828
-84.5603
-84.8409
-84.9063
-84.6103
-83.9113
-82.8535
-81.5448
-80.0861
-78.6553
-77.3066
-76.0883
-75.0213
-74.1069
-73.3388
-72.7076
-72.204
-71.8195
-71.5467
-71.379
-71.3109
-71.337
-71.452
-71.6504
-71.9262
-72.2719
-72.6774
-73.1299
-73.6214
-74.1534
-74.7216
-75.2848
-8674.9
-8188.27
-7545.44
-6834.71
-6032.21
-5238.14
-4479.51
-3774.18
-3136.97
-2579.62
-2106.72
-1712
-1379.73
-1089.56
-822.603
-567.432
-322.59
-94.3878
108.014
277.658
411.753
511.39
579.754
620.527
637.1
632.469
609.471
571.053
520.456
460.282
393.889
324.409
254.991
188.577
127.474
73.3418
27.6344
-9.33724
-37.9409
-58.8151
-73.1889
-82.5865
-88.4388
-91.923
-93.9245
-94.9599
-95.3521
-95.2626
-94.8577
-94.105
-92.9045
-91.4906
-89.9053
-88.2039
-86.4599
-84.741
-83.1024
-81.5857
-80.2151
-79.0005
-77.941
-77.0301
-76.2594
-75.6208
-75.1076
-74.7145
-74.437
-74.2714
-74.214
-74.2607
-74.4065
-74.6452
-74.9683
-75.3652
-75.8215
-76.3175
-76.8306
-77.3454
-77.8539
-78.2457
-1807.97
-1775.39
-1718.43
-1627.69
-1499.78
-1352.97
-1193.04
-1018.49
-824.842
-613.367
-395.546
-191.48
-23.399
92.9288
154.515
171.807
162.74
144.241
126.313
111.959
101.085
93.0922
87.3883
83.2357
79.5903
75.2678
69.2525
60.9477
50.2662
37.553
23.42
8.55319
-6.45288
-21.0356
-34.4749
-45.8569
-55.0191
-62.6268
-69.0453
-74.474
-79.1183
-83.1223
-86.5824
-89.5016
-91.8173
-93.5452
-94.6917
-95.2916
-95.3023
-94.7996
-93.8723
-92.6109
-91.1066
-89.4537
-87.7422
-86.05
-84.4382
-82.9487
-81.6055
-80.4184
-79.3873
-78.5068
-77.7694
-77.1673
-76.6938
-76.3426
-76.1087
-75.9872
-75.9733
-76.0613
-76.2443
-76.5136
-76.8577
-77.2618
-77.7074
-78.1703
-78.6212
-79.0338
-79.3912
-79.578
10785.4
10523.5
10210.8
9807.7
9245.59
8558.61
7760.27
6871.2
5923.77
4954.2
3997.68
3082.77
2233.04
1473.4
830.633
323.029
-51.6234
-316.218
-502.01
-635.501
-731.584
-797.749
-838.751
-858.683
-861.398
-850.328
-828.297
-797.456
-759.358
-715.15
-665.885
-612.799
-557.405
-501.352
-446.238
-393.77
-345.405
-301.605
-262.709
-229.075
-200.456
-176.561
-156.955
-141.102
-128.442
-118.424
-110.539
-104.335
-99.431
-95.5199
-92.3609
-89.7713
-87.6155
-85.7955
-84.2418
-82.9048
-81.7487
-80.7468
-79.8791
-79.13
-78.4879
-77.9443
-77.4938
-77.1331
-76.8609
-76.6765
-76.5799
-76.5703
-76.6458
-76.803
-77.0358
-77.3357
-77.6904
-78.0842
-78.4973
-78.9057
-79.2808
-79.5945
-79.8337
-79.9446
-7841.09
-7346.71
-6689.81
-5970.89
-5180.75
-4424.95
-3733.37
-3121.71
-2593.25
-2141.62
-1756.84
-1429.95
-1154.78
-927.633
-747.18
-614.449
-531.109
-495.919
-501.644
-534.322
-580.409
-628.929
-673.144
-709.08
-734.374
-747.491
-747.433
-733.69
-706.261
-665.637
-613.349
-552.703
-488.725
-426.754
-370.631
-321.911
-280.386
-245.113
-215.125
-189.51
-167.887
-149.845
-134.879
-122.616
-112.713
-104.816
-98.5903
-93.7295
-89.9594
-87.0457
-84.7942
-83.0489
-81.687
-80.6137
-79.7567
-79.0617
-78.4883
-78.0075
-77.5989
-77.2494
-76.9514
-76.7019
-76.5011
-76.3515
-76.2565
-76.2198
-76.2445
-76.3325
-76.4834
-76.6947
-76.9604
-77.2716
-77.6155
-77.9757
-78.3317
-78.6595
-78.9311
-79.116
-79.1916
-79.1386
-2016.05
-2119.06
-2281.53
-2490.02
-2715.92
-2924.73
-3094.35
-3213.44
-3281.55
-3305.45
-3294.78
-3258.45
-3203.4
-3134.92
-3057
-2971.95
-2879.48
-2775.92
-2654.67
-2509.9
-2338.65
-2143.94
-1932.96
-1713.66
-1491.56
-1269.96
-1051.34
-838.392
-634.522
-444.358
-273.871
-129.478
-17.4846
58.6417
100.678
115.347
111.424
96.7821
77.0793
55.7933
35.1171
16.2029
-0.477827
-14.7262
-26.6888
-36.6092
-44.7549
-51.3897
-56.7616
-61.0868
-64.5496
-67.3041
-69.4772
-71.1722
-72.4734
-73.4511
-74.1643
-74.6642
-74.9957
-75.1989
-75.3092
-75.3582
-75.3734
-75.3783
-75.3925
-75.4315
-75.5067
-75.6254
-75.7909
-76.0023
-76.2546
-76.5387
-76.8413
-77.1453
-77.4301
-77.6714
-77.8422
-77.9124
-77.8519
-77.6674
-2346.35
-2176.6
-1935.27
-1629.76
-1255.79
-870.652
-513.363
-208.437
38.0805
232.675
386.355
509.357
609.063
689.93
753.847
801.533
833.127
849.116
850.602
839.543
818.653
790.033
755.918
717.647
675.956
631.492
584.684
535.98
485.759
434.37
381.623
327.428
273.297
221.801
175.631
136.35
104.019
77.6494
55.926
37.7402
22.0364
8.15672
-4.36101
-15.8632
-26.4278
-35.9833
-44.3022
-51.3489
-57.2945
-62.1985
-66.1431
-69.2399
-71.6045
-73.3484
-74.5756
-75.3806
-75.8488
-76.0564
-76.0709
-75.9513
-75.7483
-75.5044
-75.2542
-75.0249
-74.8369
-74.7043
-74.6356
-74.6342
-74.6991
-74.8249
-75.0025
-75.2192
-75.4585
-75.7008
-75.9233
-76.1008
-76.2055
-76.2077
-76.0731
-75.8156
4829.81
4717.42
4588.93
4448.76
4276.45
4101.18
3935.65
3788.87
3665.58
3565.35
3484.31
3416.48
3354
3289.38
3215.04
3123.9
3010.14
2870.77
2706.02
2519.1
2315.63
2102.34
1885.8
1671.86
1465.57
1269.18
1085.32
915.48
760.512
620.239
494.002
381.348
282.195
196.746
124.966
66.3587
19.8413
-15.9647
-42.3888
-60.8174
-72.7302
-79.75
-83.2048
-84.326
-84.1201
-83.3149
-82.5009
-81.9045
-81.471
-81.2253
-81.1409
-81.1404
-81.135
-81.0474
-80.8248
-80.443
-79.9041
-79.2311
-78.4611
-77.6382
-76.807
-76.0082
-75.275
-74.6319
-74.0946
-73.6711
-73.3625
-73.1649
-73.0702
-73.0669
-73.1408
-73.275
-73.4501
-73.6442
-73.833
-73.99
-74.0873
-74.0964
-73.9832
-73.7588
9849.55
9718.11
9525.31
9203.57
8731.31
8146.65
7493.35
6799.63
6079.59
5339.58
4585.96
3828.34
3081.18
2364.74
1702.51
1115.07
615.091
205.51
-117.636
-361.325
-534.543
-647.165
-709.471
-731.704
-723.482
-693.364
-648.603
-595.152
-537.841
-480.394
-425.33
-374.372
-328.55
-288.36
-253.895
-224.998
-201.244
-182.036
-166.85
-155.051
-145.929
-138.823
-133.271
-128.78
-124.956
-121.544
-118.389
-115.397
-112.509
-109.687
-106.897
-104.11
-101.3
-98.4526
-95.5693
-92.672
-89.8012
-87.0104
-84.3568
-81.8928
-79.6588
-77.6803
-75.9681
-74.5211
-73.3291
-72.3761
-71.6425
-71.1066
-70.746
-70.538
-70.4597
-70.4874
-70.5967
-70.7623
-70.9578
-71.1561
-71.3297
-71.4521
-71.4926
-71.459
-13412.8
-12634.4
-11632.7
-10603.9
-9537.52
-8567.29
-7699.53
-6927.52
-6243.56
-5640.09
-5110.7
-4648.55
-4245.74
-3893.03
-3580.38
-3299.36
-3044.37
-2811.79
-2598.74
-2403.7
-2223.81
-2055.47
-1895.3
-1740.43
-1588.96
-1440.52
-1295.83
-1156.31
-1023.69
-899.711
-785.469
-681.915
-589.428
-507.946
-437.08
-376.2
-324.538
-281.271
-245.562
-216.695
-193.97
-176.398
-163.124
-153.309
-146.143
-140.847
-136.695
-133.077
-129.53
-125.766
-121.666
-117.24
-112.564
-107.751
-102.911
-98.1528
-93.5845
-89.2945
-85.3632
-81.84
-78.7447
-76.0718
-73.7987
-71.8961
-70.3332
-69.0792
-68.1038
-67.3775
-66.8727
-66.5624
-66.4209
-66.4227
-66.5427
-66.7558
-67.0374
-67.3639
-67.7121
-68.0616
-68.3832
-68.6899
-3031.98
-3242.82
-3501.33
-3754.32
-4001.74
-4215.76
-4396.57
-4536.88
-4618.98
-4626.88
-4555.28
-4410.32
-4204.46
-3950.15
-3655.67
-3324.97
-2960.87
-2569.15
-2160.73
-1751.18
-1359.94
-1006.47
-706.022
-465.566
-285.044
-159.214
-79.6576
-36.6864
-20.8727
-23.9088
-38.9256
-60.5614
-84.8533
-109.027
-131.26
-150.452
-166.037
-177.834
-185.943
-190.652
-192.231
-190.992
-187.85
-183.22
-177.59
-171.527
-165.445
-159.567
-153.965
-148.581
-143.256
-137.739
-131.742
-125.02
-117.511
-109.44
-101.279
-93.5694
-86.7367
-81.0095
-76.3681
-72.6627
-69.7114
-67.3558
-65.4784
-63.9978
-62.8569
-62.0125
-61.43
-61.0785
-60.9291
-60.9544
-61.1284
-61.427
-61.8292
-62.3174
-62.8756
-63.4951
-64.1391
-64.8403
4396.68
4462.37
4600.56
4785.25
4995.85
5174.64
5291.07
5331.52
5293.49
5181.27
5001.43
4763.8
4480.87
4167.04
3837.37
3499.94
3161.05
2820.52
2475.14
2122.49
1763.73
1404.65
1054.6
724.357
425.047
165.216
-50.3774
-220.558
-347.099
-433.991
-486.7
-511.428
-514.527
-501.974
-478.987
-449.834
-417.854
-385.587
-354.921
-327.087
-302.429
-281.08
-262.463
-245.922
-231.158
-217.713
-205.041
-192.637
-180.012
-166.794
-152.904
-138.561
-124.213
-110.478
-98.0165
-87.3545
-78.6926
-71.9394
-66.8779
-63.1923
-60.5468
-58.6312
-57.2054
-56.1082
-55.2461
-54.5726
-54.0683
-53.7256
-53.5394
-53.5029
-53.6058
-53.8356
-54.1789
-54.6243
-55.1633
-55.7938
-56.5112
-57.3296
-58.1918
-59.2119
3906.54
3755.79
3540.17
3228.66
2787.19
2245.65
1628.72
965.676
285.902
-380.862
-998.132
-1524.18
-1919.17
-2156.89
-2235.73
-2177.6
-2017.87
-1793.41
-1534.86
-1265.26
-1001.72
-756.988
-540.278
-357.42
-210.618
-98.7834
-18.6039
34.1508
63.6904
73.827
67.8141
48.2634
17.5826
-21.3059
-64.7543
-108.907
-150.471
-187.196
-217.849
-242.14
-260.419
-272.645
-278.911
-280.003
-276.223
-267.733
-254.83
-237.989
-217.899
-195.466
-171.759
-147.945
-125.196
-104.575
-86.8992
-72.6366
-61.8561
-54.2796
-49.3851
-46.5241
-45.044
-44.3928
-44.1745
-44.1484
-44.1947
-44.2713
-44.3762
-44.522
-44.7254
-44.9935
-45.3242
-45.7099
-46.1414
-46.6096
-47.1066
-47.636
-48.1892
-48.7998
-49.3905
-50.1439
-8380.03
-8121.89
-7785.26
-7367.5
-6868.09
-6319.09
-5726.79
-5091.38
-4410.52
-3679.28
-2894.4
-2064.98
-1221.44
-416.822
287.042
840.954
1224.65
1449.54
1547.09
1552.78
1495.9
1396.95
1269.84
1125.03
971.409
815.833
662.654
514.227
372.552
240.649
119.669
10.0637
-88.3986
-174.961
-247.83
-305.731
-348.818
-378.512
-396.886
-406.097
-407.858
-403.209
-392.805
-377.905
-359.316
-337.348
-312.435
-285.077
-255.871
-225.547
-194.96
-165.065
-136.855
-111.283
-89.1587
-71.0387
-57.1222
-47.1998
-40.698
-36.828
-34.7796
-33.8738
-33.6281
-33.7423
-34.05
-34.4664
-34.9476
-35.4145
-35.9152
-36.4223
-36.9041
-37.3223
-37.6756
-37.9488
-38.1306
-38.2348
-38.2544
-38.231
-38.0723
-38.0043
5229.74
5236.66
5241.92
5219.41
5136.15
5019.2
4908.11
4809.36
4702.69
4570.77
4400.47
4177.93
3885.92
3507
3035.93
2490.62
1910.71
1345.32
842.184
440.832
165.505
18.4447
-24.9272
-14.5998
-6.54331
-39.8448
-122.024
-232.992
-336.622
-397.59
-408.416
-394.388
-383.202
-382.379
-386.341
-389.579
-389.708
-386.07
-378.643
-367.735
-354.117
-338.684
-322.084
-304.096
-284.725
-264.04
-242.16
-219.284
-195.71
-171.852
-148.229
-125.438
-104.103
-84.8173
-68.068
-54.178
-43.2261
-35.0817
-29.4193
-25.8019
-23.766
-22.8796
-22.8048
-23.2751
-24.0927
-25.1145
-26.2328
-27.4106
-28.4976
-29.4246
-30.1318
-30.5776
-30.6989
-30.4779
-29.916
-29.0495
-27.9246
-26.6275
-25.2369
-23.8886
3149.61
2827.08
2338.22
1809.63
1289.89
950.002
678.627
373.243
71.6978
-174.69
-385.215
-597.527
-814.45
-1012.16
-1171.6
-1289.85
-1376.65
-1446.05
-1505.44
-1548.75
-1560.77
-1530.73
-1461.6
-1365.99
-1260.49
-1157.33
-1061.15
-970.626
-882.575
-796.576
-717.391
-650.029
-594.065
-545.879
-502.475
-462.627
-426.171
-393.041
-363.097
-335.817
-310.643
-287.135
-264.873
-243.496
-222.692
-202.294
-182.247
-162.588
-143.435
-124.967
-107.406
-90.9989
-75.9907
-62.5972
-50.9799
-41.2267
-33.3684
-27.3101
-22.8884
-19.9137
-18.1686
-17.442
-17.5156
-18.1984
-19.3179
-20.713
-22.232
-23.73
-25.0635
-26.1017
-26.7302
-26.8574
-26.4243
-25.41
-23.8459
-21.8072
-19.4118
-16.8023
-14.2239
-11.8124
-5545.6
-5719.45
-5990.84
-6103.37
-5835.58
-5343.2
-5014.86
-4895.85
-4791.87
-4673.29
-4628.59
-4639.19
-4591.76
-4394.98
-4026.35
-3523.62
-2959.51
-2410.55
-1937.62
-1562.12
-1272.05
-1045.29
-863.873
-717.035
-597.9
-500.908
-421.347
-355.805
-302.126
-259.05
-226.024
-202.572
-187.473
-178.92
-175.022
-173.976
-174.247
-174.661
-174.279
-172.862
-170.095
-165.803
-159.972
-152.765
-144.39
-135.058
-124.994
-114.439
-103.643
-92.85
-82.295
-72.1923
-62.7302
-54.0641
-46.3137
-39.5572
-33.8035
-29.0721
-25.3405
-22.5499
-20.6196
-19.4524
-18.9434
-18.9612
-19.3823
-20.0723
-20.8921
-21.7015
-22.3638
-22.752
-22.756
-22.292
-21.312
-19.8105
-17.8314
-15.4668
-12.8505
-10.1477
-7.55845
-5.23167
-2448.84
-2058.72
-1638.65
-1280.14
-802.122
-474.756
-545.013
-915.194
-1259.99
-1383.41
-1279.12
-1015.31
-682.336
-373.805
-158.534
-58.5325
-48.9815
-84.5836
-125.517
-149.526
-151.735
-135.668
-108.003
-75.9201
-45.5112
-20.486
-1.95608
10.3872
16.4922
16.6849
12.0968
4.11371
-6.32209
-18.8137
-32.904
-48.0385
-62.9548
-76.6725
-88.4599
-97.6355
-104.078
-107.87
-109.21
-108.394
-105.772
-101.702
-96.5377
-90.6059
-84.1988
-77.5633
-70.9018
-64.3786
-58.1269
-52.2507
-46.8282
-41.9126
-37.5346
-33.7071
-30.4261
-27.6728
-25.4153
-23.6109
-22.2073
-21.1434
-20.351
-19.7555
-19.2777
-18.8363
-18.3514
-17.7486
-16.9647
-15.9547
-14.697
-13.1895
-11.4839
-9.63932
-7.74953
-5.92193
-4.25845
-2.85348
5728.96
5682.52
5606.9
5462.72
5186.78
4734.93
4120.72
3441.95
2918.14
2809.13
3137.22
3614.25
3915.06
3868.72
3513.65
3063.44
2697.57
2420.12
2137.82
1805.6
1444.81
1090.64
765.649
483.417
249.776
61.5637
-86.6961
-195.064
-261.547
-290.953
-293.778
-283.52
-268.627
-252.406
-236.39
-221.545
-208.733
-197.667
-187.423
-177.11
-166.293
-154.995
-143.487
-132.091
-121.08
-110.643
-100.894
-91.8789
-83.6019
-76.0388
-69.1514
-62.8955
-57.2256
-52.0981
-47.4712
-43.3059
-39.5659
-36.2172
-33.2272
-30.5643
-28.1969
-26.0931
-24.2195
-22.5414
-21.0226
-19.6252
-18.311
-17.0424
-15.7843
-14.5065
-13.186
-11.8096
-10.3751
-8.89306
-7.38659
-5.88813
-4.43656
-3.07228
-1.83331
-0.759301
1004.41
1053.9
1141.72
1248.59
1366.26
1439.66
1481.84
1488.62
1399.47
1163.76
840.212
542.247
329.427
191.065
101.844
49.8886
22.8243
0.541877
-32.1044
-75.0772
-117.683
-150.16
-168.664
-173.369
-165.557
-147.003
-121.606
-96.1183
-79.3971
-83.005
-119.198
-187.94
-274.583
-352.965
-400.778
-410.351
-388.6
-349.496
-305.381
-263.287
-226.177
-194.498
-167.86
-145.644
-127.161
-111.75
-98.8314
-87.9329
-78.6811
-70.782
-64.002
-58.152
-53.0771
-48.6494
-44.7619
-41.3245
-38.2613
-35.5076
-33.0087
-30.7181
-28.5969
-26.6124
-24.7377
-22.9498
-21.2294
-19.5598
-17.9264
-16.317
-14.7221
-13.1357
-11.5567
-9.98924
-8.4428
-6.93164
-5.47328
-4.08604
-2.78689
-1.5896
-0.504219
0.464372
-4255.68
-4209.93
-4118.17
-3947.89
-3685.9
-3368.14
-3018.93
-2648.88
-2262.37
-1864.8
-1465.88
-1079.29
-720.532
-404.411
-142.369
57.8555
192.981
265.69
285.967
271.013
241.776
216.753
207.714
216.875
240.134
270.407
300.464
324.663
339.228
342.495
333.803
315.195
289.548
259.806
228.564
197.762
169.3
144.251
122.928
105.177
90.5873
78.6327
68.77
60.4953
53.3765
47.0637
41.2864
35.8409
30.5778
25.3914
20.213
15.0083
9.77523
4.54345
-0.627805
-5.65274
-10.4242
-14.8207
-18.7144
-21.9793
-24.4971
-26.1718
-26.9517
-26.8624
-26.0405
-24.7606
-23.4139
-22.4082
-22.0208
-22.2904
-23.0179
-23.8718
-24.5253
-24.7557
-24.5043
-23.8925
-23.1268
-22.4738
-22.1225
-22.1544
-357.626
-601.679
-923.393
-1305.99
-1782.25
-2317.48
-2891.53
-3473.17
-4028.07
-4527.32
-4944.81
-5256.12
-5442.36
-5494.19
-5412.57
-5206.73
-4892.89
-4493.1
-4034.2
-3546.03
-3057.35
-2589.96
-2158.07
-1768.04
-1420.07
-1112.23
-841.628
-605.85
-403.568
-234.16
-96.7467
10.7631
90.7633
146.77
182.523
201.855
208.574
206.173
197.606
185.203
170.688
155.267
139.739
124.601
110.138
96.4905
83.7024
71.7536
60.5853
50.1198
40.2772
30.9886
22.2069
13.9125
6.11595
-1.14358
-7.80265
-13.7803
-18.9859
-23.3255
-26.7001
-29.0327
-30.271
-30.4109
-29.5317
-27.8295
-25.6278
-23.3339
-21.3404
-19.9093
-19.1037
-18.7991
-18.7602
-18.748
-18.6229
-18.4022
-18.2251
-18.2567
-18.534
-19.1316
-7385.2
-6826.67
-6074.34
-5226.96
-4241.05
-3269.05
-2371.41
-1582.13
-908.694
-346.502
105.575
444.483
669.294
785.703
805.44
745.013
624.327
465.408
290.432
119.002
-34.3121
-161.064
-258.466
-327.469
-371.101
-393.217
-397.731
-388.3
-367.876
-338.738
-302.683
-261.818
-217.979
-172.859
-128.156
-85.4965
-46.2823
-11.611
17.7827
41.5458
59.6772
72.4679
80.4247
84.1893
84.4609
81.9321
77.2428
70.9524
63.5291
55.3533
46.7282
37.8954
29.0513
20.3617
11.9741
4.0262
-3.3496
-10.0241
-15.8731
-20.7786
-24.627
-27.3233
-28.7937
-29.0093
-28.012
-25.9474
-23.0864
-19.8142
-16.5705
-13.7557
-11.6386
-10.3108
-9.70621
-9.67015
-10.044
-10.7192
-11.6356
-12.756
-14.0715
-15.5084
2289.74
2410.13
2556.94
2677.49
2787.57
2866.82
2932.01
2992.23
3044.55
3078.19
3082.11
3049.27
2977.22
2866.55
2720.63
2546.14
2351.98
2147.75
1942.26
1742.66
1554.06
1379.57
1220.87
1078.35
951.486
838.927
739.028
650.428
571.834
502.114
440.365
385.888
338.15
296.716
261.165
231.026
205.741
184.673
167.135
152.429
139.895
128.945
119.089
109.945
101.234
92.7625
84.4079
76.0972
67.7934
59.4858
51.1843
42.9169
34.7295
26.686
18.8687
11.3779
4.32996
-2.14669
-7.92011
-12.8616
-16.8422
-19.7484
-21.4963
-22.0502
-21.4389
-19.7827
-17.3077
-14.3395
-11.2641
-8.47365
-6.2884
-4.89041
-4.32779
-4.52736
-5.33907
-6.5883
-8.11576
-9.79908
-11.549
-13.3175
9705.49
9418.63
9055.25
8570.87
7867.71
7011.87
6058.43
5077.23
4135.72
3282.09
2548.34
1948.17
1480.11
1130.52
879.108
705.665
593.791
530.205
502.599
498.637
506.697
517.106
523.019
520.766
509.67
491.081
466.753
438.842
409.048
378.273
347.011
315.645
284.663
254.701
226.459
200.585
177.573
157.695
140.984
127.255
116.157
107.234
99.9836
93.9063
88.553
83.5517
78.62
73.5627
68.261
62.6571
56.7408
50.5376
44.1012
37.5083
30.8556
24.2569
17.841
11.7466
6.11972
1.10854
-3.15201
-6.55857
-9.018
-10.5023
-11.0344
-10.7086
-9.69671
-8.2393
-6.61992
-5.12409
-3.99296
-3.38416
-3.35527
-3.87294
-4.84298
-6.14668
-7.66841
-9.31369
-11.0053
-12.7126
-2416.63
-2286.88
-2097.16
-1845.17
-1540.33
-1214.36
-900.776
-623.396
-382.954
-162.254
53.6111
261.057
440.828
575.596
662.644
710.842
730.716
729.273
710.302
676.073
628.368
569.209
501.939
430.446
359.012
291.473
230.781
178.028
133.203
95.8482
65.1486
40.2593
20.4919
5.36522
-5.42852
-12.103
-14.8695
-14.0126
-9.93473
-3.16644
5.64302
15.7463
26.3324
36.5864
45.7761
53.3354
58.9159
62.3943
63.8354
63.435
61.4572
58.1876
53.9054
48.8715
43.3248
37.4829
31.5439
25.69
20.0919
14.9069
10.2681
6.27239
2.96423
0.388431
-1.46826
-2.67008
-3.32948
-3.59801
-3.64897
-3.65403
-3.75926
-4.06676
-4.62721
-5.44442
-6.48819
-7.70923
-9.05053
-10.4616
-11.8947
-13.3438
-2736.88
-2673.43
-2581.77
-2440.7
-2239.28
-1976.66
-1662.44
-1314.93
-956.127
-607.848
-290.389
-23.693
174.829
296.431
344.8
333.24
278.372
195.327
96.3887
-8.28998
-111.943
-209.749
-298.479
-375.693
-439.161
-486.889
-518.059
-532.994
-532.986
-520.212
-497.412
-467.384
-432.512
-394.53
-354.524
-313.121
-270.742
-227.811
-184.873
-142.638
-101.99
-63.9459
-29.5724
0.146127
24.4825
43.1172
56.1978
64.296
68.271
69.1034
67.6481
64.5645
60.3219
55.2635
49.6664
43.7686
37.778
31.8706
26.1963
20.8843
16.0371
11.7222
7.97701
4.81574
2.21769
0.133378
-1.51124
-2.80815
-3.85788
-4.75865
-5.59602
-6.4354
-7.31902
-8.26709
-9.28197
-10.3526
-11.4575
-12.5779
-13.6947
-14.8234
2731.84
2549.33
2319.77
2042.1
1719.35
1371.72
1014.22
660.834
321.353
1.01537
-296.016
-566.25
-806.981
-1015.56
-1188.84
-1323.17
-1415.98
-1467.72
-1481.32
-1460.74
-1409.32
-1332.36
-1236.09
-1126.63
-1010.7
-894.853
-784.521
-684.562
-597.605
-524.151
-463.795
-415.58
-377.726
-347.629
-322.207
-298.367
-273.57
-246.222
-215.658
-181.95
-145.83
-108.63
-72.0195
-37.665
-6.94289
19.1913
40.0948
55.1661
64.4555
68.5586
68.3924
65.0547
59.5914
52.9611
45.9644
39.0653
32.5389
26.4081
20.737
15.6975
11.2941
7.47531
4.18725
1.37815
-1.00286
-3.00824
-4.6932
-6.11511
-7.33141
-8.39662
-9.35902
-10.258
-11.1226
-11.9722
-12.8165
-13.6564
-14.4828
-15.2912
-16.084
-16.8889
-7322.34
-6769.33
-6014.92
-5176.85
-4259.43
-3379.94
-2566.4
-1834.21
-1191.94
-640.92
-178.906
197.917
494.694
717.754
874.922
975.625
1029.24
1044.05
1028.78
991.333
937.907
873.862
803.224
727.702
646.924
559.393
463.513
360.632
255.046
151.943
55.2931
-32.7149
-110.821
-177.876
-232.775
-274.717
-303.341
-318.795
-321.779
-313.618
-296.3
-272.339
-244.248
-214.319
-184.26
-155.262
-128.23
-103.635
-82.0087
-63.7578
-48.8206
-36.8383
-27.3518
-20.0298
-14.5883
-10.7483
-8.22941
-6.65315
-5.79289
-5.60313
-5.92652
-6.59107
-7.45992
-8.4297
-9.42624
-10.4005
-11.3239
-12.1839
-12.9794
-13.7162
-14.4041
-15.0531
-15.6724
-16.269
-16.8469
-17.4044
-17.9306
-18.4247
-18.9053
-19.4025
8472.09
8352.07
8186.44
7933.29
7563.88
7126.67
6634.21
6099.09
5544.86
4994.55
4464.98
3963.55
3491.03
3044.54
2618.58
2206.19
1799.41
1390.11
972.397
546.407
118.478
-297.014
-680.663
-1012.77
-1276.45
-1458.07
-1545.45
-1533.97
-1438.12
-1290.25
-1126.28
-970.52
-832.412
-712.723
-609.549
-520.71
-444.124
-377.865
-320.375
-270.616
-227.95
-191.879
-161.932
-137.301
-116.988
-100.033
-85.8034
-73.5681
-63.0004
-53.8391
-46.045
-39.5657
-34.2841
-30.0465
-26.7115
-24.1235
-22.1481
-20.6688
-19.594
-18.8535
-18.386
-18.1382
-18.0633
-18.1205
-18.2748
-18.4969
-18.7638
-19.058
-19.3668
-19.6818
-19.9973
-20.3093
-20.615
-20.9125
-21.1989
-21.4668
-21.7006
-21.8984
-22.0918
-22.303
-7627.09
-7457.81
-7204.77
-6864.87
-6436.62
-5979.11
-5520.44
-5076.63
-4652.36
-4248.96
-3865.91
-3500.89
-3150.86
-2813.45
-2487.49
-2173.18
-1872.55
-1589.22
-1327.26
-1088.67
-874.215
-683.165
-512.849
-360.061
-222.692
-99.1702
10.7296
104.579
178.112
226.287
248.838
250.241
237.171
215.578
189.43
161.086
132.066
103.494
76.2353
50.9302
28.0331
7.92263
-9.16006
-23.1725
-34.1612
-42.2714
-47.5356
-50.3911
-51.2623
-50.6154
-48.9294
-46.6275
-44.0418
-41.4092
-38.8862
-36.5672
-34.5013
-32.7061
-31.1788
-29.9043
-28.8597
-28.0187
-27.354
-26.8393
-26.4497
-26.1631
-25.96
-25.8234
-25.7388
-25.6941
-25.6787
-25.6834
-25.7003
-25.7228
-25.744
-25.7521
-25.728
-25.668
-25.6115
-25.5611
-3791.36
-3563.12
-3266.76
-2981.09
-2704.69
-2462.89
-2230.62
-1995.39
-1761.13
-1536.47
-1327.68
-1136.89
-963.014
-803.381
-653.931
-509.656
-366.42
-222.187
-77.8161
60.1076
182.595
280.204
345.58
374.872
368.939
333.093
275.408
204.851
129.341
55.9148
-10.3583
-65.7243
-108.299
-138.256
-157.079
-166.511
-168.29
-163.556
-153.744
-140.534
-125.693
-110.906
-97.458
-86.02
-76.8043
-69.6762
-64.2507
-60.1282
-56.9203
-54.3136
-52.083
-50.0815
-48.2222
-46.4603
-44.7783
-43.1752
-41.6586
-40.2393
-38.9276
-37.7309
-36.653
-35.6938
-34.8496
-34.114
-33.4784
-32.9331
-32.4674
-32.0707
-31.7326
-31.4429
-31.1917
-30.9693
-30.767
-30.5769
-30.3903
-30.1937
-29.967
-29.7046
-29.4456
-29.1596
16630.9
16449
16191.1
15744.2
15057.3
14210.4
13247.1
12196.4
11079.8
9916.43
8728.58
7543.06
6391.03
5305.57
4315.07
3438.36
2680.95
2036.87
1494.05
1038.83
659.357
346.572
93.4328
-106.415
-258.918
-369.655
-444.19
-487.431
-503.288
-496.496
-472.305
-437.01
-396.604
-355.8
-317.779
-284.128
-254.807
-229.359
-206.911
-186.664
-168.146
-151.237
-136.017
-122.579
-110.908
-100.864
-92.2368
-84.8098
-78.3925
-72.8312
-68.003
-63.806
-60.1536
-56.9703
-54.1903
-51.7571
-49.6225
-47.7458
-46.0927
-44.635
-43.3487
-42.2135
-41.2119
-40.3285
-39.5495
-38.8624
-38.2556
-37.7181
-37.2397
-36.8106
-36.421
-36.0614
-35.7228
-35.3968
-35.0742
-34.7413
-34.3798
-33.9822
-33.5767
-33.0841
-10224.7
-10008
-9742.11
-9430.05
-9080.11
-8714.46
-8333.59
-7925.44
-7469.08
-6945.64
-6345.02
-5667.66
-4925.51
-4142.2
-3349.12
-2580.64
-1868.15
-1236.15
-700.984
-270.889
53.8837
280.073
419.28
486.267
497.334
467.934
411.48
338.459
257.628
177.954
106.368
46.5899
-0.681715
-36.4403
-62.3374
-80.1505
-91.5483
-98.0064
-100.785
-100.922
-99.2403
-96.3801
-92.8252
-88.9302
-84.9434
-81.0284
-77.2848
-73.7676
-70.502
-67.4939
-64.7381
-62.2228
-59.9327
-57.8508
-55.9602
-54.2442
-52.687
-51.2742
-49.9925
-48.8299
-47.7754
-46.8192
-45.9524
-45.1667
-44.4543
-43.808
-43.2207
-42.6853
-42.1948
-41.742
-41.3196
-40.9196
-40.5343
-40.1557
-39.775
-39.3802
-38.9581
-38.4998
-38.0106
-37.3415
-9317.31
-8970.77
-8541.24
-8096.14
-7616.54
-7170.77
-6763.74
-6388.08
-6037.12
-5707.12
-5395.72
-5098.38
-4811.95
-4535.91
-4269.05
-4007.71
-3744.83
-3475.21
-3196.19
-2907.87
-2613.13
-2317.33
-2027.06
-1749.04
-1489.44
-1252.92
-1041.82
-856.782
-697.971
-564.328
-453.735
-363.587
-291.384
-234.87
-191.673
-159.226
-135.104
-117.247
-104.002
-94.0993
-86.6003
-80.8284
-76.305
-72.693
-69.7538
-67.3168
-65.2585
-63.4883
-61.9391
-60.5609
-59.3163
-58.1777
-57.1244
-56.1418
-55.2192
-54.3495
-53.5274
-52.7497
-52.0141
-51.3189
-50.6629
-50.045
-49.4638
-48.9181
-48.4062
-47.9264
-47.4761
-47.0527
-46.6528
-46.2726
-45.9077
-45.5527
-45.2017
-44.8478
-44.4831
-44.0989
-43.6905
-43.2499
-42.7487
-41.9474
5887.75
5733.35
5512.41
5206.17
4794.7
4327.91
3844.92
3376.74
2942.89
2557.21
2235.98
1990.73
1811.54
1669.56
1534.18
1390.1
1236.62
1079.22
923.552
774.613
636.313
511.364
401.344
306.932
228.1
164.086
113.592
74.8229
46.0011
25.2768
10.8443
0.986356
-5.78454
-10.6278
-14.3782
-17.5979
-20.626
-23.64
-26.6995
-29.7967
-32.8817
-35.8847
-38.7342
-41.3699
-43.7461
-45.8355
-47.6278
-49.1269
-50.3484
-51.3154
-52.0551
-52.5967
-52.9703
-53.2045
-53.3259
-53.3575
-53.3186
-53.2246
-53.0876
-52.9172
-52.7208
-52.5045
-52.2736
-52.0324
-51.7851
-51.5348
-51.284
-51.0342
-50.7862
-50.5398
-50.2934
-50.0446
-49.7894
-49.5222
-49.2357
-48.9247
-48.5932
-48.2364
-47.7908
-46.9258
5958.94
5816.2
5663.05
5536.2
5415.92
5328.19
5249.01
5152.45
5026.28
4869.74
4688.39
4486.14
4261.48
4010.62
3737.93
3454.9
3173.92
2904.37
2652.31
2419.07
2202.83
1999.5
1804.22
1613.13
1424.75
1240.39
1063.19
896.7
743.712
606.818
488.037
387.475
303.903
235.038
178.67
132.748
95.4552
65.2419
40.8048
21.0702
5.16514
-7.61456
-17.8554
-26.0656
-32.5917
-37.7408
-41.7751
-44.9108
-47.3299
-49.2052
-50.6362
-51.7244
-52.5482
-53.1726
-53.6466
-54.0086
-54.2875
-54.5037
-54.6709
-54.798
-54.8904
-54.9522
-54.9863
-54.9956
-54.9826
-54.95
-54.9005
-54.8364
-54.7596
-54.6715
-54.5725
-54.4622
-54.3383
-54.1964
-54.0296
-53.8343
-53.6208
-53.3883
-53.0511
-52.211
3251.76
3188.52
3097.07
2970.44
2807.11
2648.38
2507.23
2382.2
2266.64
2150.88
2022.49
1869.7
1686.2
1476.18
1252.51
1029.36
817.881
626.518
460.888
324.162
215.961
133.092
71.014
26.0961
-1.92306
-9.68328
5.14701
37.1736
72.9473
99.9115
112.66
112.737
103.736
89.1244
71.3435
52.2171
33.1126
15.3014
-0.471771
-14.0067
-25.2383
-34.2543
-41.2426
-46.4327
-50.1629
-52.7426
-54.4494
-55.5246
-56.16
-56.4792
-56.6207
-56.6509
-56.5267
-56.4069
-56.3284
-56.3321
-56.4417
-56.6508
-56.9305
-57.2426
-57.553
-57.8381
-58.085
-58.2894
-58.4526
-58.5793
-58.6755
-58.7477
-58.8018
-58.8423
-58.8723
-58.8934
-58.9045
-58.9012
-58.8755
-58.8221
-58.751
-58.6624
-58.4586
-57.7067
-9585.08
-9345.24
-9079.4
-8793.26
-8462.03
-8065.33
-7577.55
-6993.08
-6325.6
-5601.79
-4855.03
-4119.19
-3420.27
-2772.02
-2180.19
-1649.32
-1186
-796.604
-486.747
-256.462
-99.4993
-4.62149
42.3147
56.0502
50.0504
34.7121
16.1218
-3.79091
-24.7608
-45.9941
-66.1346
-84.0148
-99.0205
-110.912
-119.449
-124.773
-127.253
-127.392
-125.578
-122.026
-117.119
-111.28
-104.929
-98.4505
-92.1787
-86.3703
-81.1959
-76.7274
-72.9678
-69.862
-67.311
-65.2577
-63.9495
-62.8849
-62.0716
-61.5229
-61.2193
-61.1206
-61.1712
-61.3186
-61.5195
-61.7414
-61.9621
-62.1692
-62.3575
-62.5266
-62.6793
-62.8199
-62.9531
-63.0832
-63.213
-63.344
-63.4748
-63.6
-63.7098
-63.7949
-63.8611
-63.9069
-63.8302
-63.1849
1840.63
1685.8
1461.01
1191.36
864.317
581.048
383.142
270.617
214.877
180.35
142.347
92.5067
34.5429
-21.7218
-65.8521
-90.7355
-94.849
-82.6724
-63.1743
-46.7043
-41.2527
-50.3114
-73.2981
-107.303
-148.708
-194.101
-240.841
-286.858
-329.881
-367.277
-396.669
-416.598
-426.511
-426.546
-417.659
-400.822
-377.324
-349.083
-317.982
-285.77
-253.99
-223.895
-196.426
-172.209
-151.589
-134.613
-121.082
-110.596
-102.612
-96.5352
-91.8083
-87.9215
-84.3419
-81.2242
-78.4661
-76.0412
-73.9729
-72.2765
-70.9343
-69.9012
-69.1179
-68.5308
-68.0944
-67.7742
-67.5461
-67.3936
-67.3057
-67.2754
-67.2975
-67.368
-67.4828
-67.6375
-67.8265
-68.0409
-68.2677
-68.4919
-68.7104
-68.9253
-69.067
-68.6594
-22.9574
-25.4333
-27.7726
-29.4485
-30.3526
-30.5491
-30.1813
-29.3948
-28.2694
-26.8332
-25.1474
-23.3471
-21.6106
-20.077
-18.8196
-17.8571
-17.1839
-16.7883
-16.6564
-16.7782
-17.1708
-17.7652
-18.5164
-19.3357
-20.1109
-20.7315
-21.1087
-21.198
-20.9849
-20.4962
-19.7631
-18.8332
-17.7551
-16.5764
-15.3422
-14.0935
-12.8652
-11.6846
-10.5717
-9.53958
-8.59595
-7.74374
-6.98231
-6.30836
-5.71681
-5.20159
-4.75621
-4.37427
-4.04971
-3.777
-3.55124
-3.3682
-3.22429
-3.11656
-3.0426
-3.00054
-2.98903
-3.0072
-3.05469
-3.13167
-3.23892
-3.37784
-3.55042
-3.75913
-4.00653
-4.29478
-4.62531
-4.99906
-5.41724
-5.8825
-6.39987
-6.97713
-7.62418
-8.35159
-9.16844
-10.0802
-11.0869
-12.1829
-13.3565
-14.592
-15.8704
-17.1715
-18.475
-19.7604
-21.0081
-22.1984
-23.3119
-24.3297
-25.2333
-26.0054
-26.6302
-27.0949
-27.3899
-27.5097
-27.4536
-27.2242
-26.8281
-26.2756
-25.5802
-24.7578
-23.8258
-22.8028
-21.7081
-20.5608
-19.3798
-18.1825
-16.9851
-15.8014
-14.6434
-13.5208
-12.4415
-11.4119
-10.4369
-9.52028
-8.66414
-7.86924
-7.1349
-6.45917
-5.83917
-5.27138
-4.75194
-4.27694
-3.84259
-3.44536
-3.08201
-2.74961
-2.44554
-2.16744
-1.91319
-1.68095
-1.46904
-1.27594
-1.10025
-0.940637
-0.795816
-0.664574
-0.545744
-0.438212
-0.340919
-0.252873
-0.173152
-0.100914
-0.0353836
0.0241435
0.0783046
0.127663
0.172699
0.213804
0.251273
0.285334
0.316341
0.344617
0.370388
0.393874
0.415304
0.434822
0.452581
0.468718
0.48336
0.49662
0.508608
0.519422
0.529159
0.537907
0.545753
0.552785
0.559089
0.564748
0.569838
0.57442
0.578545
0.582255
0.585593
0.588594