/*--------------------------------*- C++ -*----------------------------------*\
| =========                 |                                                 |
| \\      /  F ield         | OpenFOAM: The Open Source CFD Toolbox           |
|  \\    /   O peration     | Version:  2012                                  |
|   \\  /    A nd           | Website:  www.openfoam.com                      |
|    \\/     M anipulation  |                                                 |
\*---------------------------------------------------------------------------*/
FoamFile
{
    version     2.0;
    format      ascii;
    class       volVectorField;
    location    "0.92";
    object      U;
}
// * * * * * * * * * * * * * * * * * * * * * * * * * * * * * * * * * * * * * //

dimensions      [0 1 -1 0 0 0 0];


internalField   nonuniform List<vector> 
42400
(
(-4.22082 2.16736 7.42904e-17)
(-2.02088 -3.67936 1.07928e-16)
(12.1289 -18.6874 -1.10429e-16)
(27.7223 -35.7318 0)
(38.7319 -46.3506 0)
(42.7634 -50.3873 -7.08133e-20)
(40.9814 -49.0555 0)
(36.0169 -44.8491 8.31424e-20)
(30.1404 -40.0482 0)
(24.5857 -35.8744 8.12719e-20)
(19.7209 -32.6539 7.52232e-20)
(15.4903 -30.2397 -6.61467e-20)
(11.7219 -28.3314 -3.35132e-17)
(8.23679 -26.6097 3.41249e-17)
(4.90479 -24.788 -3.26498e-20)
(1.63124 -22.625 0)
(-1.61739 -19.9339 0)
(-4.81728 -16.6225 0)
(-7.90405 -12.7369 0)
(-10.7993 -8.42927 0)
(-13.4194 -3.88537 0)
(-15.6872 0.723185 3.15483e-21)
(-17.5229 5.24426 1.37716e-17)
(-18.8304 9.52983 1.37992e-18)
(-19.5024 13.4245 -1.55709e-17)
(-19.4714 16.7874 2.79732e-20)
(-18.7482 19.5322 3.23604e-20)
(-17.4178 21.6296 -7.22303e-20)
(-15.6068 23.0843 0)
(-13.4452 23.912 0)
(-11.0408 24.1235 -1.37602e-17)
(-8.4774 23.7164 1.3911e-17)
(-5.84709 22.7486 -9.36608e-20)
(-3.24733 21.2949 9.73295e-18)
(-0.770632 19.4543 -9.72355e-18)
(1.49817 17.3496 0)
(3.48336 15.0747 0)
(5.12903 12.737 0)
(6.41371 10.4469 0)
(7.3468 8.29191 3.69266e-18)
(7.94987 6.33267 -3.70784e-18)
(8.24913 4.61257 2.79084e-18)
(8.26811 3.16385 -4.34622e-19)
(8.02509 2.00975 -4.69141e-18)
(7.53539 1.16446 2.18009e-18)
(6.81694 0.628794 -1.97843e-18)
(5.8963 0.3855 4.05168e-18)
(4.8129 0.397015 -1.93321e-18)
(3.61961 0.609773 -1.35465e-19)
(2.3777 0.96292 2.03845e-18)
(1.14787 1.39098 -4.05934e-18)
(-0.0205802 1.84161 -2.59567e-19)
(-1.08623 2.28119 2.25871e-18)
(-2.01678 2.68005 -2.51825e-19)
(-2.79285 3.01518 0)
(-3.40882 3.27188 0)
(-3.87255 3.44593 0)
(-4.20605 3.54251 2.2423e-19)
(-4.43822 3.5756 2.17417e-19)
(-4.59768 3.56436 0)
(-4.70973 3.5268 3.19469e-18)
(-4.79364 3.47713 -3.34058e-18)
(-4.86207 3.42506 -3.02247e-18)
(-4.92208 3.37602 2.96639e-18)
(-4.97657 3.33209 0)
(-5.0258 3.29313 0)
(-5.0684 3.25768 -2.72836e-18)
(-5.10212 3.22361 2.66748e-18)
(-5.12417 3.18856 3.31609e-19)
(-5.13138 3.15008 0)
(-5.1202 3.10586 0)
(-5.08669 3.05369 3.0899e-19)
(-5.02636 2.9916 3.01965e-19)
(-4.93392 2.91777 0)
(-4.80272 2.83067 2.88425e-19)
(-4.62408 2.72879 2.21354e-18)
(-4.38754 2.6095 -2.14715e-18)
(-4.08205 2.46738 -5.37125e-19)
(-3.69172 2.29541 -2.06008e-18)
(-3.18195 2.0807 -2.07032e-18)
(-0.590533 1.57952 0)
(9.34952 1.42907 -1.06233e-16)
(17.1695 -7.13397 1.09115e-16)
(23.1798 -8.71892 0)
(20.7462 -9.86111 0)
(15.7335 -9.48185 -7.22485e-17)
(10.1828 -9.61468 7.40771e-17)
(5.15517 -10.7203 -8.42015e-20)
(0.598238 -12.5352 0)
(-3.7436 -14.7039 -8.29322e-20)
(-7.86896 -17.0035 -7.70952e-20)
(-11.653 -19.2282 2.64895e-17)
(-14.9782 -21.116 -5.55954e-18)
(-17.7054 -22.4074 -2.21675e-17)
(-19.573 -23.0293 -1.27202e-17)
(-20.3527 -23.0814 1.29514e-17)
(-20.0136 -22.7274 0)
(-18.7726 -22.0497 7.53812e-21)
(-16.9943 -21.0204 0)
(-15.0381 -19.6037 0)
(-13.1396 -17.8248 0)
(-11.3965 -15.7652 -1.12011e-17)
(-9.81246 -13.5259 -1.15045e-18)
(-8.35391 -11.1993 1.27283e-17)
(-6.98513 -8.85468 0)
(-5.6897 -6.54029 -1.47687e-19)
(-4.46516 -4.29565 -3.30413e-20)
(-3.31849 -2.1516 7.34909e-20)
(-2.25768 -0.128244 -1.08826e-17)
(-1.29732 1.75249 1.09825e-17)
(-0.456228 3.46203 -1.47192e-19)
(0.255325 4.97261 -1.18453e-19)
(0.833968 6.25482 -4.92068e-18)
(1.29687 7.27014 5.14522e-18)
(1.68358 7.9806 2.25629e-18)
(2.02402 8.34614 -2.37958e-18)
(2.33882 8.33718 0)
(2.64781 7.9845 -2.67809e-20)
(2.94615 7.3443 0)
(3.20468 6.47818 -1.00312e-19)
(3.39994 5.47936 1.76713e-18)
(3.50514 4.45299 -1.88894e-18)
(3.50405 3.48789 1.49509e-19)
(3.38417 2.64442 -1.45065e-19)
(3.13492 1.95783 2.16476e-22)
(2.74566 1.44798 -1.3949e-19)
(2.21311 1.12627 1.3788e-19)
(1.54891 0.993077 2.17226e-18)
(0.779021 1.03047 -2.16533e-18)
(-0.0629656 1.20263 0)
(-0.923987 1.4718 1.39875e-19)
(-1.75312 1.79921 2.62481e-19)
(-2.51211 2.14296 1.84681e-18)
(-3.17118 2.47203 -1.83443e-18)
(-3.71214 2.76483 -2.52581e-19)
(-4.13036 3.00772 3.6078e-18)
(-4.43315 3.19507 -4.04517e-18)
(-4.63746 3.32869 -2.2427e-19)
(-4.76567 3.4164 -2.17435e-19)
(-4.84041 3.46908 3.41545e-18)
(-4.88126 3.49772 -3.36175e-18)
(-4.90293 3.5117 1.98937e-19)
(-4.91495 3.5179 1.99162e-19)
(-4.92237 3.52056 0)
(-4.92687 3.52177 -2.60471e-18)
(-4.92781 3.52196 1.31126e-20)
(-4.92307 3.5205 3.20482e-18)
(-4.90956 3.51611 0)
(-4.88351 3.5071 -6.73434e-19)
(-4.8406 3.49163 3.34063e-19)
(-4.77594 3.4677 2.5835e-18)
(-4.68407 3.43324 -2.82534e-18)
(-4.55886 3.38609 -2.77199e-18)
(-4.39345 3.32389 2.70694e-18)
(-4.18022 3.24402 -5.86121e-19)
(-3.9106 3.14355 2.30798e-18)
(-3.57569 3.01903 -1.67056e-18)
(-3.16982 2.86459 5.3662e-19)
(-2.69793 2.66851 -2.68117e-18)
(-2.16607 2.42951 2.1222e-18)
(9.56996 -7.6942 8.0984e-18)
(10.7398 -7.23125 2.30091e-19)
(-4.4628 5.68718 -2.49249e-19)
(-22.2522 21.8841 2.2512e-19)
(-35.5761 34.0709 0)
(-44.5334 43.2808 1.87731e-17)
(-50.1089 50.1454 -3.58586e-17)
(-53.2616 55.3368 1.70337e-17)
(-54.5734 58.9994 -1.13269e-17)
(-54.0199 60.7444 3.44418e-18)
(-51.0774 59.8312 8.52404e-18)
(-45.0957 55.5801 1.24377e-19)
(-35.7291 47.7553 9.35743e-20)
(-23.3091 36.8566 2.14711e-18)
(-8.99203 24.0957 -2.19032e-18)
(5.38742 11.1692 9.10459e-20)
(17.8161 -0.238748 -2.85434e-18)
(26.8173 -8.9893 3.60897e-19)
(31.9218 -14.7488 2.59613e-18)
(33.6516 -17.8751 -7.98164e-20)
(33.0441 -19.0708 9.77814e-20)
(31.0766 -19.027 1.111e-19)
(28.4587 -18.2453 0)
(25.625 -17.0395 -2.40576e-19)
(22.8132 -15.5837 1.63619e-18)
(20.1382 -13.9683 -3.21882e-18)
(17.6459 -12.2405 1.56905e-18)
(15.3433 -10.4277 -1.22359e-18)
(13.2175 -8.55006 1.23803e-18)
(11.2447 -6.62574 4.49766e-19)
(9.39824 -4.6764 -9.12537e-19)
(7.65835 -2.73146 6.7831e-19)
(6.01922 -0.834271 -2.66698e-19)
(4.48407 0.949083 0)
(3.05854 2.53858 0)
(1.76269 3.86669 1.0169e-20)
(0.642876 4.89759 0)
(-0.250296 5.59555 -1.09458e-19)
(-0.8782 5.91532 1.72772e-18)
(-1.22351 5.83865 -3.7214e-18)
(-1.29786 5.39753 1.97974e-18)
(-1.16463 4.67586 0)
(-0.923793 3.79966 0)
(-0.692481 2.91228 2.21509e-18)
(-0.57113 2.1377 -2.07397e-18)
(-0.619278 1.55371 -1.61841e-19)
(-0.850016 1.18264 0)
(-1.2377 1.00517 0)
(-1.73197 0.985387 2.30463e-18)
(-2.27592 1.08632 -2.29402e-18)
(-2.82047 1.27314 -1.40067e-19)
(-3.32701 1.51387 0)
(-3.76982 1.78229 -2.39983e-18)
(-4.13427 2.05749 2.11686e-18)
(-4.41525 2.32302 -3.78227e-18)
(-4.61566 2.56689 3.99385e-18)
(-4.7447 2.78188 -3.56086e-18)
(-4.8157 2.96528 7.4356e-18)
(-4.84364 3.11826 -7.21396e-18)
(-4.84277 3.24451 4.83212e-20)
(-4.82487 3.3489 3.42254e-18)
(-4.79841 3.43625 3.29068e-18)
(-4.76845 3.51062 -3.43139e-18)
(-4.73709 3.57495 0)
(-4.70411 3.631 2.66746e-18)
(-4.66759 3.67954 -1.14391e-20)
(-4.62444 3.72052 -3.62984e-18)
(-4.57072 3.75328 0)
(-4.50186 3.77672 6.89135e-19)
(-4.41277 3.78935 2.37198e-18)
(-4.29788 3.78943 -2.3061e-18)
(-4.15124 3.77493 0)
(-3.96657 3.7436 0)
(-3.73744 3.69289 -3.04599e-19)
(-3.45759 3.62 2.97683e-19)
(-3.12128 3.52204 1.76951e-18)
(-2.72393 3.39637 -2.85752e-18)
(-2.26521 3.23942 0)
(-1.7579 3.04263 5.38917e-19)
(-1.22229 2.81507 2.14341e-18)
(-1.52608 -1.66849 -9.59769e-17)
(-1.15517 -7.98372 1.4121e-16)
(4.512 -15.4865 -7.12841e-17)
(8.50525 -23.9094 -6.70652e-17)
(11.2636 -28.0389 6.84008e-17)
(12.6357 -30.5741 0)
(12.6402 -31.6818 -1.09728e-16)
(10.8523 -30.8746 1.11902e-16)
(6.82563 -27.9818 -8.52205e-17)
(0.967282 -23.2411 8.70767e-17)
(-5.49701 -17.6141 -5.80276e-17)
(-11.0289 -12.4037 1.03642e-16)
(-14.5373 -8.57476 -7.70113e-17)
(-15.9211 -6.30916 5.24791e-17)
(-16.0643 -5.10004 -3.08715e-17)
(-16.2111 -4.30828 1.04707e-17)
(-17.1058 -3.68039 -3.34685e-18)
(-18.5972 -3.35064 1.10875e-17)
(-20.0697 -3.52249 -7.82934e-18)
(-20.9946 -4.25958 7.99821e-20)
(-21.1923 -5.47459 1.05947e-19)
(-20.7741 -7.00355 -1.689e-17)
(-19.9181 -8.68169 1.68249e-17)
(-18.7717 -10.3764 1.26591e-19)
(-17.4497 -11.9752 0)
(-16.0463 -13.3804 1.3033e-19)
(-14.6358 -14.5093 0)
(-13.2726 -15.2987 1.6953e-17)
(-11.9913 -15.7032 -9.2012e-19)
(-10.8131 -15.6945 -1.64635e-17)
(-9.75288 -15.2583 -1.46445e-17)
(-8.8268 -14.395 1.45729e-17)
(-8.05379 -13.1324 -1.7582e-19)
(-7.44109 -11.5372 -3.41184e-19)
(-6.97078 -9.70758 -9.96571e-18)
(-6.61104 -7.76659 1.02994e-17)
(-6.31989 -5.85196 0)
(-6.04326 -4.08123 6.95248e-18)
(-5.72526 -2.53549 -6.84495e-18)
(-5.32953 -1.28062 2.30706e-19)
(-4.84718 -0.35798 -2.80766e-19)
(-4.29206 0.230625 0)
(-3.70675 0.522447 0)
(-3.15567 0.590681 0)
(-2.70691 0.530629 -1.84597e-19)
(-2.41345 0.436604 2.96512e-18)
(-2.29859 0.380894 -2.79771e-18)
(-2.3521 0.403161 0)
(-2.53875 0.511219 0)
(-2.81007 0.692813 2.26884e-18)
(-3.11779 0.927719 -2.12274e-18)
(-3.42375 1.1943 2.11492e-18)
(-3.70164 1.47474 -1.5838e-18)
(-3.93617 1.75564 2.43822e-19)
(-4.12088 2.02741 -1.70217e-18)
(-4.25591 2.28352 2.16133e-18)
(-4.3459 2.51998 -3.68644e-18)
(-4.39822 2.73504 3.41666e-18)
(-4.42123 2.92875 0)
(-4.42298 3.10244 -2.12589e-19)
(-4.41014 3.2581 -3.34879e-18)
(-4.38751 3.39792 2.24371e-19)
(-4.35787 3.52382 6.60877e-18)
(-4.32216 3.63725 -6.06579e-18)
(-4.2797 3.73908 2.68169e-18)
(-4.22856 3.8296 2.98476e-18)
(-4.16581 3.90855 -2.19276e-18)
(-4.08775 3.97526 -3.56043e-19)
(-3.99004 4.02862 -2.79058e-18)
(-3.86786 4.06721 2.72411e-18)
(-3.71604 4.08934 -6.64762e-19)
(-3.52921 4.09305 -2.9391e-18)
(-3.30197 4.07616 2.54325e-18)
(-3.02924 4.03634 0)
(-2.70655 3.97119 -2.43941e-18)
(-2.33052 3.87841 5.79013e-19)
(-1.89912 3.75643 5.20401e-18)
(-1.41291 3.6043 -2.24704e-18)
(-0.88249 3.4175 2.18859e-18)
(-0.339329 3.19597 -2.14645e-18)
(-5.38013 4.71735 3.50851e-17)
(-1.64365 9.64051 0)
(5.56771 3.30566 0)
(12.0973 3.547 1.27819e-19)
(10.7227 4.39298 0)
(6.94081 7.24766 0)
(2.03865 10.3955 0)
(-3.04134 13.3339 6.10193e-19)
(-7.55115 15.7925 0)
(-10.76 17.4385 -3.44179e-19)
(-12.0605 17.9478 2.58956e-17)
(-11.2363 17.1452 -4.87538e-17)
(-8.61106 15.1296 2.22111e-17)
(-4.94169 12.2565 0)
(-1.09689 8.97931 5.83807e-21)
(2.28863 5.67279 -2.34982e-19)
(4.95976 2.56903 0)
(6.9048 -0.213506 9.45291e-18)
(8.1296 -2.61031 -2.00956e-17)
(8.65984 -4.58374 -1.23902e-18)
(8.58041 -6.18071 1.09297e-17)
(8.06862 -7.54691 2.26557e-19)
(7.35747 -8.84773 0)
(6.66398 -10.2047 -1.47384e-17)
(6.13859 -11.6671 1.57309e-17)
(5.84952 -13.2331 -1.61389e-17)
(5.80187 -14.8444 1.66649e-17)
(5.96257 -16.4283 1.6228e-17)
(6.29224 -17.8889 -1.61562e-17)
(6.75501 -19.1188 0)
(7.2838 -19.9852 -1.3378e-17)
(7.73942 -20.3224 1.35081e-17)
(7.93727 -19.9818 3.81788e-19)
(7.73713 -18.9171 -9.05741e-18)
(7.11041 -17.2312 9.46915e-18)
(6.13409 -15.1372 -1.90004e-19)
(4.94118 -12.8685 -6.34393e-20)
(3.66751 -10.6141 -5.56492e-18)
(2.4251 -8.49986 5.5903e-18)
(1.29995 -6.59972 4.30631e-18)
(0.344936 -4.95584 -2.0401e-19)
(-0.419048 -3.59125 -3.99568e-18)
(-0.994165 -2.50702 0)
(-1.40686 -1.68318 1.05285e-19)
(-1.70277 -1.07746 -2.37712e-18)
(-1.92992 -0.636307 5.26608e-18)
(-2.12774 -0.30234 -4.83836e-18)
(-2.32188 -0.0251561 2.23369e-18)
(-2.52325 0.231804 0)
(-2.73102 0.490042 1.11798e-19)
(-2.93714 0.75809 -2.03592e-18)
(-3.13171 1.03601 2.00103e-18)
(-3.30622 1.31949 -2.68108e-20)
(-3.4551 1.60287 -1.90097e-18)
(-3.57588 1.88073 1.40218e-18)
(-3.66879 2.14859 -1.80796e-18)
(-3.73599 2.40323 -1.97872e-18)
(-3.78074 2.64273 3.72478e-18)
(-3.80679 2.86618 -3.41746e-18)
(-3.81766 3.07352 3.57895e-18)
(-3.81626 3.2652 0)
(-3.80452 3.44188 -2.03298e-19)
(-3.78334 3.60423 -3.16056e-18)
(-3.75255 3.75274 2.71188e-18)
(-3.71098 3.88758 7.57039e-19)
(-3.65657 4.00858 0)
(-3.5865 4.11524 2.90288e-18)
(-3.49731 4.20669 -2.48439e-18)
(-3.38502 4.28174 -3.47988e-19)
(-3.24528 4.33893 -3.38594e-19)
(-3.07353 4.37654 6.6411e-19)
(-2.86516 4.39267 1.67817e-21)
(-2.61579 4.38529 -2.86703e-18)
(-2.32146 4.35234 2.48004e-18)
(-1.97899 4.29184 -3.01528e-19)
(-1.58619 4.20204 0)
(-1.14205 4.08185 -2.88145e-18)
(-0.646603 3.93142 2.23375e-18)
(-0.104765 3.75012 0)
(0.441133 3.52441 -2.10703e-18)
(-1.33111 0.380714 2.27213e-19)
(-8.42144 3.67797 -1.40329e-17)
(-19.3671 8.67386 1.6542e-17)
(-29.0561 11.5821 -3.5364e-17)
(-34.221 11.6976 1.87363e-17)
(-35.8796 9.98274 2.18187e-19)
(-35.0918 7.51744 2.34769e-17)
(-32.906 5.10279 -2.45516e-17)
(-30.0759 3.22273 -1.98111e-19)
(-26.9933 2.05019 1.47812e-19)
(-23.7682 1.54553 -2.62819e-17)
(-20.4039 1.57657 -2.63376e-17)
(-16.9502 2.02121 5.43915e-17)
(-13.5325 2.82482 -5.3212e-17)
(-10.3294 4.00625 1.06381e-16)
(-7.51702 5.61625 -5.33733e-17)
(-5.21333 7.68054 0)
(-3.43725 10.1573 0)
(-2.10865 12.9261 4.89394e-17)
(-1.09937 15.8031 -2.54419e-18)
(-0.275034 18.5398 -4.6836e-17)
(0.479929 20.9073 4.0065e-17)
(1.26225 22.7883 -7.71917e-17)
(2.12647 24.1558 3.66722e-17)
(3.06122 25.0218 2.81715e-17)
(4.01281 25.3766 -4.61535e-18)
(4.94344 25.2018 -2.50477e-17)
(5.87533 24.4458 5.10594e-20)
(6.91221 23.0156 -2.54812e-20)
(8.18384 20.7915 3.46901e-21)
(9.75408 17.7464 0)
(11.4647 14.0969 1.76634e-18)
(12.8377 10.3307 -1.34678e-18)
(13.3119 7.03158 -4.65835e-19)
(12.6219 4.58751 0)
(10.9536 3.02536 2.61626e-18)
(8.76749 2.11778 -2.65022e-18)
(6.52127 1.5959 0)
(4.50775 1.2774 0)
(2.84504 1.07009 1.16061e-18)
(1.53701 0.934285 -1.11374e-18)
(0.541231 0.855085 1.20851e-19)
(-0.19952 0.812699 0)
(-0.740712 0.793702 4.00334e-19)
(-1.13047 0.801774 1.61888e-19)
(-1.41581 0.83677 -8.81451e-19)
(-1.63521 0.899211 -6.80126e-20)
(-1.8173 0.990425 1.88691e-19)
(-1.9808 1.11118 0)
(-2.13491 1.25981 -1.62735e-18)
(-2.28217 1.43261 3.07363e-18)
(-2.42144 1.62444 -1.6717e-18)
(-2.55013 1.82965 -2.23272e-19)
(-2.66561 2.04282 -1.90398e-18)
(-2.7661 2.25927 1.94117e-19)
(-2.85087 2.47529 3.36527e-18)
(-2.92015 2.68814 -1.24351e-18)
(-2.97488 2.8959 0)
(-3.01634 3.09727 0)
(-3.04583 3.29134 2.05211e-19)
(-3.06433 3.47741 2.01827e-19)
(-3.07231 3.65482 0)
(-3.06956 3.82283 2.91601e-18)
(-3.05512 3.98052 -2.86149e-18)
(-3.02733 4.12678 -3.37125e-18)
(-2.98387 4.26029 -3.67169e-19)
(-2.92183 4.37955 2.51107e-18)
(-2.83784 4.4829 -2.81637e-18)
(-2.72819 4.56851 2.75059e-18)
(-2.58895 4.63449 4.14293e-21)
(-2.4161 4.67886 2.30935e-18)
(-2.20571 4.6996 -2.24815e-18)
(-1.95411 4.69472 -2.20612e-18)
(-1.65808 4.66236 2.75705e-18)
(-1.31499 4.60088 -2.09895e-18)
(-0.922991 4.50897 2.33013e-18)
(-0.481084 4.38582 -2.26981e-18)
(0.0111589 4.23168 4.40021e-18)
(0.554517 4.05003 -3.32273e-21)
(1.10117 3.82055 -1.15107e-20)
(4.16941 -2.05285 1.05118e-17)
(4.34966 0.357313 1.13084e-19)
(-5.4797 6.70894 -1.24271e-17)
(-13.973 14.2574 2.28133e-17)
(-17.6487 16.8392 -1.04492e-17)
(-17.4384 16.2416 4.91972e-18)
(-15.0954 13.3002 -2.49798e-18)
(-12.0127 9.1375 -3.02809e-18)
(-8.98721 4.64777 -1.08804e-18)
(-6.19312 0.344526 1.03689e-18)
(-3.42822 -3.54825 -3.69072e-18)
(-0.434839 -6.94154 3.50858e-18)
(2.86544 -9.77454 -5.57949e-18)
(6.33343 -11.9605 5.85601e-18)
(9.66907 -13.4305 1.60737e-19)
(12.4983 -14.0986 1.54263e-19)
(14.4887 -13.9536 -1.55757e-17)
(15.4314 -13.0182 1.58458e-17)
(15.2904 -11.4223 -2.70031e-19)
(14.1937 -9.34408 -5.10948e-19)
(12.3986 -6.98794 -1.64012e-17)
(10.1976 -4.54989 1.57104e-17)
(7.86695 -2.19903 0)
(5.62832 -0.0612215 3.86416e-19)
(3.61271 1.78248 0)
(1.84927 3.30809 0)
(0.288215 4.54957 2.81681e-19)
(-1.14951 5.56709 1.08857e-17)
(-2.49409 6.36604 -1.13043e-17)
(-3.6452 6.84521 -9.16717e-18)
(-4.36597 6.84264 9.27382e-18)
(-4.46726 6.24785 -7.10395e-20)
(-4.01741 5.12666 9.27998e-20)
(-3.29571 3.73482 0)
(-2.59436 2.37046 1.11146e-19)
(-2.06502 1.23657 0)
(-1.71459 0.417042 0)
(-1.48921 -0.0962064 2.32908e-20)
(-1.33358 -0.357937 0)
(-1.20551 -0.4293 0)
(-1.0853 -0.366458 -3.71802e-19)
(-0.968858 -0.21938 3.53898e-19)
(-0.857431 -0.0261037 0)
(-0.762989 0.182286 0)
(-0.698381 0.383261 0)
(-0.67628 0.566043 -9.12655e-20)
(-0.702989 0.734357 6.79707e-20)
(-0.774312 0.903272 1.24308e-18)
(-0.884057 1.081 -1.31574e-18)
(-1.02606 1.26831 1.54697e-18)
(-1.1905 1.46622 -1.74585e-18)
(-1.36605 1.67491 2.13441e-19)
(-1.54209 1.89269 1.12713e-19)
(-1.70959 2.11707 0)
(-1.86183 2.34543 0)
(-1.99468 2.57535 -1.5094e-18)
(-2.10637 2.80473 -2.19968e-19)
(-2.19699 3.03178 1.69726e-18)
(-2.26787 3.25485 -1.67494e-18)
(-2.32089 3.47234 1.65326e-18)
(-2.35798 3.68258 3.02938e-18)
(-2.38063 3.88385 -1.03755e-20)
(-2.38965 4.07443 -6.01559e-18)
(-2.38501 4.25262 3.0417e-18)
(-2.36575 4.41676 1.84684e-19)
(-2.33008 4.56525 3.64673e-19)
(-2.27547 4.69652 2.83806e-18)
(-2.19879 4.80897 -5.54983e-18)
(-2.09651 4.90093 2.7107e-18)
(-1.96484 4.97069 3.3394e-19)
(-1.79996 5.01645 2.59398e-18)
(-1.59815 5.0364 -2.83891e-18)
(-1.35592 5.02878 0)
(-1.07017 4.99192 -3.04128e-19)
(-0.738292 4.92437 0)
(-0.358215 4.825 2.28681e-18)
(0.0715122 4.69308 1.58249e-21)
(0.551549 4.52821 -2.15172e-18)
(1.08602 4.33538 1.56398e-18)
(1.6304 4.09523 4.83558e-19)
(6.48526 -3.76367 2.13857e-17)
(5.47622 -4.29094 -3.21411e-17)
(-6.19133 3.36555 -3.79581e-19)
(-22.7675 13.4651 -3.07275e-17)
(-37.5893 24.7994 3.14262e-17)
(-49.4108 34.8448 -2.99544e-17)
(-56.5828 42.4041 5.95568e-17)
(-58.0877 46.6983 -2.95199e-17)
(-53.776 47.4322 2.86712e-17)
(-44.3971 44.9356 -2.8821e-17)
(-31.5179 40.0101 0)
(-17.1138 33.7118 -2.17273e-19)
(-3.04761 27.0477 4.29958e-19)
(9.27597 20.7821 0)
(18.9747 15.3934 0)
(25.5912 11.1673 0)
(29.0571 8.16145 0)
(29.682 6.29224 -2.2634e-19)
(28.1065 5.30529 0)
(25.1272 4.89299 2.41062e-17)
(21.4934 4.77568 -2.35029e-17)
(17.7585 4.76873 -3.97623e-17)
(14.2427 4.78206 4.08341e-17)
(11.085 4.79753 3.22127e-17)
(8.32006 4.85159 -3.31787e-17)
(5.91919 4.97815 2.51441e-17)
(3.83023 5.186 -2.57467e-17)
(2.02883 5.48426 1.85438e-17)
(0.537561 5.87063 -3.26756e-18)
(-0.579411 6.30833 -1.54596e-17)
(-1.24336 6.71658 0)
(-1.40645 6.99394 -2.48516e-21)
(-1.09032 7.06776 1.66607e-20)
(-0.393263 6.92661 0)
(0.544546 6.60648 -1.09792e-19)
(1.58064 6.18467 0)
(2.59429 5.7405 0)
(3.48621 5.33723 6.67722e-19)
(4.17333 5.01263 -1.8495e-18)
(4.59649 4.78609 1.23915e-18)
(4.73199 4.6633 1.75903e-18)
(4.59044 4.63086 -1.84713e-18)
(4.21159 4.65558 -8.21851e-20)
(3.66111 4.7006 0)
(3.01702 4.73421 2.19657e-18)
(2.34926 4.73379 -1.94569e-18)
(1.70708 4.68589 0)
(1.11733 4.58352 0)
(0.594212 4.43517 -1.81737e-18)
(0.143728 4.26202 2.09819e-18)
(-0.235715 4.08439 2.18942e-18)
(-0.549083 3.91943 -2.03783e-18)
(-0.802603 3.78054 -2.02291e-18)
(-1.00323 3.67695 3.78425e-18)
(-1.15842 3.61423 -1.87198e-18)
(-1.27594 3.59491 -4.70382e-19)
(-1.36369 3.61888 0)
(-1.42917 3.68377 2.31911e-19)
(-1.47891 3.78522 -1.49414e-18)
(-1.51801 3.91732 3.15914e-18)
(-1.54981 4.07294 -1.64815e-18)
(-1.57579 4.24424 0)
(-1.59573 4.42321 -1.93885e-19)
(-1.60802 4.60217 0)
(-1.60996 4.77428 -1.84524e-19)
(-1.59821 4.93375 -1.77219e-19)
(-1.56898 5.07605 -3.44331e-19)
(-1.5183 5.19769 -2.71573e-18)
(-1.44212 5.2961 2.32632e-18)
(-1.33643 5.36925 -3.17703e-19)
(-1.19735 5.4155 -2.52639e-18)
(-1.02121 5.43331 3.07497e-18)
(-0.80465 5.42122 -2.40621e-18)
(-0.544673 5.37779 2.3399e-18)
(-0.238762 5.30163 -2.56456e-18)
(0.115076 5.19143 1.94597e-18)
(0.518296 5.04617 2.15717e-18)
(0.971346 4.8646 -2.09103e-18)
(1.47895 4.65048 5.12744e-19)
(2.0076 4.39012 -4.94399e-19)
(-13.6324 4.50165 -4.41144e-17)
(-18.9023 4.75604 -6.46814e-17)
(-4.76024 -3.60662 1.31024e-16)
(11.3224 -11.7504 -1.28951e-16)
(19.8838 -14.815 6.44666e-17)
(23.5803 -14.7961 3.51249e-19)
(24.0805 -13.0413 -5.36282e-17)
(22.6778 -10.419 1.04113e-16)
(20.3664 -7.60045 -5.71615e-18)
(17.8924 -5.14256 -4.56186e-17)
(15.7621 -3.49007 -3.3409e-20)
(14.2802 -2.93343 2.92635e-17)
(13.5532 -3.51876 -2.98208e-17)
(13.3956 -5.0177 1.76746e-17)
(13.3369 -7.00432 -1.80326e-17)
(12.8251 -9.04898 -7.83775e-18)
(11.5416 -10.8359 7.98862e-18)
(9.5509 -12.2008 2.25095e-19)
(7.19505 -13.1155 0)
(4.88188 -13.6192 -4.5442e-18)
(2.92879 -13.7602 4.40928e-18)
(1.49077 -13.5825 4.23903e-19)
(0.573845 -13.1203 7.34884e-18)
(0.0918117 -12.3942 -7.8638e-18)
(-0.0752275 -11.425 5.0188e-19)
(-0.0352648 -10.2416 0)
(0.132074 -8.88195 -3.28504e-19)
(0.381838 -7.39246 -2.4492e-19)
(0.693577 -5.82781 -1.10285e-17)
(1.05932 -4.24982 1.14289e-17)
(1.4713 -2.721 9.07362e-18)
(1.90914 -1.29215 -8.97313e-18)
(2.33154 -0.000846187 3.14743e-19)
(2.67891 1.13208 -6.61622e-18)
(2.89355 2.09747 1.20073e-17)
(2.93378 2.8978 -5.67164e-18)
(2.78205 3.53953 -4.37245e-18)
(2.45053 4.0344 4.59458e-18)
(1.97529 4.39685 7.64341e-20)
(1.40379 4.64385 -1.40449e-19)
(0.788455 4.79616 8.28977e-20)
(0.179487 4.88106 -3.31072e-18)
(-0.385156 4.92085 2.05004e-19)
(-0.881096 4.92838 3.19672e-18)
(-1.29186 4.91251 -3.16606e-18)
(-1.60753 4.87834 3.00374e-18)
(-1.82456 4.82648 0)
(-1.94681 4.75685 2.952e-18)
(-1.98469 4.67225 -2.89944e-18)
(-1.95186 4.57849 2.46016e-18)
(-1.86373 4.48382 -2.07051e-19)
(-1.73601 4.3979 -6.64132e-20)
(-1.58331 4.33006 -6.65997e-20)
(-1.41835 4.28791 -6.68628e-20)
(-1.25196 4.27656 -2.24209e-18)
(-1.09345 4.2983 1.10989e-19)
(-0.951001 4.35279 0)
(-0.831673 4.4373 -2.14206e-18)
(-0.74049 4.5473 1.66024e-18)
(-0.680109 4.67733 0)
(-0.650557 4.82167 -1.88793e-18)
(-0.649092 4.97466 1.44742e-18)
(-0.670284 5.1309 0)
(-0.70653 5.28523 -1.84827e-19)
(-0.748818 5.43273 0)
(-0.787617 5.56882 -2.61628e-18)
(-0.813711 5.68941 5.62073e-18)
(-0.818848 5.79106 -2.64855e-18)
(-0.796101 5.87101 3.25762e-19)
(-0.739943 5.92706 3.17429e-19)
(-0.646121 5.95738 -2.43008e-18)
(-0.51143 5.96027 2.06542e-18)
(-0.333483 5.93401 -2.80226e-19)
(-0.110546 5.87672 -2.73268e-19)
(0.158571 5.78637 5.46028e-19)
(0.474575 5.66077 2.72107e-19)
(0.837929 5.49784 2.33031e-18)
(1.24864 5.29515 2.31837e-21)
(1.71213 5.05385 -2.19188e-18)
(2.2086 4.76338 -4.62008e-19)
(10.0463 -3.04652 0)
(42.3271 -5.93973 -7.68919e-20)
(66.9494 -17.4449 -4.08984e-19)
(77.1968 -14.7669 -7.10317e-17)
(70.0702 -11.2889 1.38489e-16)
(57.4171 -5.00913 -1.28086e-16)
(44.6135 0.699196 6.18185e-17)
(33.9862 4.92409 0)
(25.6896 7.79739 1.01594e-20)
(19.0927 9.69316 -4.35663e-17)
(13.6181 10.9567 4.45016e-17)
(8.88445 11.7568 3.75326e-17)
(4.68114 12.1084 -7.38736e-17)
(0.901984 11.9678 2.38274e-18)
(-2.48544 11.2636 2.65503e-18)
(-5.40244 9.93167 3.08675e-17)
(-7.66335 7.92941 4.34995e-19)
(-9.04482 5.2759 -2.55483e-17)
(-9.39016 2.10297 2.56393e-17)
(-8.69721 -1.36317 2.11007e-19)
(-7.1327 -4.8432 2.78038e-19)
(-4.97483 -8.03324 5.66534e-20)
(-2.54706 -10.6665 -1.86432e-17)
(-0.141838 -12.5444 2.35415e-18)
(2.02463 -13.6071 1.68909e-17)
(3.82296 -13.8796 2.67456e-19)
(5.19598 -13.4557 -1.32078e-17)
(6.14682 -12.472 2.57489e-17)
(6.71877 -11.0799 -2.30846e-17)
(6.97396 -9.43195 1.0652e-17)
(6.98172 -7.66172 0)
(6.80774 -5.87593 -1.47815e-17)
(6.50591 -4.16021 2.7107e-17)
(6.11764 -2.57466 -1.253e-17)
(5.67358 -1.1548 9.36697e-18)
(5.19447 0.0838764 -9.8388e-18)
(4.69331 1.14007 -1.95845e-19)
(4.17885 2.02443 0)
(3.65882 2.75259 7.18654e-21)
(3.1359 3.3381 -4.67639e-18)
(2.61331 3.7931 4.98715e-18)
(2.09254 4.1245 -1.39646e-19)
(1.58293 4.35308 1.33624e-19)
(1.0953 4.49399 0)
(0.639007 4.56234 0)
(0.221239 4.57545 3.143e-18)
(-0.149861 4.55141 -3.6036e-18)
(-0.463633 4.50858 -1.88195e-19)
(-0.708554 4.46379 -3.08242e-18)
(-0.874703 4.43096 6.24611e-18)
(-0.956419 4.41964 -2.75755e-18)
(-0.954454 4.43419 0)
(-0.876712 4.47564 2.77216e-18)
(-0.737967 4.54377 -2.56928e-18)
(-0.558866 4.63935 0)
(-0.363989 4.76441 2.32557e-18)
(-0.178626 4.92012 -2.16319e-18)
(-0.026443 5.10342 1.94491e-18)
(0.0770028 5.30482 -1.68168e-18)
(0.125519 5.51192 0)
(0.122602 5.71205 4.17047e-19)
(0.0782801 5.89507 2.01096e-19)
(0.00572992 6.05497 -1.4978e-18)
(-0.0812343 6.1901 2.19619e-19)
(-0.169735 6.30169 1.40682e-18)
(-0.248547 6.39222 0)
(-0.308314 6.46408 1.65589e-19)
(-0.34159 6.51892 0)
(-0.342796 6.55729 0)
(-0.308064 6.57871 -2.34971e-18)
(-0.234955 6.58178 2.29103e-18)
(-0.122132 6.5643 1.96427e-18)
(0.030967 6.52348 2.85441e-19)
(0.224399 6.45601 -1.8445e-18)
(0.457966 6.35824 -2.34099e-18)
(0.731515 6.22626 2.01443e-18)
(1.04582 6.05627 -2.52743e-19)
(1.40264 5.84364 -1.92348e-18)
(1.81388 5.58893 4.20024e-18)
(2.27168 5.27204 -1.34134e-18)
(11.6463 -5.06536 2.76302e-17)
(14.3992 -10.1199 -2.11256e-17)
(-0.0160568 -8.78844 -2.45879e-17)
(-18.8311 -9.61639 2.5169e-17)
(-32.9933 -10.7544 3.81186e-19)
(-43.6415 -11.8865 3.67762e-19)
(-50.6378 -12.2831 0)
(-53.9495 -11.8411 3.51658e-17)
(-54.0715 -10.7765 -3.58761e-17)
(-51.8911 -9.21703 0)
(-48.4777 -7.16968 -3.65947e-17)
(-44.7629 -4.55202 7.31616e-17)
(-41.4171 -1.30316 -1.38819e-18)
(-38.7959 2.6013 -6.76057e-17)
(-36.9691 7.09052 3.35069e-17)
(-35.7695 11.9792 4.64344e-19)
(-34.7952 16.9755 -4.43194e-19)
(-33.4608 21.7031 0)
(-31.1417 25.7367 1.89355e-17)
(-27.3634 28.7047 -1.89191e-17)
(-21.9809 30.397 -3.06136e-19)
(-15.2658 30.7951 8.10257e-18)
(-7.8833 30.0873 -8.74867e-18)
(-0.630768 28.6232 3.53069e-18)
(5.81027 26.7368 -3.63771e-18)
(11.007 24.7034 -2.65434e-19)
(14.7832 22.7115 8.60948e-19)
(17.177 20.8699 -3.22648e-19)
(18.3667 19.2317 -5.02059e-19)
(18.5971 17.8165 -1.84668e-20)
(18.1206 16.6234 2.602e-19)
(17.1636 15.6405 8.2531e-19)
(15.9089 14.8516 -9.40362e-19)
(14.4917 14.2382 0)
(13.0045 13.7795 2.07255e-19)
(11.506 13.4534 1.9339e-19)
(10.0298 13.2358 0)
(8.59288 13.1012 4.32361e-18)
(7.20281 13.0244 -4.50552e-18)
(5.86343 12.9759 -1.52697e-19)
(4.58263 12.9324 0)
(3.36891 12.8635 1.3853e-19)
(2.24529 12.7488 4.52395e-18)
(1.23413 12.5485 -4.4912e-18)
(0.368321 12.2276 0)
(-0.309415 11.7688 -3.69445e-18)
(-0.76197 11.1619 4.30027e-18)
(-0.969574 10.4086 0)
(-0.938296 9.53036 0)
(-0.705608 8.56806 -2.05169e-19)
(-0.33869 7.57919 -1.97102e-19)
(0.0803462 6.63615 0)
(0.481533 5.80408 2.83748e-18)
(0.824414 5.12938 -2.99149e-18)
(1.09437 4.64228 -2.61937e-18)
(1.28699 4.35657 3.2558e-19)
(1.39707 4.27253 4.57662e-18)
(1.41939 4.37057 -4.17888e-18)
(1.35455 4.60755 -9.80736e-20)
(1.21333 4.93242 1.61996e-18)
(1.01668 5.29112 -2.06322e-19)
(0.791966 5.64245 0)
(0.565716 5.96051 0)
(0.359174 6.23337 1.33977e-18)
(0.186684 6.45917 -1.46265e-18)
(0.0560946 6.64171 0)
(-0.0297586 6.78701 1.38479e-19)
(-0.0712853 6.90113 0)
(-0.0706652 6.98883 1.10844e-18)
(-0.0308016 7.05307 -1.08168e-18)
(0.0453597 7.09493 2.46488e-19)
(0.155215 7.11377 2.31452e-18)
(0.296692 7.10762 -1.99287e-18)
(0.468345 7.07344 2.303e-19)
(0.66959 7.00747 0)
(0.901047 6.90525 0)
(1.16672 6.76288 0)
(1.47244 6.57284 -2.01087e-18)
(1.84515 6.34459 -2.44441e-19)
(2.28344 6.02356 3.39198e-18)
(-8.53476 1.80537 -1.96968e-17)
(-29.4571 8.29623 -3.05303e-17)
(-52.66 13.056 3.12616e-17)
(-61.961 14.9764 -3.45476e-17)
(-53.6235 10.0495 3.55976e-17)
(-34.2029 1.5701 2.1474e-19)
(-12.2509 -7.50312 2.04953e-19)
(5.95939 -14.9896 0)
(18.1425 -20.1197 -2.08907e-20)
(24.9731 -23.1359 0)
(28.072 -24.6032 1.29227e-19)
(28.8602 -25.041 3.90653e-17)
(28.2328 -24.8544 -3.96802e-17)
(26.7313 -24.3521 -3.49701e-17)
(24.7895 -23.7322 3.54523e-17)
(22.8278 -23.1292 -2.99904e-17)
(21.1959 -22.583 3.06575e-17)
(20.0791 -21.9931 0)
(19.4525 -21.1984 0)
(19.1241 -20.0776 0)
(18.8651 -18.5701 1.54197e-17)
(18.5131 -16.7143 -2.77907e-17)
(17.9904 -14.5936 3.43601e-18)
(17.322 -12.2999 1.49249e-17)
(16.5784 -9.96536 -5.979e-18)
(15.8452 -7.69025 0)
(15.1921 -5.51424 1.14084e-20)
(14.6497 -3.44302 0)
(14.21 -1.46193 -4.29557e-18)
(13.8423 0.459286 4.30091e-18)
(13.5075 2.35514 1.85364e-20)
(13.164 4.2516 0)
(12.7694 6.1598 5.87394e-18)
(12.2857 8.07324 -1.15329e-17)
(11.6863 9.96883 5.76386e-18)
(10.9622 11.813 -5.05076e-18)
(10.1226 13.57 9.79373e-18)
(9.19037 15.21 -4.73664e-18)
(8.19531 16.7145 0)
(7.16452 18.0613 0)
(6.11687 19.2414 0)
(5.06543 20.2443 3.25238e-18)
(4.02644 21.0464 -9.51903e-18)
(3.01716 21.6526 6.09703e-18)
(2.05949 22.0879 0)
(1.17323 22.3549 -5.20902e-18)
(0.376793 22.4399 5.05394e-18)
(-0.308191 22.3288 4.44341e-18)
(-0.859269 22.0013 -6.0217e-19)
(-1.25403 21.4316 -3.20473e-19)
(-1.46636 20.5982 -3.32166e-19)
(-1.46654 19.4986 -3.41307e-18)
(-1.22558 18.1468 0)
(-0.731253 16.5782 0)
(-0.0190009 14.8641 -1.99051e-18)
(0.802824 13.1158 2.07663e-18)
(1.5672 11.4659 0)
(2.11527 10.0313 0)
(2.36504 8.88252 7.94927e-20)
(2.3324 8.04098 1.94424e-19)
(2.09757 7.47834 0)
(1.75835 7.14158 0)
(1.39689 6.97223 -1.30105e-19)
(1.06772 6.91856 -1.26286e-19)
(0.799632 6.94052 1.23427e-18)
(0.602724 7.00959 -2.11444e-18)
(0.475484 7.10626 -1.30369e-19)
(0.410393 7.21694 1.99117e-18)
(0.397719 7.33169 -2.04902e-18)
(0.427887 7.44257 1.88965e-18)
(0.492714 7.54273 -3.49878e-19)
(0.585916 7.62599 -9.00352e-19)
(0.703208 7.68671 1.77476e-18)
(0.842235 7.71969 -1.37915e-20)
(1.00301 7.72057 -3.40249e-18)
(1.18778 7.68431 1.85405e-18)
(1.40602 7.61017 0)
(1.66647 7.48284 3.99364e-19)
(2.01541 7.33492 0)
(2.44345 7.03393 -1.54851e-18)
(-14.5254 3.70943 0)
(-30.7176 7.33605 5.73711e-20)
(-37.2524 10.1728 -5.70094e-20)
(-39.3155 10.6723 2.11576e-17)
(-38.5869 11.4478 -3.99321e-17)
(-34.5063 10.4263 1.81598e-17)
(-27.1501 7.5264 -2.02592e-19)
(-17.0634 3.04467 0)
(-4.94368 -2.54889 0)
(8.26063 -8.64143 0)
(21.0898 -14.5578 -1.27672e-19)
(31.6564 -19.5752 -2.22424e-19)
(38.3292 -23.1467 0)
(40.7184 -25.2084 8.73668e-20)
(39.9004 -26.025 2.45922e-19)
(37.8473 -25.9378 1.89784e-17)
(36.2892 -25.1456 -1.94806e-17)
(35.9599 -23.6135 -2.52145e-20)
(36.6526 -21.2507 0)
(37.742 -18.0557 -2.18318e-20)
(38.66 -14.1364 5.88232e-20)
(39.0697 -9.67083 6.47766e-18)
(38.8497 -4.88129 -2.09715e-18)
(38.0177 -0.00943364 -4.65695e-18)
(36.6669 4.70142 3.51379e-20)
(34.9324 9.03336 -5.95336e-20)
(32.9693 12.8203 1.75931e-19)
(30.9313 15.9589 1.31359e-20)
(28.9597 18.399 -7.50746e-20)
(27.1758 20.1322 6.26406e-20)
(25.6518 21.204 7.35755e-20)
(24.3787 21.7363 3.76228e-19)