/*--------------------------------*- C++ -*----------------------------------*\
| =========                 |                                                 |
| \\      /  F ield         | OpenFOAM: The Open Source CFD Toolbox           |
|  \\    /   O peration     | Version:  2012                                  |
|   \\  /    A nd           | Website:  www.openfoam.com                      |
|    \\/     M anipulation  |                                                 |
\*---------------------------------------------------------------------------*/
FoamFile
{
    version     2.0;
    format      ascii;
    class       volVectorField;
    location    "0.06";
    object      U;
}
// * * * * * * * * * * * * * * * * * * * * * * * * * * * * * * * * * * * * * //

dimensions      [0 1 -1 0 0 0 0];


internalField   nonuniform List<vector> 
42400
(
(17.2309 -11.664 -1.28315e-16)
(42.6642 -28.5066 -1.84727e-16)
(62.8406 -40.1086 1.88709e-16)
(78.1454 -46.7469 0)
(87.5307 -50.2815 0)
(90.4971 -48.1065 1.82751e-19)
(88.0104 -41.0266 0)
(81.7699 -30.2729 -1.68986e-19)
(72.9132 -17.1147 0)
(61.8613 -3.11176 -1.69608e-19)
(49.1736 10.3124 -1.5706e-19)
(35.5815 22.4101 1.29055e-19)
(20.6036 33.4316 6.43967e-17)
(2.64403 44.2329 -6.57996e-17)
(-17.5421 53.9382 -1.54556e-20)
(-34.06 58.3691 0)
(-39.1367 53.058 0)
(-30.8217 38.6824 0)
(-15.7062 21.6406 0)
(-2.69402 8.44797 0)
(3.97369 1.49229 0)
(4.71009 -0.0519703 -1.78207e-19)
(1.46865 2.20592 -1.9658e-18)
(-3.74173 6.58916 1.08964e-18)
(-9.09271 11.1617 5.69924e-19)
(-13.1473 14.1219 -1.92771e-19)
(-15.3643 14.687 -2.08349e-19)
(-16.0923 13.4089 4.41773e-19)
(-15.9868 11.4169 0)
(-15.5519 9.46598 0)
(-14.7721 7.71583 8.46863e-18)
(-13.4847 6.08453 -8.56074e-18)
(-11.7566 4.53097 4.43662e-19)
(-9.90139 3.12213 -1.09194e-17)
(-8.24503 1.95545 1.05968e-17)
(-6.94944 1.08614 0)
(-6.01387 0.516556 0)
(-5.35222 0.208905 0)
(-4.86065 0.0953933 0)
(-4.45569 0.0945614 -9.47794e-18)
(-4.09092 0.129968 9.50332e-18)
(-3.75244 0.146163 -8.31272e-18)
(-3.44235 0.113052 1.08777e-18)
(-3.16515 0.0202075 1.43874e-17)
(-2.91882 -0.1313 -6.70855e-18)
(-2.69388 -0.334252 5.61479e-18)
(-2.48134 -0.581143 -1.1091e-17)
(-2.27375 -0.867037 5.13752e-18)
(-2.06453 -1.18684 2.7371e-19)
(-1.84572 -1.53609 -4.11251e-18)
(-1.60293 -1.90546 7.83198e-18)
(-1.32676 -2.28682 9.5222e-20)
(-1.01854 -2.67951 -3.74707e-18)
(-0.67905 -3.0816 3.29227e-19)
(-0.306675 -3.48723 0)
(0.0996396 -3.88941 0)
(0.539758 -4.28075 0)
(1.0123 -4.65352 -2.29414e-19)
(1.51459 -4.99984 -2.13924e-19)
(2.04274 -5.31165 0)
(2.59164 -5.58065 -3.45977e-18)
(3.15502 -5.79822 3.5873e-18)
(3.72546 -5.95534 3.25437e-18)
(4.29427 -6.04257 -3.19242e-18)
(4.85138 -6.05014 0)
(5.38516 -5.96868 0)
(5.88258 -5.79022 3.12041e-18)
(6.32959 -5.50978 -3.04897e-18)
(6.71223 -5.12745 -3.65147e-19)
(7.01826 -4.65056 0)
(7.23938 -4.09494 0)
(7.37326 -3.48488 -3.50592e-19)
(7.42475 -2.85128 -3.39036e-19)
(7.40605 -2.22816 0)
(7.33552 -1.64802 -3.07299e-19)
(7.23548 -1.13714 -2.28604e-18)
(7.12941 -0.712002 2.21727e-18)
(7.03937 -0.377537 4.97847e-19)
(6.98554 -0.125328 1.79329e-18)
(6.97266 0.0600513 1.52827e-18)
(22.6629 -22.4944 0)
(44.929 -50.2462 1.25685e-16)
(50.992 -60.0925 -1.28617e-16)
(43.2664 -66.1333 0)
(35.1443 -70.4234 0)
(22.5886 -72.9882 1.2025e-16)
(3.63177 -70.6869 -1.23158e-16)
(-23.1107 -60.2021 1.69379e-19)
(-55.733 -41.5828 0)
(-88.3687 -19.2718 1.70526e-19)
(-116.353 1.86227 1.57951e-19)
(-138.969 20.3818 -5.65218e-17)
(-156.853 36.6442 9.7132e-18)
(-168.386 49.3925 5.00642e-17)
(-168.099 54.1809 3.5679e-17)
(-148.593 44.7933 -3.53965e-17)
(-108.44 19.7052 0)
(-60.6108 -10.9057 8.50533e-19)
(-25.2992 -31.1339 0)
(-10.3497 -35.4044 0)
(-8.09402 -30.3753 0)
(-9.50546 -23.3308 -1.85596e-17)
(-10.9408 -16.9287 -1.08535e-18)
(-11.7731 -11.4001 2.15278e-17)
(-12.1677 -6.56961 0)
(-12.224 -2.43541 -4.1819e-19)
(-11.8725 0.82553 2.11471e-19)
(-11.0738 3.11883 -4.46986e-19)
(-10.01 4.61114 -2.37551e-17)
(-8.87039 5.51811 2.39766e-17)
(-7.73311 6.00252 -7.95787e-19)
(-6.62308 6.16213 -6.97362e-19)
(-5.55983 6.07238 -1.71568e-17)
(-4.57713 5.81132 1.74487e-17)
(-3.69965 5.45657 1.46899e-17)
(-2.93361 5.07432 -1.47752e-17)
(-2.27376 4.71208 0)
(-1.71308 4.39673 3.13085e-19)
(-1.24799 4.13694 0)
(-0.877571 3.92961 5.00325e-19)
(-0.601944 3.76383 -7.7621e-18)
(-0.416966 3.62466 8.2316e-18)
(-0.311281 3.49303 -4.73104e-19)
(-0.265147 3.34787 4.34883e-19)
(-0.252868 3.17038 -9.18435e-20)
(-0.24806 2.9462 3.63866e-19)
(-0.226935 2.66803 -3.31335e-19)
(-0.170829 2.33561 -3.95147e-18)
(-0.0676377 1.95339 3.96334e-18)
(0.086893 1.52431 0)
(0.293156 1.05291 -1.6398e-19)
(0.554151 0.550012 -4.02185e-19)
(0.874902 0.0295898 -2.09805e-18)
(1.25496 -0.497996 2.11128e-18)
(1.69081 -1.02445 2.0963e-19)
(2.17776 -1.54223 -3.41043e-18)
(2.70997 -2.04444 3.73116e-18)
(3.28059 -2.52475 2.28768e-19)
(3.88199 -2.97725 2.13332e-19)
(4.50595 -3.39629 -2.73648e-18)
(5.14378 -3.77623 2.69282e-18)
(5.78647 -4.11116 -1.85969e-19)
(6.42465 -4.39436 -1.43091e-19)
(7.04853 -4.61753 0)
(7.64721 -4.77032 2.36163e-18)
(8.20778 -4.84017 1.04856e-19)
(8.71459 -4.81262 -2.96762e-18)
(9.14922 -4.67304 0)
(9.49151 -4.41012 6.96702e-19)
(9.72228 -4.02022 -3.36002e-19)
(9.82738 -3.51139 -2.80173e-18)
(9.80166 -2.90568 3.07817e-18)
(9.65176 -2.23876 2.98519e-18)
(9.39678 -1.55653 -2.88359e-18)
(9.06662 -0.90922 6.02103e-19)
(8.69828 -0.343675 -2.2385e-18)
(8.33046 0.104306 1.6518e-18)
(7.99859 0.415984 -4.97417e-19)
(7.728 0.591322 2.22339e-18)
(7.54603 0.629628 -1.72632e-18)
(-1.66453 -0.194007 -3.0548e-17)
(-2.55552 -0.550068 1.65434e-19)
(-8.70161 -2.69304 4.38579e-19)
(-22.8239 3.72798 1.75428e-19)
(-39.1674 10.2211 0)
(-45.6453 9.691 -9.93487e-17)
(-40.3848 0.480489 2.0005e-16)
(-28.8328 -13.0307 -1.00625e-16)
(-16.6045 -25.194 9.63645e-17)
(-6.82749 -32.6472 -2.2498e-18)
(-0.508829 -34.7788 -9.82616e-17)
(3.54679 -33.0013 -6.32357e-19)
(7.55731 -29.2464 -6.00723e-19)
(13.1017 -24.8508 9.88307e-17)
(20.5918 -20.8538 -1.00677e-16)
(29.2785 -18.375 -8.47598e-19)
(37.334 -18.0624 -9.10903e-17)
(42.391 -19.206 6.06616e-18)
(43.1001 -20.1034 8.66885e-17)
(40.22 -19.4493 1.86805e-19)
(35.2104 -16.8027 -1.49165e-19)
(29.1517 -12.2668 -1.16993e-19)
(22.9677 -6.50253 0)
(17.3827 -0.354011 -5.80489e-19)
(12.7776 5.55702 5.54587e-17)
(9.24583 10.7573 -1.06915e-16)
(6.64071 14.913 5.19905e-17)
(4.77595 17.7823 -4.17875e-17)
(3.44234 19.3174 4.2229e-17)
(2.49876 19.6216 3.15507e-17)
(1.87051 18.9284 -5.78424e-17)
(1.50584 17.5332 5.17019e-18)
(1.3527 15.7418 2.21291e-17)
(1.34896 13.8251 0)
(1.43088 11.99 0)
(1.54266 10.3719 4.00648e-19)
(1.6415 9.04199 0)
(1.69919 8.02019 -2.71097e-19)
(1.70274 7.28929 -7.06513e-18)
(1.65411 6.80669 1.29125e-17)
(1.56659 6.51595 -6.6768e-18)
(1.4604 6.35528 0)
(1.35873 6.2653 0)
(1.28436 6.19604 -4.02378e-18)
(1.25887 6.11266 3.71772e-18)
(1.29745 5.99012 1.32174e-19)
(1.40444 5.80966 0)
(1.57988 5.56551 0)
(1.8218 5.25772 -2.39086e-18)
(2.12464 4.88596 2.37924e-18)
(2.48874 4.46255 1.63276e-19)
(2.91484 4.00001 0)
(3.39611 3.50206 1.66375e-18)
(3.92533 2.97651 -1.4941e-18)
(4.49639 2.43253 2.23716e-18)
(5.10271 1.87857 -2.48513e-18)
(5.73655 1.32356 1.91936e-18)
(6.38914 0.776536 -4.05634e-18)
(7.05118 0.246099 3.89795e-18)
(7.71332 -0.260111 1.26713e-20)
(8.36659 -0.735754 -1.88817e-18)
(9.00272 -1.17588 -1.98431e-18)
(9.61421 -1.57653 2.09154e-18)
(10.1941 -1.93374 0)
(10.7352 -2.24175 -1.93794e-18)
(11.2276 -2.49078 -1.4566e-19)
(11.6565 -2.66527 2.89317e-18)
(12 -2.74441 0)
(12.2303 -2.70576 -6.40077e-19)
(12.318 -2.53155 -2.27245e-18)
(12.2399 -2.21561 2.22933e-18)
(11.9863 -1.76837 0)
(11.5659 -1.21842 0)
(11.0062 -0.610575 3.10125e-19)
(10.3516 -0.000952713 -2.94871e-19)
(9.65784 0.550621 -1.60959e-18)
(8.98402 0.989986 2.58344e-18)
(8.3857 1.28069 0)
(7.89472 1.40404 -4.47037e-19)
(7.58282 1.37937 -1.59012e-18)
(-17.0826 12.3236 4.54693e-18)
(-35.2613 22.8099 -8.21921e-18)
(-38.0019 22.7429 4.41605e-18)
(-37.1453 17.3881 4.54007e-18)
(-37.9647 15.3973 -5.07561e-18)
(-39.0909 14.486 0)
(-38.9885 13.1674 1.6207e-17)
(-36.9398 10.4543 -1.60087e-17)
(-33.1041 6.03987 2.59195e-17)
(-27.7981 0.310275 -2.64253e-17)
(-21.2286 -6.34691 3.52016e-17)
(-13.553 -13.5325 -7.69325e-17)
(-5.28044 -20.6472 8.44147e-17)
(2.74753 -27.0968 -9.14991e-17)
(9.85262 -32.5938 9.69403e-17)
(15.8664 -37.3046 -5.0386e-17)
(21.0954 -41.7295 -5.01615e-17)
(25.9942 -46.3375 1.02245e-16)
(30.8703 -51.228 -5.15119e-17)
(35.8412 -56.0298 -1.78715e-19)
(40.7857 -60.2893 1.08788e-18)
(45.4313 -63.5517 -5.15996e-17)
(49.3299 -65.344 5.17312e-17)
(51.8981 -65.1175 -6.26438e-20)
(52.3043 -62.111 0)
(49.7218 -55.8752 -2.68695e-20)
(43.9307 -46.6048 0)
(35.6621 -35.3121 3.95305e-17)
(26.4516 -23.5732 -5.10382e-18)
(17.9678 -12.929 -3.5984e-17)
(11.3379 -4.37027 -2.61982e-17)
(6.91981 1.80871 2.64815e-17)
(4.47898 5.83099 -4.50861e-19)
(3.50841 8.17156 -3.60326e-19)
(3.47725 9.34787 -1.17909e-17)
(3.95336 9.80751 1.21024e-17)
(4.63091 9.89111 0)
(5.3143 9.83455 5.221e-18)
(5.89399 9.78932 -5.28468e-18)
(6.32289 9.8353 -1.09388e-19)
(6.59782 9.99462 -9.22003e-20)
(6.74123 10.2532 0)
(6.7863 10.5813 0)
(6.77042 10.9399 0)
(6.72778 11.278 2.22329e-20)
(6.68943 11.5453 -9.75192e-19)
(6.68709 11.7112 8.4236e-19)
(6.74554 11.7565 0)
(6.87416 11.6616 0)
(7.07622 11.4188 -1.02275e-18)
(7.34576 11.0317 9.54261e-19)
(7.67013 10.5129 -9.36705e-19)
(8.04059 9.88367 6.45042e-19)
(8.45564 9.1759 -1.31299e-19)
(8.90439 8.4105 6.89688e-19)
(9.37345 7.60621 -9.36868e-19)
(9.85387 6.78401 1.61305e-18)
(10.3383 5.96261 -1.45062e-18)
(10.82 5.15736 0)
(11.2923 4.38038 1.48648e-19)
(11.7492 3.64091 1.85109e-18)
(12.185 2.9456 -2.99095e-20)
(12.5952 2.29868 -4.10397e-18)
(12.9766 1.70229 3.97695e-18)
(13.3266 1.15791 -1.77718e-18)
(13.6398 0.669245 -2.29838e-18)
(13.902 0.246034 1.64515e-18)
(14.0856 -0.0939314 3.11324e-19)
(14.1505 -0.327082 2.44858e-18)
(14.0524 -0.430721 -2.39019e-18)
(13.7572 -0.391225 6.08063e-19)
(13.2518 -0.210221 2.65371e-18)
(12.5502 0.0932009 -2.30472e-18)
(11.6923 0.483812 0)
(10.7381 0.913549 2.06667e-18)
(9.76136 1.32639 -5.75443e-19)
(8.83985 1.66494 -4.16483e-18)
(8.04708 1.88352 1.77784e-18)
(7.42633 1.94446 -1.61429e-18)
(7.06355 1.88963 1.56399e-18)
(-9.31976 7.93448 4.83388e-17)
(-29.1589 27.0728 0)
(-48.4837 39.3395 0)
(-50.5977 44.7988 4.14321e-19)
(-41.0684 41.7149 0)
(-27.6019 38.6432 0)
(-15.499 37.4571 0)
(-5.46849 38.012 -2.82855e-19)
(3.23972 39.5441 0)
(11.2723 41.4245 -1.84271e-19)
(18.743 43.3893 9.84563e-17)
(25.3241 45.4601 -1.95328e-16)
(30.5571 47.7718 9.77069e-17)
(34.1528 50.426 0)
(36.1903 53.2522 -5.38813e-19)
(37.1688 55.9172 3.91246e-19)
(37.7591 58.0369 0)
(38.4136 59.3224 7.74441e-17)
(39.2616 59.6681 -1.53418e-16)
(40.1892 59.1101 4.08154e-18)
(40.9572 57.7854 7.1261e-17)
(41.2968 55.8196 9.12947e-19)
(40.9791 53.3515 0)
(39.8075 50.4749 -5.14313e-17)
(37.569 47.4673 5.27926e-17)
(34.1107 44.6429 -3.80168e-17)
(29.5218 42.3053 3.87578e-17)
(24.1517 40.704 2.54798e-17)
(18.5382 39.8646 -2.52695e-17)
(13.2881 39.5684 0)
(8.92394 39.4617 -1.19802e-17)
(5.74679 39.1736 1.21177e-17)
(3.81914 38.4486 4.37323e-19)
(3.03137 37.2131 -5.58051e-18)
(3.16441 35.5283 5.98862e-18)
(3.948 33.5273 -1.01131e-19)
(5.11632 31.3741 -1.18868e-19)
(6.4386 29.2259 -2.2761e-18)
(7.73615 27.2129 2.28789e-18)
(8.88488 25.4246 1.14199e-18)
(9.81292 23.905 -3.22411e-19)
(10.4944 22.6629 -9.55874e-19)
(10.9395 21.6885 0)
(11.1781 20.954 8.40679e-20)
(11.2484 20.4146 3.324e-19)
(11.1988 20.0299 -7.24408e-19)
(11.0716 19.7498 1.09133e-18)
(10.9034 19.5212 -6.20953e-19)
(10.7246 19.2922 0)
(10.5606 19.0254 -2.89574e-20)
(10.4337 18.6899 1.06002e-18)
(10.3655 18.2721 -1.03363e-18)
(10.3619 17.7503 -3.57983e-21)
(10.4156 17.0936 1.24357e-18)
(10.5308 16.2948 -9.51776e-19)
(10.7102 15.3587 1.39527e-18)
(10.9478 14.2942 1.71156e-18)
(11.2334 13.1198 -3.00229e-18)
(11.555 11.8639 3.03033e-18)
(11.9002 10.5614 -3.13602e-18)
(12.2577 9.24995 0)
(12.6176 7.96645 1.52773e-19)
(12.9711 6.74306 2.92073e-18)
(13.3112 5.60422 -2.56374e-18)
(13.6314 4.56556 -6.9409e-19)
(13.9209 3.63615 0)
(14.1548 2.82344 -2.71483e-18)
(14.2893 2.13771 2.30799e-18)
(14.2673 1.59227 3.07932e-19)
(14.0357 1.19914 2.98313e-19)
(13.5638 0.963068 -5.76672e-19)
(12.8545 0.877447 -2.23958e-20)
(11.9436 0.923445 2.30204e-18)
(10.893 1.07148 -1.99934e-18)
(9.78068 1.28326 2.17839e-19)
(8.6926 1.51395 0)
(7.71466 1.71526 2.07957e-18)
(6.92346 1.84398 -1.58981e-18)
(6.36619 1.85947 0)
(6.10073 1.81116 1.39483e-18)
(-13.77 9.21704 -1.95336e-19)
(-43.3708 25.9906 2.79806e-17)
(-56.9397 30.5057 -2.87926e-17)
(-34.5326 11.997 5.703e-17)
(-3.46518 -11.0077 -2.87646e-17)
(14.9172 -25.6221 -7.43514e-19)
(22.3656 -33.5266 -2.61234e-17)
(24.8722 -37.6633 2.72158e-17)
(25.5785 -39.6213 6.22763e-19)
(25.7215 -40.0766 7.62177e-19)
(25.6628 -39.1006 2.9739e-17)
(25.4515 -36.5585 3.00753e-17)
(25.0455 -32.5829 -6.13186e-17)
(24.2138 -27.8929 5.72932e-17)
(22.6913 -23.7878 -1.10481e-16)
(20.7788 -21.4709 5.39154e-17)
(19.0725 -20.9268 0)
(17.5149 -21.0733 0)
(15.7231 -21.4437 -3.06217e-17)
(13.5719 -21.9611 5.64377e-18)
(11.0054 -22.4702 2.63244e-17)
(8.03853 -22.9115 -1.82189e-17)
(4.77121 -23.283 3.38148e-17)
(1.29345 -23.6071 -1.58803e-17)
(-2.29897 -23.7845 -1.13992e-17)
(-5.88561 -23.6941 1.8036e-18)
(-9.31072 -23.2381 9.36647e-18)
(-12.3653 -22.3577 -4.52353e-20)
(-14.8057 -21.0638 4.10434e-20)
(-16.4187 -19.4335 -7.06692e-20)
(-17.079 -17.5739 0)
(-16.7721 -15.5783 6.46737e-20)
(-15.5943 -13.5183 -1.45471e-18)
(-13.7347 -11.4678 1.42072e-18)
(-11.4263 -9.48722 0)
(-8.90124 -7.60038 -4.19382e-18)
(-6.37015 -5.80799 4.21708e-18)
(-4.00782 -4.10233 0)
(-1.93883 -2.47395 0)
(-0.230779 -0.917156 -4.0779e-18)
(1.1019 0.565374 4.18378e-18)
(2.08777 1.96325 3.69207e-20)
(2.78524 3.26501 0)
(3.26205 4.45543 2.34959e-18)
(3.58337 5.5224 -5.48057e-19)
(3.80639 6.46295 -1.98638e-18)
(3.97202 7.26822 -3.26099e-20)
(4.11718 7.94763 1.83129e-20)
(4.26898 8.51568 0)
(4.44108 8.98118 2.25559e-19)
(4.63728 9.34395 -7.17736e-19)
(4.85795 9.60255 5.7754e-19)
(5.10333 9.75756 1.32945e-19)
(5.36921 9.80737 1.47297e-18)
(5.65724 9.75556 3.53052e-20)
(5.97255 9.60138 -3.1635e-18)
(6.32737 9.34872 1.23406e-18)
(6.73468 8.99648 0)
(7.20595 8.54168 0)
(7.74785 7.98515 -2.37332e-19)
(8.35798 7.33557 -2.36026e-19)
(9.02239 6.6094 0)
(9.71802 5.82926 -3.33305e-18)
(10.4169 5.02114 3.27489e-18)
(11.0853 4.21144 3.59445e-18)
(11.678 3.42592 2.65355e-19)
(12.1339 2.69049 -2.61691e-18)
(12.3841 2.03118 2.65698e-18)
(12.3715 1.47188 -2.59657e-18)
(12.0702 1.03069 -1.4605e-20)
(11.4947 0.71703 -1.84306e-18)
(10.6941 0.530613 1.80657e-18)
(9.73962 0.461785 1.58225e-18)
(8.71237 0.492362 -1.98838e-18)
(7.6957 0.59636 1.39506e-18)
(6.77095 0.740991 -1.56683e-18)
(6.0125 0.88914 1.46668e-18)
(5.4788 1.00426 -2.82888e-18)
(5.20069 1.05767 1.47516e-20)
(5.17892 1.07256 2.55096e-20)
(-30.1071 17.3016 -5.19701e-17)
(-74.3933 36.6565 -4.05514e-19)
(-98.5968 54.8271 7.39783e-17)
(-107.637 52.9561 -1.46259e-16)
(-102.337 46.6497 7.26658e-17)
(-90.2935 33.4139 -6.27762e-17)
(-74.2427 15.9321 5.34897e-18)
(-55.5356 -3.78217 6.00867e-17)
(-34.6913 -25.1946 -4.77984e-17)
(-10.894 -48.3068 4.76127e-17)
(16.8638 -73.6037 -3.15801e-17)
(46.5784 -99.7952 3.22892e-17)
(69.208 -119.877 -1.23298e-17)
(71.8167 -122.274 1.23254e-17)
(52.5975 -105.399 -2.21374e-19)
(29.5867 -84.3866 -1.73561e-19)
(18.5046 -69.6412 9.1684e-18)
(13.6701 -59.3849 -9.34805e-18)
(8.80472 -52.3148 1.94525e-19)
(5.17267 -47.2422 2.06762e-19)
(2.51833 -42.9814 8.82026e-18)
(0.203101 -39.2738 -8.59685e-18)
(-1.76283 -36.0061 0)
(-3.27092 -33.0757 -1.32157e-19)
(-4.28052 -30.418 0)
(-4.7919 -27.997 0)
(-4.81702 -25.799 -6.0707e-20)
(-4.38212 -23.8111 -8.0649e-19)
(-3.53779 -21.9937 8.60226e-19)
(-2.37009 -20.2909 -8.71591e-19)
(-1.00721 -18.6644 9.53926e-19)
(0.400119 -17.1034 -4.11645e-20)
(1.71099 -15.6179 2.33787e-20)
(2.82405 -14.2166 0)
(3.68451 -12.9004 7.0945e-20)
(4.27098 -11.6688 0)
(4.58578 -10.5172 0)
(4.65108 -9.43623 6.00822e-20)
(4.50673 -8.41456 0)
(4.20524 -7.44198 0)
(3.80372 -6.51061 -6.90327e-19)
(3.35586 -5.61482 7.888e-19)
(2.90631 -4.75023 0)
(2.48803 -3.9154 0)
(2.12347 -3.10937 0)
(1.82443 -2.3326 3.26621e-20)
(1.59324 -1.59015 3.29314e-20)
(1.42954 -0.885359 -3.76178e-19)
(1.33261 -0.22338 3.58994e-19)
(1.3018 0.388263 -6.83458e-19)
(1.33813 0.941946 7.72941e-19)
(1.44519 1.43223 -1.18306e-19)
(1.62869 1.85519 -7.55096e-20)
(1.89623 2.20904 0)
(2.25412 2.48913 0)
(2.70606 2.68746 1.50934e-18)
(3.25503 2.80308 3.41655e-19)
(3.89589 2.83646 -1.78626e-18)
(4.61531 2.79291 1.91906e-18)
(5.39312 2.67952 -1.87363e-18)
(6.20612 2.50181 -3.56314e-18)
(7.03073 2.26311 3.78553e-20)
(7.84044 1.96604 6.97933e-18)
(8.59856 1.61561 -3.48763e-18)
(9.2526 1.22274 -1.87832e-19)
(9.73839 0.805446 -3.83782e-19)
(9.99653 0.387007 -2.74729e-18)
(9.99373 -0.00768015 5.21977e-18)
(9.7358 -0.355476 -2.47509e-18)
(9.26373 -0.636961 -2.84878e-19)
(8.63711 -0.837289 -1.95803e-18)
(7.91774 -0.947012 2.13078e-18)
(7.16282 -0.963607 0)
(6.42659 -0.893257 2.08684e-19)
(5.76348 -0.751642 0)
(5.22692 -0.562789 -1.41599e-18)
(4.8627 -0.355881 1.62011e-20)
(4.69904 -0.160121 1.31578e-18)
(4.73878 0.00487342 -9.44717e-19)
(4.94978 0.125349 -2.67641e-19)
(-8.34826 7.75639 -4.35266e-17)
(-16.7199 14.8077 6.54541e-17)
(-14.6457 19.7166 3.25794e-19)
(-12.8309 23.1912 6.1171e-17)
(-14.6671 29.4798 -6.24725e-17)
(-19.1408 37.0281 5.61294e-17)
(-25.3666 44.9238 -1.09183e-16)
(-32.4703 52.1073 5.33464e-17)
(-39.3317 57.5172 -4.32996e-17)
(-43.7172 59.7435 4.41613e-17)
(-42.1354 56.5666 0)
(-30.7545 45.4622 3.78028e-19)
(-7.00081 25.2343 -3.0344e-19)
(27.9381 -2.63309 0)
(66.7987 -32.4979 0)
(96.6496 -53.8927 0)
(101.698 -57.0437 0)
(77.7489 -45.7755 1.12365e-19)
(45.6895 -35.171 0)
(25.5713 -31.171 -8.30393e-18)
(17.3129 -30.3411 8.06711e-18)
(13.7391 -30.0838 1.27799e-17)
(11.3645 -29.6668 -1.31832e-17)
(9.60992 -28.9188 -9.41677e-18)
(8.4326 -27.9331 9.67806e-18)
(7.77525 -26.8192 -6.03731e-18)
(7.53699 -25.6157 6.18127e-18)
(7.56964 -24.3391 -2.93503e-18)
(7.71814 -23.0171 1.37897e-18)
(7.85673 -21.6898 1.52228e-18)
(7.88677 -20.398 0)
(7.73721 -19.1856 -1.07681e-19)
(7.39034 -18.0954 -1.06266e-19)
(6.89669 -17.1585 0)
(6.33943 -16.3791 -7.14716e-20)
(5.77995 -15.7194 0)
(5.23908 -15.1188 0)
(4.71382 -14.5272 -1.99948e-18)
(4.19904 -13.9185 3.67364e-18)
(3.69479 -13.2831 -1.78796e-18)
(3.20623 -12.6197 -1.38751e-18)
(2.74049 -11.9296 1.43113e-18)
(2.30443 -11.2146 3.08347e-20)
(1.90395 -10.4783 0)
(1.54473 -9.72628 -9.96768e-19)
(1.23297 -8.96496 9.11111e-19)
(0.974713 -8.20131 0)
(0.776728 -7.44266 0)
(0.64603 -6.69631 9.24834e-19)
(0.590125 -5.96755 -1.02937e-18)
(0.616342 -5.26325 -1.2563e-18)
(0.731469 -4.58975 1.19488e-18)
(0.941142 -3.95354 1.40427e-18)
(1.24984 -3.35897 -2.73663e-18)
(1.65867 -2.81369 1.40607e-18)
(2.16388 -2.32591 3.70396e-19)
(2.75753 -1.9023 0)
(3.42664 -1.54973 -1.81488e-19)
(4.15286 -1.27468 1.47305e-18)
(4.91119 -1.08189 -3.05155e-18)
(5.66849 -0.973066 1.61677e-18)
(6.38278 -0.945791 0)
(7.00504 -0.992784 2.08209e-19)
(7.48605 -1.10191 0)
(7.78868 -1.25717 1.88446e-19)
(7.90137 -1.44077 1.48963e-19)
(7.84347 -1.635 2.81268e-19)
(7.65559 -1.82261 2.23423e-18)
(7.38022 -1.98561 -1.93495e-18)
(7.04732 -2.1051 2.32258e-19)
(6.6746 -2.1638 1.79835e-18)
(6.27771 -2.15008 -2.17919e-18)
(5.87963 -2.06073 1.57726e-18)
(5.51262 -1.90143 -1.53389e-18)
(5.21381 -1.68553 1.5824e-18)
(5.01749 -1.43217 -1.20724e-18)
(4.94715 -1.16361 -1.27903e-18)
(5.0093 -0.901473 1.23953e-18)
(5.19142 -0.662255 -3.03163e-19)
(5.46121 -0.473856 2.91726e-19)
(-11.6141 7.11986 1.30748e-17)
(-48.2471 23.9355 1.88498e-17)
(-79.386 41.7027 -3.89584e-17)
(-88.8129 46.7658 3.87044e-17)
(-78.2147 44.8821 -1.96232e-17)
(-61.732 41.8371 -3.07726e-19)
(-49.699 41.4193 2.23783e-17)
(-45.2434 43.979 -4.69953e-17)
(-44.7643 48.1593 -4.02176e-19)
(-42.6825 52.0635 2.58456e-17)
(-34.9902 53.5465 1.76514e-19)
(-20.2001 50.8884 -2.03404e-17)
(0.106517 43.6794 2.0662e-17)
(21.2891 33.015 -1.32667e-17)
(35.9273 22.2181 1.35116e-17)
(34.7286 17.3484 7.7859e-18)
(12.5677 21.9606 -7.93107e-18)
(-18.0034 29.5357 -1.122e-19)
(-33.9069 29.9847 0)
(-29.6314 22.9911 4.50939e-18)
(-16.9767 14.3919 -4.45716e-18)
(-5.92503 7.3512 -2.12882e-19)
(1.27448 2.2121 -5.64953e-18)
(5.69144 -1.54018 5.90699e-18)
(8.50469 -4.46638 -1.3242e-19)
(10.4414 -6.91973 0)
(11.883 -9.07288 1.33041e-19)
(12.9567 -10.9624 1.70797e-19)
(13.6059 -12.5193 7.79944e-18)
(13.6466 -13.5963 -8.01456e-18)
(12.8815 -14.0523 -6.29317e-18)
(11.3538 -13.886 6.38126e-18)
(9.44381 -13.2995 -3.33287e-20)
(7.62246 -12.6598 4.40711e-18)
(6.2289 -12.3401 -7.95552e-18)
(5.38269 -12.4383 3.63957e-18)
(4.96449 -12.7383 2.3444e-18)
(4.74784 -12.9867 -2.38636e-18)
(4.55812 -13.0685 4.00957e-20)
(4.32205 -12.977 1.13611e-20)
(4.04089 -12.7509 -4.07865e-20)
(3.74207 -12.4278 8.49114e-19)
(3.4503 -12.0306 -1.35476e-19)
(3.18023 -11.5727 -7.4594e-19)
(2.94071 -11.0647 7.09314e-19)
(2.73933 -10.5172 -6.57191e-19)
(2.58391 -9.93963 0)
(2.48218 -9.34004 -7.48406e-19)
(2.44105 -8.7253 7.78982e-19)
(2.46597 -8.1017 -7.97349e-19)
(2.56063 -7.47562 -1.67979e-20)
(2.72645 -6.85387 -8.13199e-20)
(2.96216 -6.24403 -8.03116e-20)
(3.26323 -5.65407 -7.58624e-20)
(3.62188 -5.09271 1.12724e-18)
(4.026 -4.56868 -1.11154e-19)
(4.45928 -4.09032 0)
(4.90126 -3.66513 1.47348e-18)
(5.32842 -3.29888 -1.0897e-18)
(5.71637 -2.99529 0)
(6.04344 -2.75611 1.40655e-18)
(6.29582 -2.58113 -1.11591e-18)
(6.47245 -2.46836 0)
(6.58601 -2.41344 1.28054e-19)
(6.65688 -2.40786 0)
(6.70127 -2.43733 1.97721e-18)
(6.72169 -2.48222 -4.26962e-18)
(6.70757 -2.52133 1.97651e-18)
(6.64563 -2.5366 -2.48318e-19)
(6.53104 -2.51581 -2.32491e-19)
(6.37233 -2.45233 1.61971e-18)
(6.18917 -2.34352 -1.37363e-18)
(6.00703 -2.18994 1.70334e-19)
(5.85213 -1.99567 1.61634e-19)
(5.74735 -1.7689 -3.24716e-19)
(5.70883 -1.5217 -1.62563e-19)
(5.74312 -1.26862 -1.30523e-18)
(5.84583 -1.02422 2.6659e-20)
(6.00299 -0.801123 1.19306e-18)
(6.19315 -0.622133 2.35281e-19)
(-10.7111 4.29263 0)
(-25.5408 5.70281 2.49849e-19)
(-21.4718 7.75364 1.60361e-19)
(-0.132649 -2.30981 7.60194e-17)
(31.2042 -10.5744 -1.49844e-16)
(48.9684 -12.9038 1.41792e-16)
(40.2087 -5.52905 -6.96169e-17)
(15.7977 7.00873 0)
(-4.39771 18.2486 -2.51425e-19)
(-13.3129 25.2032 5.01373e-17)
(-15.4282 28.3609 -5.14992e-17)
(-14.6588 29.0696 -4.1199e-17)
(-12.4714 27.9991 7.89806e-17)
(-10.2027 25.5401 -4.90594e-18)
(-9.55963 22.5746 -4.81022e-18)
(-11.4472 20.3674 -2.82332e-17)
(-13.9821 19.5656 -1.57255e-19)
(-13.2447 19.3771 1.77595e-17)
(-7.73454 19.0378 -1.79394e-17)
(0.26931 18.4662 -1.3468e-19)
(7.79633 17.7562 -4.27585e-20)
(13.2141 17.1216 1.82624e-19)
(16.2987 16.7097 5.61565e-18)
(17.474 16.4889 -1.28454e-18)
(17.2816 16.2994 -4.49306e-18)
(16.1823 15.9528 9.27282e-20)
(14.5886 15.1678 3.06122e-18)
(12.8912 13.7187 -6.7087e-18)
(11.377 11.5621 6.65513e-18)
(10.2801 8.68818 -3.37314e-18)
(9.93973 5.14835 0)
(10.4599 0.982222 4.41462e-18)
(10.8919 -3.0077 -6.86854e-18)
(9.79081 -5.40528 2.55355e-18)
(7.36555 -6.35477 1.67632e-20)
(5.40245 -7.15196 -2.74149e-19)
(4.82169 -8.20139 2.82911e-20)
(5.08252 -9.15175 0)
(5.41963 -9.77447 9.12571e-20)
(5.52958 -10.0926 -5.464e-19)
(5.46249 -10.2373 6.04313e-19)
(5.33918 -10.3012 -5.79862e-20)
(5.2266 -10.3011 5.29955e-20)
(5.13418 -10.2171 0)
(5.05155 -10.0396 0)
(4.97477 -9.77955 1.96458e-19)
(4.90973 -9.45645 -3.08112e-19)
(4.86666 -9.08859 1.92529e-20)
(4.85468 -8.68924 9.50313e-20)
(4.87953 -8.26746 -2.95926e-19)
(4.94323 -7.83011 2.15312e-19)
(5.04448 -7.38332 0)
(5.17924 -6.93326 -5.47153e-19)
(5.34115 -6.48628 5.28577e-19)
(5.52218 -6.04881 0)
(5.71343 -5.62706 -8.22313e-19)
(5.90622 -5.22666 7.52249e-19)
(6.09341 -4.85225 -8.5164e-19)
(6.27048 -4.50716 7.55685e-19)
(6.43619 -4.19306 0)
(6.59162 -3.90969 -2.26205e-19)
(6.73787 -3.6548 -1.34012e-19)
(6.87303 -3.42461 8.90153e-19)
(6.99024 -3.21483 -1.26386e-19)
(7.07873 -3.02198 -8.57887e-19)
(7.12779 -2.84413 0)
(7.13156 -2.68037 -1.1473e-19)
(7.09167 -2.52923 0)
(7.01644 -2.38708 0)
(6.9178 -2.24789 1.42902e-18)
(6.80854 -2.10448 -1.39317e-18)
(6.70091 -1.95064 -1.15667e-18)
(6.60634 -1.7829 -1.44305e-19)
(6.53492 -1.6014 1.04817e-18)
(6.49431 -1.40981 1.27905e-18)
(6.48834 -1.21456 -1.09277e-18)
(6.51601 -1.02368 1.37812e-19)
(6.57174 -0.845129 9.58641e-19)
(6.6472 -0.685353 -2.06223e-18)
(6.73201 -0.557565 6.51076e-19)
(6.03923 -0.460962 6.11708e-17)
(30.2384 -3.505 -4.53019e-17)
(58.2073 -11.1955 -3.92517e-17)
(79.9928 -12.3521 4.01679e-17)
(91.3377 -12.6177 -1.59945e-19)
(94.8867 -10.4875 -1.60284e-19)
(92.2265 -6.43554 0)
(85.564 -0.294592 1.75057e-17)
(76.6056 7.71523 -1.8062e-17)
(67.0227 16.4097 0)
(58.2364 24.4956 -8.1586e-18)
(50.9357 31.1858 1.4633e-17)
(45.1845 36.243 -1.78925e-18)
(40.715 39.8292 -9.03202e-18)
(37.2332 42.3631 3.87747e-18)
(34.5668 44.2588 -1.78573e-19)
(32.8057 45.7448 4.5061e-19)
(32.1619 46.7557 0)
(32.5095 47.1125 3.25631e-18)
(33.2009 46.8238 -3.41616e-18)
(33.3565 46.1743 3.02925e-19)
(32.3543 45.525 6.75499e-18)
(30.0512 45.0669 -6.55419e-18)
(26.6277 44.7752 8.52602e-18)
(22.4101 44.51 -8.61216e-18)
(17.6957 44.1872 -9.20316e-20)
(12.8937 43.7607 9.68549e-18)
(8.42953 42.9463 -2.57958e-19)
(4.55015 41.7016 -1.81109e-17)
(1.34641 40.0746 3.10987e-19)
(-1.17274 38.0391 8.15399e-18)
(-2.85492 35.3946 6.75264e-18)
(-3.42267 31.9686 -7.14777e-18)
(-2.85855 27.8107 0)
(-1.3201 23.1903 1.31292e-19)
(1.17041 18.4333 1.19856e-19)
(4.30746 13.6401 0)
(7.18083 8.88507 4.4902e-18)
(8.7907 4.54655 -4.60109e-18)
(8.95582 0.979927 -6.65493e-20)
(8.44504 -1.809 0)
(7.97396 -3.94985 5.76515e-20)
(7.75455 -5.54776 2.67019e-18)
(7.67198 -6.63896 -2.66302e-18)
(7.57808 -7.27804 0)
(7.41691 -7.5719 -1.44495e-18)
(7.20948 -7.63788 1.583e-18)
(7.00271 -7.56869 0)
(6.83503 -7.42131 0)
(6.72595 -7.22466 -1.24708e-20)
(6.67937 -6.99154 -2.7662e-21)
(6.68971 -6.7276 0)
(6.74686 -6.43618 1.21676e-21)
(6.83922 -6.12063 1.22759e-20)
(6.95555 -5.7852 2.31799e-19)
(7.08589 -5.4353 8.32481e-20)
(7.22184 -5.07726 -7.09286e-19)
(7.3563 -4.71793 8.44423e-19)
(7.48291 -4.36418 1.40858e-19)
(7.59532 -4.02249 -4.52605e-19)
(7.68698 -3.69858 9.07257e-20)
(7.75161 -3.3971 0)
(7.78447 -3.12142 0)
(7.78389 -2.87321 -6.18396e-19)
(7.75211 -2.6522 6.69036e-19)
(7.69478 -2.45596 0)
(7.6192 -2.2802 -6.36813e-20)
(7.5325 -2.11949 0)
(7.44061 -1.96827 -5.80654e-19)
(7.34832 -1.82178 5.6659e-19)
(7.25987 -1.67649 -1.19047e-19)
(7.17925 -1.53038 -1.19903e-18)
(7.11015 -1.38297 1.02246e-18)
(7.05546 -1.23526 -1.07422e-19)
(7.01675 -1.08955 0)
(6.99387 -0.949111 0)
(6.9851 -0.817534 0)
(6.9877 -0.697917 8.86633e-19)
(6.99914 -0.591729 8.86922e-20)
(7.0161 -0.506853 -1.46077e-18)
(9.50693 -3.32442 1.61771e-17)
(22.0269 -8.73405 2.48886e-17)
(30.2827 -10.9714 -2.54049e-17)
(36.1237 -13.9857 2.61015e-17)
(41.5521 -16.0534 -2.66795e-17)
(44.3509 -17.2453 -1.06956e-19)
(44.3135 -17.1121 -1.14095e-19)
(42.2054 -15.526 0)
(38.5208 -12.8394 1.80689e-19)
(33.0957 -9.31683 0)
(25.4001 -5.38752 -1.6024e-19)
(15.7441 -1.93482 -3.67591e-17)
(6.45124 -0.110651 3.72833e-17)
(0.699773 -0.503239 3.63001e-17)
(-0.481078 -2.20744 -3.67698e-17)
(1.15953 -3.47661 3.45359e-17)
(3.15315 -3.46157 -3.6004e-17)
(4.3206 -2.4849 0)
(4.92657 -0.928453 0)
(5.43933 1.23726 0)
(6.11634 3.63242 -2.71832e-17)
(6.90068 5.83923 5.39167e-17)
(7.156 8.28262 -9.42981e-19)
(6.11658 11.1554 -5.27357e-17)
(3.35135 13.9887 2.69764e-17)
(-0.961896 16.4623 0)
(-5.93843 18.8595 5.77804e-19)
(-10.5283 21.0764 0)
(-14.0307 22.9862 -2.1504e-17)
(-16.1386 24.3854 2.12166e-17)
(-16.9581 25.2082 -6.32468e-20)
(-16.8825 25.6021 0)
(-16.4016 25.6948 1.34622e-17)
(-15.9627 25.5484 -2.46176e-17)
(-15.8422 25.2496 1.14016e-17)
(-16.0789 24.8198 -7.35171e-18)
(-16.5326 24.0919 1.31717e-17)
(-16.8176 22.8095 -5.80536e-18)
(-16.413 20.8654 0)
(-14.8851 18.3606 0)
(-12.0555 15.3928 0)
(-8.29706 12.1148 8.46343e-19)
(-4.34547 8.79742 -1.85148e-18)
(-0.915951 5.72944 9.41311e-19)
(1.62225 3.08349 0)
(3.28816 0.889271 -1.52235e-19)
(4.3346 -0.88249 1.23277e-19)
(5.04236 -2.29126 1.42639e-19)
(5.60258 -3.39567 -1.14502e-20)
(6.1072 -4.23792 3.79975e-20)
(6.5851 -4.8495 1.78958e-20)
(7.03666 -5.25811 -2.40664e-19)
(7.45281 -5.49121 0)
(7.82312 -5.5763 0)
(8.13879 -5.54022 -6.18615e-20)
(8.39374 -5.40843 1.18058e-19)
(8.58493 -5.20423 0)
(8.7124 -4.94837 0)
(8.77917 -4.65879 2.07086e-21)
(8.79104 -4.35054 -4.61251e-20)
(8.75621 -4.03584 0)
(8.68469 -3.72417 0)
(8.58719 -3.42241 2.85338e-20)
(8.4738 -3.13502 3.32469e-20)
(8.35273 -2.86438 -4.65525e-19)
(8.22967 -2.61132 8.08211e-19)
(8.10797 -2.37565 7.85757e-20)
(7.98938 -2.15662 -8.31624e-19)
(7.87501 -1.95317 8.72967e-19)
(7.76597 -1.7641 -8.22047e-19)
(7.66354 -1.58821 1.59036e-19)
(7.56914 -1.42447 3.94774e-19)
(7.48406 -1.27213 -7.67295e-19)
(7.40925 -1.1308 3.25087e-20)
(7.34518 -1.00047 1.43539e-18)
(7.29183 -0.881314 -7.67898e-19)
(7.24881 -0.773567 0)
(7.21562 -0.677074 -1.58369e-19)
(7.19219 -0.590679 0)
(7.17742 -0.520922 5.76057e-19)
(13.6188 -4.13332 0)
(37.4524 -10.43 -3.10313e-20)
(59.1817 -15.8361 2.96185e-20)
(77.7367 -19.6671 7.7091e-19)
(91.1866 -22.6211 -7.66069e-19)
(98.5643 -24.8509 2.1934e-19)
(101.04 -26.4258 1.1612e-19)
(98.8706 -26.6801 0)
(89.2358 -24.2048 0)
(67.6169 -17.6533 0)
(32.704 -6.83211 1.65713e-19)
(-7.7833 5.51 1.24569e-19)
(-38.139 13.0832 0)
(-48.0109 10.4841 4.52078e-20)
(-43.5075 0.199286 -2.06834e-19)
(-36.728 -10.6182 -5.3616e-18)
(-30.8218 -19.271 5.97165e-18)
(-23.4866 -26.3097 -3.83284e-20)
(-14.3247 -31.9727 0)
(-4.5617 -36.5301 4.2885e-20)
(3.07867 -39.6578 -2.05607e-19)
(4.78342 -40.1488 1.83204e-18)
(0.187962 -37.8451 3.23054e-18)
(-6.65264 -34.3892 -4.88009e-18)
(-12.4726 -31.2222 -5.69126e-19)
(-16.7871 -28.4292 1.19105e-19)
(-19.98 -25.6796 -1.43587e-17)
(-22.2238 -23.0143 1.34217e-17)
(-23.6246 -20.4407 2.75541e-19)
(-24.3753 -18.0163 5.43744e-19)
(-24.6772 -15.7002 4.98943e-19)
(-24.6887 -13.5709 -1.07007e-17)
(-24.4638 -11.7033 1.07894e-17)
(-23.9669 -10.1297 5.21704e-19)
(-23.1352 -8.84962 -2.70552e-19)
(-21.9283 -7.81921 1.44879e-19)
(-20.3404 -6.96699 -1.22458e-19)