/*--------------------------------*- C++ -*----------------------------------*\
| =========                 |                                                 |
| \\      /  F ield         | OpenFOAM: The Open Source CFD Toolbox           |
|  \\    /   O peration     | Version:  2012                                  |
|   \\  /    A nd           | Website:  www.openfoam.com                      |
|    \\/     M anipulation  |                                                 |
\*---------------------------------------------------------------------------*/
FoamFile
{
    version     2.0;
    format      ascii;
    class       surfaceScalarField;
    location    "0.37";
    object      phi;
}
// * * * * * * * * * * * * * * * * * * * * * * * * * * * * * * * * * * * * * //

dimensions      [0 3 -1 0 0 0 0];
oriented        oriented;


internalField   nonuniform List<scalar> 
84340
(
-0.000629908
0.000219641
0.000410267
-0.0014627
0.000238907
0.000593882
-0.00215315
0.000164074
0.000526379
-0.00279428
0.000156979
0.000484151
-0.00346023
0.000181023
0.000484929
-0.00415509
0.000207986
0.000486868
-0.0048469
0.000221734
0.000470078
-0.00549789
0.000221026
0.000429964
-0.0060798
0.000209573
0.000372335
-0.00657708
0.000189353
0.000307933
-0.00698398
0.000160573
0.000246327
-0.00729846
0.000123612
0.000190869
-0.00751658
7.98375e-05
0.000138282
-0.00763152
3.13095e-05
8.36303e-05
-0.00763531
-2.05199e-05
2.43099e-05
-0.00753073
-7.51507e-05
-2.94338e-05
-0.00732734
-0.000133154
-7.02396e-05
-0.00703795
-0.000196116
-9.32736e-05
-0.00667661
-0.0002633
-9.80322e-05
-0.00625667
-0.000332594
-8.73544e-05
-0.00579064
-0.000401178
-6.48452e-05
-0.00529162
-0.000465904
-3.31175e-05
-0.00477467
-0.000523592
6.63922e-06
-0.00425738
-0.000570977
5.3684e-05
-0.00375933
-0.000604504
0.000106461
-0.00330067
-0.000620547
0.000161887
-0.00289967
-0.000616711
0.000215705
-0.00256997
-0.000593446
0.000263752
-0.00231746
-0.000555172
0.000302663
-0.00213922
-0.000508566
0.000330324
-0.00202493
-0.000460547
0.000346252
-0.00195991
-0.000416264
0.00035125
-0.00192875
-0.000378631
0.000347471
-0.00191773
-0.000348237
0.000337213
-0.00191618
-0.000323772
0.000322216
-0.00191697
-0.00030277
0.000303567
-0.00191578
-0.000282982
0.000281791
-0.00191012
-0.000262851
0.000257191
-0.00189854
-0.000241535
0.000229957
-0.00188001
-0.000218741
0.000200204
-0.00185355
-0.000194457
0.000167997
-0.00181793
-0.000168815
0.000133199
-0.0017715
-0.000142061
9.56314e-05
-0.00171255
-0.000114592
5.56398e-05
-0.00164394
-8.69641e-05
1.83509e-05
-0.00156383
-5.92579e-05
-2.08455e-05
-0.00147221
-3.16937e-05
-5.99302e-05
-0.00136903
-5.61099e-06
-9.75663e-05
-0.00125518
1.88437e-05
-0.000132697
-0.00113199
4.12838e-05
-0.000164472
-0.00100112
6.13881e-05
-0.000192265
-0.000864347
7.88863e-05
-0.000215655
-0.000723581
9.35904e-05
-0.000234356
-0.000580797
0.000105393
-0.000248177
-0.000438053
0.000114276
-0.00025702
-0.000297425
0.00012031
-0.000260938
-0.000160906
0.000123674
-0.000260193
-3.02457e-05
0.000124601
-0.000255261
9.31918e-05
0.00012333
-0.000246767
0.000208398
0.000120151
-0.000235357
0.000314749
0.000115231
-0.000221582
0.000411953
0.000108597
-0.0002058
0.000499989
0.000100098
-0.000188134
0.000579075
8.93897e-05
-0.000168476
0.000649735
7.58733e-05
-0.000146533
0.000712627
5.89925e-05
-0.000121885
0.000768654
3.80483e-05
-9.40747e-05
0.000818955
1.23961e-05
-6.26969e-05
0.000864339
-1.78663e-05
-2.75181e-05
0.000905777
-5.2926e-05
1.1489e-05
0.000944172
-9.24518e-05
5.40571e-05
0.000979991
-0.000135473
9.9654e-05
0.0010132
-0.000180748
0.000147543
0.00104315
-0.000226918
0.000196963
0.00106865
-0.000272851
0.000247356
0.00108811
-0.000318064
0.000298599
0.00110009
-0.000363114
0.000351138
0.00110396
-0.00040979
0.000405916
0.00110099
-0.000461084
0.000464052
-0.000518345
0.000526977
0.00109236
0.000223261
-3.61961e-06
0.000374828
8.73398e-05
0.0003606
0.000178302
0.000322643
0.000194936
0.000381616
0.000122051
0.000604125
-1.45229e-05
0.000998767
-0.000172909
0.00153639
-0.000316594
0.00217751
-0.000431549
0.00288675
-0.000519891
0.00363401
-0.000586682
0.00439085
-0.000633227
0.00512768
-0.000656992
0.00581302
-0.000654034
0.00641437
-0.000621868
0.00690059
-0.000561367
0.00724485
-0.000477413
0.00742695
-0.000378219
0.00743669
-0.000273036
0.00727361
-0.00016952
0.00694641
-7.39719e-05
0.00647301
7.48844e-06
0.00588124
6.81794e-05
0.00520706
0.000103204
0.00448883
0.000113728
0.00376014
0.000108142
0.00304608
9.73506e-05
0.00236347
8.91652e-05
0.00172813
8.01625e-05
0.00114991
6.96616e-05
0.00063526
5.41013e-05
0.000187138
3.18584e-05
-0.000195855
4.36142e-06
-0.00051853
-2.55606e-05
-0.000788393
-5.39091e-05
-0.00100921
-8.19485e-05
-0.00118425
-0.000107942
-0.00132016
-0.000126939
-0.00142117
-0.000140525
-0.00149054
-0.000149373
-0.00153094
-0.000154063
-0.00154463
-0.000155125
-0.00153355
-0.00015314
-0.00149953
-0.000148609
-0.00144454
-0.000141956
-0.0013702
-0.000133598
-0.00127795
-0.000123943
-0.00117014
-0.000113416
-0.00104889
-0.000102412
-0.000916333
-9.12703e-05
-0.00077478
-8.01651e-05
-0.000626371
-6.95226e-05
-0.000473249
-5.95321e-05
-0.000317528
-5.03276e-05
-0.000161282
-4.19708e-05
-6.46108e-06
-3.45112e-05
0.000145051
-2.78383e-05
0.000291273
-2.16213e-05
0.000431847
-1.72448e-05
0.000565514
-1.35157e-05
0.000691588
-1.08427e-05
0.000809713
-9.52834e-06
0.000919725
-9.91503e-06
0.00102091
-1.17984e-05
0.00111516
-1.83757e-05
0.00120208
-2.79255e-05
0.00128285
-4.27214e-05
0.00135732
-6.2073e-05
0.00142606
-8.66118e-05
0.00148949
-0.000116352
0.0015478
-0.000150758
0.00160112
-0.000188798
0.00164939
-0.000229019
0.0016922
-0.000269723
0.00172861
-0.000309268
0.00175707
-0.000346524
0.00177543
-0.000381473
0.00178147
-0.000415827
0.00177329
-0.000452903
-0.000503183
0.00175813
3.56653e-05
-3.9285e-05
-3.72444e-05
0.00016025
-0.000273927
0.000414984
-0.000591958
0.000512967
-0.000900976
0.000431069
-0.00114968
0.000234178
-0.0013174
-5.19024e-06
-0.00139948
-0.000234514
-0.0014055
-0.000425528
-0.00135125
-0.00057414
-0.00125888
-0.000679046
-0.00114715
-0.00074496
-0.00102909
-0.000775052
-0.000912439
-0.000770687
-0.000799823
-0.000734484
-0.000690314
-0.000670876
-0.000581986
-0.000585741
-0.000474883
-0.000485322
-0.000368983
-0.000378937
-0.000270908
-0.000267595
-0.000189074
-0.000155807
-0.000132071
-4.95143e-05
-0.000107634
4.37421e-05
-0.000122805
0.000118376
-0.000182684
0.000173606
-0.000285682
0.00021114
-0.000421418
0.000233086
-0.000574486
0.000242233
-0.000734766
0.000240443
-0.000892805
0.0002277
-0.00104203
0.000203329
-0.00117953
0.000169354
-0.00130365
0.000128478
-0.00141292
8.37153e-05
-0.00150595
3.91201e-05
-0.00158463
-3.26692e-06
-0.00165003
-4.25459e-05
-0.00169855
-7.84174e-05
-0.00172853
-0.000110545
-0.00173917
-0.000138735
-0.00173027
-0.000162966
-0.00170205
-0.000183343
-0.00165512
-0.000200065
-0.00159033
-0.000213402
-0.00150863
-0.000223654
-0.00141109
-0.000231137
-0.00129886
-0.000236174
-0.0011732
-0.000239079
-0.00103546
-0.00024015
-0.000887073
-0.00023966
-0.000729391
-0.000237848
-0.000563968
-0.000234946
-0.000392361
-0.000231139
-0.00021611
-0.000226578
-3.66949e-05
-0.000221386
0.000144463
-0.000215669
0.000326147
-0.000209523
0.000507592
-0.000203066
0.000686834
-0.000196486
0.000863262
-0.000189944
0.00103611
-0.00018369
0.00120469
-0.00017811
0.0013684
-0.000173624
0.00152738
-0.000170776
0.00167925
-0.000170252
0.00182389
-0.000172565
0.00195945
-0.000178273
0.00208506
-0.000187686
0.0021994
-0.000200951
0.002301
-0.000217959
0.00238853
-0.000238287
0.00246095
-0.000261217
0.00251772
-0.000285788
0.00255889
-0.00031089
0.00258502
-0.000335401
0.00259699
-0.000358493
0.00259537
-0.000379854
0.00258074
-0.000401198
0.00255057
-0.000422731
-0.000460858
0.00250824
-0.000306492
0.000267207
-0.000513548
0.000367306
-0.000413262
0.000314697
-0.000137516
0.000237221
0.000171483
0.000122071
0.000439677
-3.40157e-05
0.000647491
-0.000213005
0.000803604
-0.000390626
0.000925899
-0.000547824
0.00102511
-0.000673352
0.00110589
-0.000759827
0.0011614
-0.000800469
0.00117499
-0.000788645
0.00112509
-0.000720782
0.00100163
-0.000611028
0.000803367
-0.000472611
0.000530157
-0.000312531
0.000188061
-0.000143226
-0.000219064
2.81889e-05
-0.000677459
0.0001908
-0.00115795
0.00032468
-0.00161535
0.00040789
-0.00200675
0.000435143
-0.00231654
0.000428165
-0.00256314
0.000420209
-0.00277921
0.000427212
-0.00298312
0.000436996
-0.00316698
0.000426094
-0.00330717
0.00038063
-0.00338259
0.000303115
-0.00338804
0.000208781
-0.00333847
0.000119785
-0.00324995
3.99635e-05
-0.00313734
-2.89019e-05
-0.00301424
-8.39786e-05
-0.00288814
-0.000129364
-0.002763
-0.000167682
-0.00264075
-0.000200672
-0.00252182
-0.000229473
-0.00240582
-0.000254737
-0.00229184
-0.00027694
-0.00217868
-0.000296507
-0.00206493
-0.000313815
-0.00194915
-0.000329178
-0.00182997
-0.000342842
-0.00170612
-0.000354982
-0.00157658
-0.000365713
-0.00144056
-0.000375102
-0.00129753
-0.000383182
-0.00114722
-0.000389965
-0.000989605
-0.000395466
-0.000824849
-0.000399702
-0.000653291
-0.000402697
-0.000475383
-0.000404486
-0.000291654
-0.000405115
-0.000102679
-0.000404644
9.09503e-05
-0.000403152
0.000288627
-0.000400742
0.000489687
-0.000397547
0.000693481
-0.000393738
0.000899317
-0.000389526
0.00110638
-0.000385175
0.00131375
-0.000380989
0.00152028
-0.000377304
0.00172448
-0.000374459
0.00192467
-0.000372759
0.00211881
-0.000372409
0.00230461
-0.000373487
0.00247953
-0.00037587
0.0026408
-0.000379224
0.00278551
-0.000383006
0.00291082
-0.000386525
0.0030141
-0.000389066
0.00309332
-0.000390115
0.00314746
-0.000389539
0.00317701
-0.000388041
0.00318381
-0.000386653
0.00317137
-0.00038876
0.00314352
-0.000394878
-0.000414921
0.00309758
0.000279683
-1.24757e-05
0.000650654
-3.66537e-06
0.000932336
3.30157e-05
0.00122036
-5.0806e-05
0.00162767
-0.000285233
0.00216451
-0.000570855
0.00275487
-0.000803368
0.00330796
-0.000943723
0.00376783
-0.00100769
0.00411448
-0.00101999
0.00434889
-0.000994236
0.00448103
-0.000932611
0.00452076
-0.000828379
0.00448081
-0.000680834
0.00436552
-0.000495735
0.0041799
-0.000286992
0.00393037
-6.30036e-05
0.00362405
0.000163096
0.00327019
0.000382052
0.00287964
0.000581349
0.00246229
0.000742027
0.00202267
0.000847511
0.00156047
0.000897339
0.0010806
0.000908037
0.000601075
0.000899736
0.000147155
0.000881132
-0.000262073
0.000846223
-0.00061825
0.000782271
-0.000919922
0.000682301
-0.0011705
0.000553693
-0.00137728
0.000415556
-0.00154546
0.000287973
-0.00168623
0.000180728
-0.00180805
9.29153e-05
-0.00190937
1.73481e-05
-0.00199122
-4.75156e-05
-0.00205625
-0.000102649
-0.00211013
-0.000146799
-0.00214655
-0.000193054
-0.00216326
-0.00023802
-0.00215971
-0.000280491
-0.00213636
-0.000319855
-0.00209434
-0.000355842
-0.00203511
-0.000388405
-0.00196031
-0.000417641
-0.00187157
-0.000443725
-0.00177042
-0.000466867
-0.00165824
-0.00048728
-0.00153625
-0.000505166
-0.00140551
-0.000520707
-0.00126691
-0.000534065
-0.00112123
-0.000545387
-0.000969114
-0.00055481
-0.000811137
-0.000562463
-0.000647783
-0.00056847
-0.000479471
-0.000572956
-0.00030658
-0.000576043
-0.000129469
-0.000577853
5.14914e-05
-0.000578507
0.00023588
-0.000578127
0.000423187
-0.000576833
0.000612765
-0.000574753
0.000803782
-0.000572006
0.000995186
-0.000568707
0.00118567
-0.000564946
0.0013737
-0.000560785
0.00155752
-0.000556229
0.00173526
-0.000551226
0.00190504
-0.000545648
0.00206512
-0.000539305
0.00221408
-0.000531966
0.00235097
-0.000523415
0.00247544
-0.000513536
0.00258778
-0.00050246
0.00268888
-0.000490638
0.00278008
-0.000479241
0.00286289
-0.000469461
0.00293842
-0.000464284
0.00300818
-0.000464644
-0.000471605
0.00306487
0.000303868
-0.000316344
0.000696146
-0.000395943
0.00101072
-0.000281563
0.00122874
-0.000268825
0.00131148
-0.000367966
0.00121111
-0.000470486
0.000904933
-0.000497193
0.00040745
-0.00044624
-0.000244467
-0.000355777
-0.00101644
-0.000248022
-0.00188462
-0.000126058
-0.00282272
5.49906e-06
-0.00379162
0.000140521
-0.00474573
0.000273274
-0.00563621
0.000394745
-0.00641301
0.000489806
-0.00702329
0.000547275
-0.00742833
0.000568141
-0.00761052
0.000564236
-0.00757511
0.000545938
-0.00735553
0.000522446
-0.00700843
0.000500414
-0.00659263
0.000481539
-0.0061474
0.000462805
-0.00568875
0.000441092
-0.00522361
0.000415994
-0.00476479
0.000387402
-0.00433516
0.000352642
-0.00396224
0.000309382
-0.00366777
0.000259218
-0.00345729
0.000205075
-0.00331858
0.00014926
-0.00322684
8.89903e-05
-0.0031611
2.71742e-05
-0.0031035
-4.02446e-05
-0.00304626
-0.000104759
-0.00298191
-0.000167002
-0.0029021
-0.000226606
-0.00281202
-0.000283137
-0.00271383
-0.000336205
-0.00260881
-0.000385513
-0.00249791
-0.000430756
-0.00238194
-0.000471814
-0.00226163
-0.000508716
-0.00213765
-0.000541619
-0.0020106
-0.000570777
-0.00188096
-0.0005965
-0.00174911
-0.00061913
-0.00161529
-0.000638994
-0.00147961
-0.000656383
-0.00134214
-0.000671538
-0.00120288
-0.000684643
-0.00106184
-0.000695847
-0.000919029
-0.000705279
-0.000774436
-0.000713063
-0.00062806
-0.000719332
-0.000479879
-0.000724223
-0.00032986
-0.000727873
-0.000177962
-0.000730405
-2.4164e-05
-0.000731926
0.000131518
-0.000732515
0.000288989
-0.000732224
0.000448056
-0.000731073
0.000608403
-0.000729055
0.000769582
-0.000726125
0.000931011
-0.000722214
0.001092
-0.00071722
0.0012518
-0.000711025
0.00140965
-0.000703498
0.00156487
-0.000694526
0.00171694
-0.000684039
0.00186558
-0.000672051
0.00201076
-0.000658711
0.00215265
-0.000644357
0.00229154
-0.000629522
0.00242737
-0.000615079
0.0025597
-0.000601783
0.00268674
-0.000591324
0.00280556
-0.000583465
-0.00058069
0.00291464
-0.000484021
0.000167677
-0.00104288
0.000162919
-0.00127708
-4.73693e-05
-0.00135517
-0.000190737
-0.00152164
-0.000201497
-0.00187908
-0.000113038
-0.0023993
2.30265e-05
-0.00301298
0.00016744
-0.00367331
0.000304553
-0.00436769
0.00044636
-0.00509736
0.000603612
-0.00584197
0.0007501
-0.00654696
0.000845511
-0.00714906
0.000875382
-0.00759437
0.000840048
-0.00785402
0.00074946
-0.00792509
0.000618339
-0.00782547
0.000468523
-0.00758828
0.000327047
-0.00725771
0.000215372
-0.00687733
0.000142063
-0.00647962
0.000102703
-0.00608202
8.39387e-05
-0.0056894
7.01828e-05
-0.00530141
5.31061e-05
-0.00492039
3.49749e-05
-0.00455487
2.1876e-05
-0.00421753
1.53087e-05
-0.00391939
1.12344e-05
-0.00366438
4.21559e-06
-0.00344974
-9.57087e-06
-0.0032673
-3.31741e-05
-0.00311758
-6.07364e-05
-0.00299826
-9.2146e-05
-0.00290396
-0.00013454
-0.00282572
-0.000183
-0.00275614
-0.000236579
-0.00268891
-0.00029384
-0.00261903
-0.000353018
-0.00254286
-0.000412372
-0.00245818
-0.000470199
-0.00236396
-0.000524973
-0.00226031
-0.00057546
-0.00214823
-0.000620799
-0.0020293
-0.000660548
-0.00190539
-0.000694685
-0.00177833
-0.000723562
-0.00164966
-0.000747802
-0.00152049
-0.000768162
-0.00139149
-0.00078538
-0.00126297
-0.000800057
-0.00113501
-0.000812608
-0.00100758
-0.000823275
-0.00088066
-0.0008322
-0.000754227
-0.000839496
-0.000628253
-0.000845306
-0.000502663
-0.000849814
-0.000377307
-0.000853228
-0.000251965
-0.000855747
-0.000126352
-0.000857538
-1.54997e-07
-0.000858713
0.000126942
-0.000859321
0.00025522
-0.00085935
0.000384891
-0.000858726
0.000516084
-0.000857318
0.000648815
-0.000854945
0.000782982
-0.000851388
0.000918359
-0.000846401
0.00105459
-0.000839733
0.00119121
-0.000831147
0.00132763
-0.000820454
0.00146311
-0.000807536
0.00159679
-0.000792384
0.00172756
-0.000775123
0.00185405
-0.00075602
0.00197446
-0.000735487
0.00208669
-0.000714011
0.0021876
-0.00069223
0.00227468
-0.000670549
-0.000651674
0.00234566
-0.000136977
0.000304655
-0.000469752
0.000495694
-0.000907761
0.000390639
-0.00129734
0.000198841
-0.00153738
3.85445e-05
-0.0015856
-6.48189e-05
-0.00146344
-9.91343e-05
-0.00123051
-6.54829e-05
-0.000952303
2.63429e-05
-0.000678715
0.000172771
-0.000425082
0.000349979
-0.000187859
0.000512877
3.40436e-05
0.000623609
0.0002355
0.000673925
0.00039544
0.000680109
0.000482624
0.000662276
0.000471028
0.000629934
0.000354147
0.000585405
0.000147339
0.000533854
-0.000119484
0.000482195
-0.000411644
0.000434223
-0.000698016
0.000389075
-0.00095733
0.000343253
-0.0011811
0.00029395
-0.00136984
0.000241844
-0.00152641
0.000191547
-0.00165282
0.000148292
-0.00175275
0.000115231
-0.00183367
9.21535e-05
-0.00190517
7.57232e-05
-0.00197525
6.05099e-05
-0.00204944
4.10119e-05
-0.00212255
1.23774e-05
-0.00218587
-2.88301e-05
-0.00223691
-8.35042e-05
-0.00227081
-0.000149099
-0.00228258
-0.000224804
-0.00226931
-0.000307106
-0.00222969
-0.000392643
-0.00216421
-0.00047785
-0.00207513
-0.000559285
-0.00196614
-0.00063396
-0.00184203
-0.000699567
-0.00170821
-0.000754619
-0.00157023
-0.000798534
-0.00143324
-0.000831667
-0.00130154
-0.000855271
-0.00117803
-0.000871309
-0.00106407
-0.00088212
-0.000959486
-0.000889964
-0.000862957
-0.000896586
-0.000772589
-0.000902977
-0.000686482
-0.000909383
-0.000603123
-0.000915558
-0.000521521
-0.000921098
-0.000441119
-0.000925708
-0.000361623
-0.000929311
-0.000282828
-0.000932023
-0.000204518
-0.000934058
-0.000126419
-0.000935637
-4.82039e-05
-0.000936928
3.04856e-05
-0.000938011
0.000110006
-0.000938871
0.000190682
-0.000939402
0.000272773
-0.000939408
0.00035644
-0.000938613
0.000441722
-0.000936671
0.000528506
-0.000933185
0.000616502
-0.000927729
0.000705234
-0.000919878
0.000794015
-0.000909235
0.000881944
-0.000895466
0.000967896
-0.000878336
0.00105051
-0.000857731
0.00112816
-0.000833675
0.00119899
-0.000806313
0.00126086
-0.000775884
0.00131137
-0.000742744
0.00134841
-0.000707582
-0.000673294
0.00137003
0.000520979
-0.000216325
0.00129125
-0.000274575
0.00190788
-0.000225989
0.00235783
-0.000251116
0.00273091
-0.000334536
0.00306945
-0.000403357
0.0033774
-0.000407081
0.0036589
-0.000346981
0.00392118
-0.000235941
0.00418687
-9.29223e-05
0.00447581
6.10386e-05
0.00478022
0.000208476
0.0050644
0.000339423
0.00528282
0.00045551
0.00539047
0.000572451
0.0053717
0.000681047
0.00521735
0.00078429
0.00492789
0.000874859
0.00451657
0.000945173
0.00400811
0.000990658
0.00343422
0.00100811
0.0028249
0.000998396
0.00220356
0.000964591
0.00159017
0.000907343
0.00100297
0.000829042
0.000460312
0.000734205
-2.10749e-05
0.000629679
-0.000428822
0.000522978
-0.000757016
0.000420347
-0.00100674
0.000325451
-0.00118564
0.000239405
-0.00130226
0.000157637
-0.00136583
7.59429e-05
-0.00138864
-6.01555e-06
-0.00137301
-9.91356e-05
-0.00133299
-0.000189121
-0.00127399
-0.000283801
-0.00119759
-0.000383506
-0.00110479
-0.000485443
-0.000996685
-0.00058596
-0.000875294
-0.000680676
-0.000744131
-0.000765122
-0.00060831
-0.000835389
-0.000474261
-0.000888667
-0.000349125
-0.000923669
-0.000239818
-0.000940975
-0.00015188
-0.000943209
-8.83556e-05
-0.000934833
-4.90369e-05
-0.000921439
-3.04365e-05
-0.000908564
-2.66437e-05
-0.000900379
-3.08335e-05
-0.000898787
-3.68653e-05
-0.000903351
-4.03769e-05
-0.000912046
-3.90828e-05
-0.000922392
-3.2409e-05
-0.000932382
-2.08321e-05
-0.000940888
-5.2641e-06
-0.000947591
1.33511e-05
-0.000952673
3.42308e-05
-0.000956517
5.68095e-05
-0.000959506
8.07325e-05
-0.000961934
0.000105831
-0.00096397
0.00013208
-0.000965652
0.000159559
-0.000966888
0.000188401
-0.000967455
0.000218744
-0.000967013
0.000250685
-0.000965126
0.000284245
-0.00096129
0.000319337
-0.00095497
0.000355754
-0.000945651
0.000393173
-0.000932884
0.000431184
-0.000916346
0.000469349
-0.000895896
0.000507309
-0.000871636
0.000544953
-0.000843956
0.000582671
-0.000813602
0.000621706
-0.000781779
0.000664761
-0.000750637
-0.00072666
0.000718128
-0.000295795
7.947e-05
-0.000667207
9.68372e-05
-0.00107048
0.000177287
-0.00164994
0.000328342
-0.00243757
0.000453099
-0.00337859
0.000537662
-0.00436962
0.000583944
-0.00531985
0.00060325
-0.0061697
0.000613909
-0.00688281
0.000620189
-0.00745454
0.000632764
-0.0078871
0.00064104
-0.0081808
0.000633126
-0.0083269
0.000601607
-0.00829963
0.000545182
-0.00808718
0.000468595
-0.0076819
0.000379006
-0.00709143
0.000284393
-0.00633863
0.000192375
-0.00545756
0.000109582
-0.00449002
4.05756e-05
-0.00347907
-1.25503e-05
-0.00246484
-4.96437e-05
-0.00148662
-7.08754e-05
-0.000580142
-7.74341e-05
0.000225213
-7.11489e-05
0.000909607
-5.47155e-05
0.00146412
-3.15316e-05
0.00189014
-5.67394e-06
0.00219736
1.8231e-05
0.00240179
3.49679e-05
0.00252153
3.79065e-05
0.002572
2.54727e-05
0.00256716
-1.17916e-06
0.00251468
-4.66516e-05
0.00243276
-0.00010721
0.00234573
-0.000196763
0.00226473
-0.000302509
0.00219646
-0.000417174
0.00214361
-0.000533106
0.00210513
-0.000642196
0.00207673
-0.000736719
0.00205147
-0.000810137
0.00202083
-0.00085802
0.00197588
-0.000878726
0.00190881
-0.000873896
0.00181437
-0.000848775
0.00169137
-0.000811833
0.0015435
-0.000773564
0.00137901
-0.00074408
0.00120898
-0.000730349
0.00104455
-0.000734352
0.000894426
-0.000753225
0.000763582
-0.000781202
0.000653372
-0.000812183
0.000562586
-0.000841595
0.000488711
-0.000867013
0.000428908
-0.000887788
0.000380528
-0.000904293
0.000341293
-0.000917283
0.000309312
-0.000927525
0.000283046
-0.000935668
0.000261295
-0.000942218
0.000243188
-0.000947545
0.000228171
-0.000951871
0.000215979
-0.000955263
0.000206598
-0.000957632
0.00020022
-0.000958747
0.000197197
-0.000958267
0.000198012
-0.000955786
0.00020325
-0.000950889
0.000213583
-0.000943217
0.000229775
-0.000932537
0.000252699
-0.00091882
0.000283379
-0.000902316
0.000323056
-0.000883634
0.000373291
-0.000863836
0.00043612
-0.000844608
0.000514275
-0.00082879
-0.000821865
0.00060948
0.000245575
-0.000166105
0.000432445
-9.00328e-05
0.000394033
0.000215699
0.000222933
0.000499442
1.76157e-05
0.000658416
-0.000152513
0.000707791
-0.000275192
0.000706624
-0.000374661
0.000702719
-0.000474387
0.000713635
-0.000587257
0.000733059
-0.00069884
0.000744347
-0.000788808
0.000731008
-0.00083943
0.000683749
-0.000836909
0.000599086
-0.000771339
0.000479612
-0.000639921
0.000337177
-0.000455211
0.000194296
-0.000243172
7.23555e-05
-2.73115e-05
-2.34855e-05
0.000181758
-9.94868e-05
0.000383834
-0.000161501
0.000583242
-0.000211958
0.000787205
-0.000253607
0.000999548
-0.000283219
0.00122416
-0.000302047
0.00146342
-0.000310412
0.00171729
-0.000308581
0.00198308
-0.000297323
0.00225577
-0.000278365
0.00252863
-0.000254627
0.00279366
-0.00023006
0.00303942
-0.000207861
0.00325666
-0.000191766
0.00344785
-0.000192362
0.00361119
-0.000209998
0.00375351
-0.000249521
0.00386341
-0.000306664
0.00393793
-0.000377029
0.00397631
-0.000455561
0.00397801
-0.000534805
0.00394197
-0.000606151
0.00386574
-0.000660488
0.00374583
-0.000690229
0.00357975
-0.000691937
0.00336889
-0.000667869
0.00312082
-0.000625823
0.00284878
-0.000576742
0.0025688
-0.000531847
0.00229562
-0.000500393
0.00203993
-0.000488386
0.00180722
-0.000497642
0.00159866
-0.000525791
0.00141278
-0.000567341
0.00124718
-0.000615605
0.00109967
-0.000664672
0.000968656
-0.000710583
0.000853089
-0.000751447
0.000752144
-0.000786843
0.000664912
-0.00081706
0.000590197
-0.000842567
0.000526491
-0.00086382
0.000472103
-0.000881279
0.000425345
-0.000895461
0.000384732
-0.000906932
0.000349105
-0.000916244
0.000317704
-0.000923862
0.000290175
-0.000930104
0.00026655
-0.000935122
0.0002472
-0.000938917
0.000232786
-0.000941371
0.000224196
-0.000942299
0.000222492
-0.000941513
0.000228846
-0.000938891
0.000244481
-0.000934455
0.000270607
-0.000928441
0.000308341
-0.000921369
0.000358618
-0.000914113
0.000422022
-0.000908012
0.000498288
-0.000905056
-0.000908358
0.000584781
-0.000314449
0.000148344
-0.000721817
0.000317335
-0.00083173
0.000325612
-0.000545508
0.00021322
6.47263e-05
4.81814e-05
0.000882252
-0.000109735
0.00176565
-0.000176772
0.00258715
-0.000118786
0.0032727
2.8091e-05
0.00381659
0.000189167
0.00425595
0.00030498
0.00463956
0.000347404
0.00501485
0.000308458
0.00543749
0.000176443
0.00598946
-7.23541e-05
0.00674841
-0.000421776
0.00767425
-0.000731546
0.00855422
-0.000807618
0.00915647
-0.000625732
0.00941378
-0.000356799
0.00939761
-0.000145329
0.00920511
-1.94541e-05
0.00890836
4.31433e-05
0.00856016
6.49783e-05
0.00819763
6.04868e-05
0.00784816
3.90547e-05
0.00753161
7.97205e-06
0.00726079
-2.65048e-05
0.00704113
-5.87119e-05
0.00687481
-8.82991e-05
0.00675559
-0.000110843
0.00667384
-0.000126114
0.00661774
-0.000135659
0.00656735
-0.000141977
0.00650364
-0.00014629
0.00640394
-0.000149813
0.00625165
-0.000154382
0.00603505
-0.000160424
0.00575099
-0.000171504
0.0053976
-0.000181413
0.00498303
-0.00019158
0.00452291
-0.000200366
0.00403822
-0.000205545
0.0035522
-0.000205913
0.00308828
-0.000203946
0.00266654
-0.000204089
0.00230243
-0.000212632
0.00200447
-0.000233884
0.00177288
-0.000268805
0.00159986
-0.000315365
0.0014719
-0.000369679
0.00137341
-0.000427304
0.00129033
-0.000484255
0.00121242
-0.000537698
0.00113404
-0.000586297
0.00105354
-0.00063008
0.000971968
-0.000669872
0.000891666
-0.000706541
0.000815067
-0.000740462
0.000743939
-0.000771439
0.000679138
-0.000799019
0.000620731
-0.000822871
0.000568281
-0.000843011
0.000521138
-0.000859789
0.000478655
-0.000873761
0.000440321
-0.000885528
0.000405846
-0.000895628
0.0003752
-0.000904476
0.000348632
-0.000912349
0.000326658
-0.000919396
0.000310025
-0.000925666
0.000299659
-0.000931147
0.00029659
-0.000935822
0.000301858
-0.000939723
0.000316411
-0.000942994
0.000340983
-0.00094594
0.000375951
-0.000949081
0.000421126
-0.000953187
0.000475429
-0.000959359
-0.000969239
0.000536309
-0.000296653
0.000444997
-0.000664855
0.000685537
-0.000868521
0.000529279
-0.00103962
0.000384314
-0.00130988
0.000318443
-0.00169059
0.000270976
-0.00209951
0.000232152
-0.00244213
0.000223837
-0.00264218
0.000228141
-0.00266882
0.0002158
-0.00253988
0.000176038
-0.0022989
0.000106429
-0.00198569
-4.75675e-06
-0.0016285
-0.000180742
-0.00125914
-0.00044171
-0.000924957
-0.000755963
-0.000660744
-0.000995759
-0.000473422
-0.000994939
-0.000321178
-0.000777977
-0.000132239
-0.000545737
0.000136102
-0.00041367
0.00048379
-0.000367142
0.000886539
-0.000359605
0.00131562
-0.000364103
0.00174551
-0.000369404
0.00215546
-0.000370893
0.00252921
-0.000365776
0.00285466
-0.00035196
0.00312448
-0.000328534
0.0033327
-0.00029652
0.00347782
-0.000255959
0.0035612
-0.000209493
0.00358457
-0.000159029
0.00356039
-0.000117796
0.00350219
-8.80888e-05
0.00341845
-6.60775e-05
0.00331437
-5.03027e-05
0.00319414
-4.01938e-05
0.00305779
-3.5149e-05
0.00291075
-3.43786e-05
0.00275677
-3.75954e-05
0.00260275
-4.63472e-05
0.00246208
-6.48777e-05
0.00234563
-8.94585e-05
0.00226398
-0.000122303
0.00221364
-0.000153744
0.00218772
-0.00018672
0.00217467
-0.000220831
0.00216092
-0.000255052
0.00213375
-0.000288198
0.0020835
-0.000319431
0.00200494
-0.000348736
0.00189783
-0.000377153
0.00176664
-0.000406506
0.00161923
-0.000438883
0.00146504
-0.000475887
0.00131309
-0.00051793
0.00117048
-0.000563926
0.0010416
-0.000611583
0.00092833
-0.000658169
0.000830638
-0.000701327
0.00074735
-0.000739583
0.000676762
-0.000772422
0.000617033
-0.00080006
0.000566415
-0.000823143
0.000523367
-0.000842481
0.00048663
-0.000858891
0.000455265
-0.00087311
0.000428676
-0.00088576
0.00040661
-0.00089733
0.000389127
-0.000908183
0.000376546
-0.000918566
0.000369366
-0.000928641
0.000368171
-0.000938528
0.000373527
-0.00094835
0.000385868
-0.000958281
0.00040538
-0.000968593
0.00043188
-0.000979688
0.000464685
-0.000992164
-0.00100688
0.000502331
0.000665767
-0.00022077
0.00149515
-0.000143846
0.00185685
0.000167581
0.00169656
0.0005446
0.00115106
0.000863945
0.000357357
0.00106468
-0.000529255
0.00111876
-0.00135159
0.00104617
-0.00203059
0.000907145
-0.00254084
0.000726049
-0.00290381
0.00053901
-0.00313445
0.00033706
-0.00326276
0.000123557
-0.00335444
-8.90604e-05
-0.00351186
-0.000284291
-0.00384537
-0.000422453
-0.00434676
-0.00049437
-0.00482898
-0.000512719
-0.00508131
-0.00052564
-0.00502276
-0.000604291
-0.00470993
-0.000726504
-0.00422791
-0.000849162
-0.0036472
-0.000940314
-0.00302053
-0.000990775
-0.00239114
-0.000998794
-0.00179276
-0.00096927
-0.00125065
-0.000907884
-0.000781528
-0.000821082
-0.000392659
-0.000717403
-8.70836e-05
-0.000602096
0.000133673
-0.000476716
0.000272165
-0.000347984
0.000345176
-0.00023204
0.000378791
-0.000151411
0.000405344
-0.000114641
0.000447097
-0.000107831
0.000509673
-0.000112879
0.00058494
-0.000115461
0.000665261
-0.00011547
0.00074799
-0.000117108
0.000834963
-0.000124569
0.000928174
-0.000139558
0.00102455
-0.000161258
0.00112158
-0.000186487
0.00120935
-0.000210068
0.00128929
-0.000233688
0.00135353
-0.000250959
0.00139541
-0.000262712
0.00141042
-0.000270057
0.00139702
-0.0002748
0.00135689
-0.000279303
0.00129494
-0.00028678
0.00121807
-0.000300285
0.00113382
-0.00032226
0.001049
-0.000354062
0.000968569
-0.000395457
0.00089518
-0.000444541
0.000829433
-0.000498178
0.00077068
-0.00055283
0.000717898
-0.000605387
0.000670249
-0.000653677
0.000627246
-0.00069658
0.000588658
-0.000733834
0.000554337
-0.000765739
0.000524097
-0.000792903
0.000497682
-0.000816065
0.000474786
-0.000835995
0.000455117
-0.000853442
0.000438457
-0.000869099
0.000424703
-0.000883576
0.000413893
-0.000897373
0.000406204
-0.000910877
0.000401925
-0.000924362
0.000401411
-0.000938014
0.000405028
-0.000951967
0.000413089
-0.000966342
0.000425789
-0.000981292
0.000443138
-0.000997037
0.000464875
-0.0010139
-0.00103227
0.000490262
-0.000181991
-3.87792e-05
-0.000391697
6.58596e-05
-0.000558819
0.000334703
-0.000571605
0.000557387
-0.000374811
0.000667151
-3.03237e-05
0.000720192
0.000352247
0.000736193
0.000674732
0.000723687
0.000900292
0.000681585
0.00102872
0.000597619
0.00112069
0.000447046
0.00124236
0.000215389
0.00144993
-8.40104e-05
0.00177968
-0.000418811
0.00223994
-0.000744556
0.00282871
-0.00101122
0.00353333
-0.00119899
0.0043388
-0.00131819
0.00520821
-0.00139505
0.00604953
-0.00144562
0.00679412
-0.0014711
0.00740882
-0.00146386
0.00789003
-0.00142152
0.00824825
-0.001349
0.00850189
-0.00125243
0.00866906
-0.00113643
0.00876526
-0.00100409
0.00880151
-0.000857324
0.00877888
-0.000694778
0.00867614
-0.000499355
0.00844119
-0.000241771
0.00800021
9.29967e-05
0.00730059
0.000467588
0.00641953
0.000729642
0.00550712
0.00079777
0.00469497
0.000704324