/*--------------------------------*- C++ -*----------------------------------*\
| =========                 |                                                 |
| \\      /  F ield         | OpenFOAM: The Open Source CFD Toolbox           |
|  \\    /   O peration     | Version:  2012                                  |
|   \\  /    A nd           | Website:  www.openfoam.com                      |
|    \\/     M anipulation  |                                                 |
\*---------------------------------------------------------------------------*/
FoamFile
{
    version     2.0;
    format      ascii;
    class       volVectorField;
    location    "0.37";
    object      U;
}
// * * * * * * * * * * * * * * * * * * * * * * * * * * * * * * * * * * * * * //

dimensions      [0 1 -1 0 0 0 0];


internalField   nonuniform List<vector> 
42400
(
(4.30202 -7.34307 8.81201e-17)
(7.28794 -15.8662 1.27627e-16)
(4.7543 -17.5801 -1.30328e-16)
(-0.774136 -18.1067 0)
(-4.66691 -18.4777 0)
(-8.72801 -19.0951 -2.07109e-19)
(-13.1088 -19.5938 0)
(-17.616 -19.7556 1.85808e-19)
(-22.0039 -19.655 0)
(-25.917 -19.4266 1.55157e-19)
(-29.0414 -19.2746 1.37248e-19)
(-31.1434 -19.3732 -1.18692e-19)
(-32.1281 -19.8286 -3.60498e-17)
(-32.0252 -20.6436 3.67559e-17)
(-30.9258 -21.7347 -6.56491e-20)
(-28.9562 -22.9747 0)
(-26.2763 -24.226 0)
(-23.0818 -25.3474 0)
(-19.6159 -26.1971 0)
(-16.1222 -26.652 0)
(-12.7884 -26.6362 0)
(-9.72083 -26.1446 4.27213e-20)
(-6.94891 -25.2491 2.75505e-17)
(-4.46606 -24.0748 -8.10188e-19)
(-2.27435 -22.754 -2.75203e-17)
(-0.407825 -21.3841 4.6043e-20)
(1.07408 -20.0152 4.18281e-20)
(2.11158 -18.669 -7.56138e-20)
(2.676 -17.3637 0)
(2.79007 -16.1223 0)
(2.53636 -14.9736 -1.18893e-17)
(2.04546 -13.9484 1.20241e-17)
(1.45602 -13.0689 -5.26181e-20)
(0.866227 -12.3326 7.24553e-18)
(0.317441 -11.7074 -7.25931e-18)
(-0.189545 -11.1467 0)
(-0.669286 -10.6061 0)
(-1.13357 -10.0576 0)
(-1.58658 -9.4879 0)
(-2.02733 -8.89281 3.09571e-18)
(-2.45085 -8.27151 -3.1068e-18)
(-2.85073 -7.62521 2.41867e-18)
(-3.21759 -6.95534 -3.60784e-19)
(-3.54166 -6.2658 -3.96636e-18)
(-3.81912 -5.56399 1.82835e-18)
(-4.04312 -4.85997 -1.42362e-18)
(-4.20375 -4.16085 2.73602e-18)
(-4.29421 -3.47447 -1.25532e-18)
(-4.31102 -2.80886 -4.393e-20)
(-4.25442 -2.17173 8.717e-19)
(-4.12773 -1.56958 -1.62035e-18)
(-3.9365 -1.00748 4.13909e-20)
(-3.6879 -0.489192 6.93539e-19)
(-3.39023 -0.0174115 -4.12107e-20)
(-3.05278 0.406074 0)
(-2.68568 0.780439 0)
(-2.29962 1.10597 0)
(-1.90506 1.38398 2.62148e-20)
(-1.51149 1.6167 2.52611e-20)
(-1.12685 1.80709 0)
(-0.756741 1.958 5.60972e-19)
(-0.404236 2.07162 -5.78578e-19)
(-0.0700182 2.14935 -5.78775e-19)
(0.247396 2.19173 5.67865e-19)
(0.55145 2.19865 0)
(0.846157 2.17032 0)
(1.13606 2.10731 -6.77303e-19)
(1.42521 2.0115 6.62097e-19)
(1.71604 1.88579 8.60067e-20)
(2.00905 1.73465 0)
(2.30242 1.56431 0)
(2.59229 1.38197 9.46121e-20)
(2.87292 1.19448 9.55721e-20)
(3.13786 1.007 0)
(3.38158 0.821458 9.4788e-20)
(3.60111 0.635642 7.45747e-19)
(3.79785 0.443886 -7.23468e-19)
(3.9776 0.240038 -1.78489e-19)
(4.14034 0.0149899 -6.95062e-19)
(4.21584 -0.279048 -6.69944e-19)
(0.894548 0.280718 0)
(8.43726 -5.44718 -6.81971e-17)
(17.9238 -12.9085 6.98429e-17)
(22.2377 -16.8622 0)
(22.3711 -16.832 0)
(21.8996 -15.5294 -5.8474e-17)
(22.6144 -14.3111 5.99516e-17)
(24.7296 -13.1819 -1.87135e-19)
(27.622 -11.8763 0)
(30.7022 -10.1685 -1.56313e-19)
(33.5338 -7.94955 -1.38283e-19)
(35.8187 -5.15986 1.98321e-17)
(37.3594 -1.81238 -7.30573e-18)
(38.0588 1.98583 -1.31597e-17)
(37.9391 6.03046 -3.89617e-19)
(37.1047 10.0368 5.629e-19)
(35.7213 13.6712 0)
(33.9993 16.6075 1.83578e-19)
(32.1367 18.5829 0)
(30.2822 19.4525 0)
(28.5036 19.1964 0)
(26.7913 17.9222 -2.10702e-17)
(25.0775 15.8482 1.04263e-19)
(23.2612 13.2763 2.17929e-17)
(21.2322 10.5455 0)
(18.9022 7.97102 -3.10595e-19)
(16.2577 5.77422 -4.19661e-20)
(13.3911 4.00872 7.58578e-20)
(10.4994 2.57174 -1.22388e-17)
(7.8209 1.30941 1.23929e-17)
(5.54021 0.097944 -2.76137e-19)
(3.72147 -1.10345 -2.30741e-19)
(2.33722 -2.27114 -4.96823e-18)
(1.30223 -3.35912 5.26075e-18)
(0.516976 -4.32247 2.89809e-18)
(-0.101325 -5.12419 -3.0702e-18)
(-0.608755 -5.73957 0)
(-1.03979 -6.17004 5.66163e-20)
(-1.41457 -6.43272 0)
(-1.73947 -6.54675 5.73076e-20)
(-2.0155 -6.53096 9.59795e-20)
(-2.24217 -6.40271 -5.86889e-20)
(-2.41899 -6.1773 8.00141e-20)
(-2.54531 -5.86886 -7.43731e-20)
(-2.62125 -5.49072 6.53946e-20)
(-2.64751 -5.05445 -6.23363e-20)
(-2.62418 -4.57094 5.61096e-20)
(-2.55249 -4.05176 3.07298e-19)
(-2.43475 -3.50869 -3.11728e-19)
(-2.27383 -2.95246 0)
(-2.07341 -2.39286 5.40637e-21)
(-1.83764 -1.8389 5.64206e-20)
(-1.57151 -1.29807 1.09396e-19)
(-1.28068 -0.776755 -1.14887e-19)
(-0.971371 -0.280194 -2.34861e-21)
(-0.649998 0.187401 2.04301e-19)
(-0.323358 0.622487 -2.05458e-19)
(0.00196257 1.02232 -2.61882e-20)
(0.321234 1.38628 -2.52341e-20)
(0.631318 1.7141 2.55725e-19)
(0.929702 2.00469 -2.51601e-19)
(1.21581 2.25719 2.71123e-20)
(1.4909 2.47048 1.60181e-20)
(1.75705 2.64238 0)
(2.01877 2.77244 -4.48961e-19)
(2.28175 2.86017 -6.42938e-20)
(2.55072 2.90492 6.01436e-19)
(2.82864 2.90695 0)
(3.116 2.86792 -1.62758e-19)
(3.41103 2.79236 8.25377e-20)
(3.70877 2.6869 7.54419e-19)
(4.0015 2.55974 -8.29327e-19)
(4.27977 2.41999 -8.72699e-19)
(4.53383 2.27614 8.48757e-19)
(4.75541 2.13396 -1.87132e-19)
(4.93968 1.99393 7.53694e-19)
(5.08846 1.85011 -5.52314e-19)
(5.20802 1.68602 1.78217e-19)
(5.33014 1.49429 -8.68047e-19)
(5.3345 1.09735 6.81565e-19)
(-6.70082 4.41415 7.40891e-18)
(-24.2021 23.4887 1.79985e-19)
(-45.8676 35.6589 -1.62202e-19)
(-52.1777 41.6093 1.97034e-19)
(-48.0098 34.4818 0)
(-36.5243 22.7001 5.96451e-19)
(-23.5379 10.7916 1.24087e-19)
(-12.5241 1.30519 -7.51009e-19)
(-4.27978 -5.44941 2.93393e-18)
(1.89396 -10.2174 1.26788e-18)
(6.82313 -13.7351 -4.04402e-18)
(10.8862 -16.4145 6.7503e-20)
(14.069 -18.3441 3.47035e-20)
(16.1955 -19.3952 9.00516e-18)
(17.0972 -19.3968 -9.18838e-18)
(16.7023 -18.3094 1.03771e-19)
(15.0953 -16.2476 -1.18161e-17)
(12.5052 -13.4052 -1.23844e-18)
(9.21538 -10.006 1.2617e-17)
(5.48249 -6.29274 2.46515e-19)
(1.54436 -2.52154 -2.08931e-19)
(-2.27767 1.00478 -1.70733e-19)
(-5.53702 3.87883 0)
(-7.78932 5.70323 -1.92742e-19)
(-8.87214 6.31825 1.51116e-17)
(-9.02739 5.92338 -2.91396e-17)
(-8.69109 4.93375 1.43403e-17)
(-8.20354 3.71163 -1.16357e-17)
(-7.70555 2.43523 1.17777e-17)
(-7.2091 1.15653 9.13151e-18)
(-6.68217 -0.112393 -1.67527e-17)
(-6.11566 -1.35003 1.3217e-18)
(-5.5204 -2.52832 6.73766e-18)
(-4.92585 -3.61814 0)
(-4.3622 -4.58641 0)
(-3.85428 -5.41489 9.80013e-20)
(-3.4191 -6.10088 0)
(-3.05362 -6.63814 -3.04154e-20)
(-2.74687 -7.02506 -1.75169e-18)
(-2.48631 -7.26827 3.08176e-18)
(-2.25956 -7.37809 -1.38961e-18)
(-2.05547 -7.36656 0)
(-1.86461 -7.24647 0)
(-1.67929 -7.0304 -3.81013e-19)
(-1.49333 -6.7305 3.83848e-19)
(-1.30188 -6.35829 2.97902e-21)
(-1.10115 -5.92479 0)
(-0.888451 -5.44049 0)
(-0.662297 -4.91519 -8.30596e-20)
(-0.422228 -4.35791 8.25997e-20)
(-0.16862 -3.77693 -5.40653e-21)
(0.0975931 -3.18018 0)
(0.374442 -2.57477 9.0015e-20)
(0.659402 -1.96717 -8.17712e-20)
(0.949632 -1.36309 1.62866e-19)
(1.24229 -0.767734 -1.48334e-19)
(1.53491 -0.185463 1.25308e-19)
(1.82565 0.380205 -2.12223e-19)
(2.11234 0.924987 1.37499e-19)
(2.3937 1.44427 -4.93463e-20)
(2.67027 1.93464 1.76353e-21)
(2.94347 2.39234 1.21094e-19)
(3.2155 2.81342 -1.34892e-19)
(3.48979 3.19455 0)
(3.76827 3.53089 2.84868e-19)
(4.05219 3.81658 7.95583e-20)
(4.34327 4.04811 -5.08788e-19)
(4.6404 4.22232 0)
(4.94063 4.3382 1.42446e-19)
(5.23859 4.39682 5.61158e-19)
(5.52634 4.40128 -5.49396e-19)
(5.79402 4.35692 0)
(6.031 4.2715 0)
(6.22711 4.15456 -9.2679e-20)
(6.37451 4.0166 9.22965e-20)
(6.4681 3.86518 5.40918e-19)
(6.51316 3.70836 -8.69739e-19)
(6.5079 3.52572 0)
(6.51108 3.36781 1.6904e-19)
(6.40738 2.9302 6.23622e-19)
(-7.23023 3.47201 -7.4165e-17)
(-15.0308 8.04679 1.099e-16)
(-19.3238 10.9346 -5.57419e-17)
(-19.3101 11.8991 -5.32877e-17)
(-14.9826 10.5579 5.42938e-17)
(-7.84423 7.07274 0)
(0.712034 2.2379 -9.31499e-17)
(9.23452 -2.92615 9.49886e-17)
(16.4581 -7.48927 -8.21103e-17)
(21.6653 -10.7793 8.3761e-17)
(24.6473 -12.5246 -7.01797e-17)
(25.5039 -12.7862 1.34822e-16)
(24.5173 -11.8287 -1.2143e-16)
(22.1043 -10.0684 1.08036e-16)
(18.7705 -7.99916 -9.47564e-17)
(15.0335 -6.08174 4.42837e-17)
(11.3346 -4.66228 3.16171e-17)
(7.98975 -3.9539 -5.6984e-17)
(5.1789 -4.03901 2.59254e-17)
(2.94142 -4.9003 -2.40158e-19)
(1.2395 -6.4597 1.76994e-19)
(0.0541402 -8.53828 3.74345e-18)
(-0.633526 -10.6211 -3.63599e-18)
(-1.07865 -11.9341 -9.98381e-20)
(-1.91653 -12.182 0)
(-3.58695 -11.917 -6.59147e-20)
(-5.72118 -11.7068 0)
(-7.57765 -11.5949 5.35472e-18)
(-8.80741 -11.5022 -5.87606e-19)
(-9.42454 -11.4649 -5.02157e-18)
(-9.49456 -11.4966 -3.63858e-18)
(-9.1026 -11.555 3.74136e-18)
(-8.38571 -11.5977 -9.99598e-20)
(-7.4917 -11.6037 -3.65802e-20)
(-6.54367 -11.5643 -1.51616e-18)
(-5.62188 -11.4776 1.55226e-18)
(-4.76809 -11.346 0)
(-3.99676 -11.1705 6.91064e-19)
(-3.30886 -10.9569 -7.20844e-19)
(-2.69877 -10.7087 -3.25787e-20)
(-2.15789 -10.4288 -2.69677e-20)
(-1.67632 -10.119 0)
(-1.24408 -9.78025 0)
(-0.851729 -9.4127 0)
(-0.490788 -9.01613 -2.18322e-20)
(-0.153881 -8.59027 1.03502e-19)
(0.165177 -8.13504 -1.06213e-19)
(0.471396 -7.65086 0)
(0.768683 -7.13868 0)
(1.05995 -6.60009 6.63953e-21)
(1.34728 -6.03723 4.34979e-21)
(1.63202 -5.45278 -3.0459e-20)
(1.91492 -4.84978 3.72829e-20)
(2.19623 -4.23146 1.14892e-20)
(2.4759 -3.60118 6.79306e-20)
(2.75372 -2.96232 -6.68554e-20)
(3.02942 -2.31831 1.0913e-19)
(3.30296 -1.67264 -1.13052e-19)
(3.57455 -1.029 0)
(3.84436 -0.391046 -6.40426e-21)
(4.11293 0.237365 -2.29202e-20)
(4.38113 0.85197 -4.36254e-20)
(4.64985 1.44819 2.21903e-19)
(4.91986 2.02102 -3.15861e-19)
(5.1917 2.56482 1.57952e-19)
(5.46451 3.0742 3.33095e-19)
(5.73647 3.54379 -2.25613e-19)
(6.0041 3.96865 -5.70225e-20)
(6.26246 4.34449 -5.2473e-19)
(6.50508 4.66772 5.09709e-19)
(6.72431 4.93554 -1.5198e-19)
(6.9118 5.14587 -7.25501e-19)
(7.05948 5.29758 6.30149e-19)
(7.16025 5.38997 0)
(7.21033 5.42519 -6.75214e-19)
(7.20744 5.40231 1.61869e-19)
(7.16256 5.33623 1.45328e-18)
(7.07433 5.19836 -6.28502e-19)
(7.00176 5.07956 6.01771e-19)
(6.88411 4.72678 -5.7692e-19)
(0.851269 0.398428 2.78277e-17)
(11.2346 -3.93178 0)
(22.536 -10.9861 0)
(32.5295 -15.3938 2.49116e-19)
(40.6788 -19.2777 0)
(49.1703 -22.3368 0)
(57.3421 -24.5651 0)
(64.232 -25.8843 5.99327e-19)
(69.395 -26.444 0)
(72.7688 -26.4656 -3.99962e-19)
(74.2744 -25.9375 4.3824e-17)
(73.6473 -24.6061 -8.50526e-17)
(70.5131 -22.1104 4.05677e-17)
(64.6683 -18.2469 0)
(56.4075 -13.151 6.74336e-20)
(46.422 -7.21747 -2.7685e-19)
(35.3471 -0.845014 0)
(23.5297 5.73873 1.74015e-17)
(11.2165 12.3557 -3.1547e-17)
(-0.930173 18.5619 3.65028e-18)
(-11.665 23.5136 1.0048e-17)
(-19.6843 26.391 -6.47801e-21)
(-24.5315 27.0083 0)
(-26.8442 25.9153 -9.97552e-19)
(-27.7506 23.9201 1.16461e-18)
(-28.0108 21.528 6.81564e-19)
(-27.6335 18.8267 -6.68234e-19)
(-26.1643 15.6429 -1.11851e-18)
(-23.3101 11.84 1.16794e-18)
(-19.345 7.62344 0)
(-15.0515 3.49478 2.72556e-19)
(-11.2383 -0.0669155 -2.75686e-19)
(-8.30485 -2.84563 4.30228e-20)
(-6.23395 -4.90971 -1.72031e-19)
(-4.79964 -6.43005 2.10269e-19)
(-3.75985 -7.56043 8.20612e-21)
(-2.94921 -8.42845 -3.55576e-20)
(-2.2816 -9.11928 -3.66713e-19)
(-1.7073 -9.66341 3.68751e-19)
(-1.19306 -10.0665 4.17607e-19)
(-0.721106 -10.3347 6.33783e-20)
(-0.282272 -10.4782 -5.73956e-19)
(0.129614 -10.5088 0)
(0.519 -10.4386 7.37825e-20)
(0.889087 -10.2799 -4.46582e-19)
(1.24206 -10.0443 1.12572e-18)
(1.57935 -9.74227 -1.01334e-18)
(1.90185 -9.38302 4.34541e-19)
(2.21021 -8.97473 0)
(2.50498 -8.52446 4.75011e-20)
(2.78675 -8.03842 -3.03193e-19)
(3.05618 -7.52211 3.32341e-19)
(3.31403 -6.98039 5.24402e-20)
(3.56117 -6.41766 -1.71452e-19)
(3.79851 -5.83787 1.55801e-19)
(4.02708 -5.24462 -1.64309e-19)
(4.2479 -4.64123 -1.6985e-19)
(4.46205 -4.03082 2.93105e-19)
(4.67059 -3.41644 -2.54253e-19)
(4.87451 -2.80115 2.56752e-19)
(5.07471 -2.18811 0)
(5.27192 -1.58076 -9.8554e-21)
(5.46648 -0.982767 -2.92741e-19)
(5.65826 -0.398144 2.58674e-19)
(5.84643 0.168886 9.75557e-20)
(6.02928 0.714018 0)
(6.20404 1.23311 4.85285e-19)
(6.36686 1.72249 -4.0083e-19)
(6.51289 2.1793 -6.3521e-20)
(6.63653 2.60179 -7.74014e-20)
(6.73197 2.98958 1.54454e-19)
(6.79407 3.34349 -4.24993e-21)
(6.81963 3.66524 -7.38274e-19)
(6.8089 3.95614 6.36443e-19)
(6.76718 4.21721 -8.37529e-20)
(6.7051 4.44399 0)
(6.64002 4.63888 -7.90945e-19)
(6.5858 4.77694 6.11665e-19)
(6.57872 4.8942 0)
(6.57623 4.9015 -5.49645e-19)
(3.28125 -0.804401 -3.5019e-19)
(-5.05412 7.09373 -4.15206e-17)
(-19.2629 17.7285 3.95562e-17)
(-19.1681 19.7449 -7.95007e-17)
(-4.41838 11.1456 3.94691e-17)
(13.3988 -0.221233 -2.57539e-19)
(24.8204 -8.7772 3.24999e-17)
(27.6443 -13.0817 -3.35472e-17)
(24.3936 -14.4446 1.74612e-19)
(17.7987 -14.5178 5.48048e-19)
(9.56854 -14.1777 -2.14609e-17)
(0.65651 -13.8578 -1.72086e-17)
(-8.54787 -13.5838 4.03962e-17)
(-17.7704 -13.2463 -3.34346e-17)
(-26.6499 -12.8552 6.54033e-17)
(-34.6045 -12.5172 -3.17757e-17)
(-40.9238 -12.34 0)
(-45.0381 -12.3695 0)
(-46.7365 -12.5847 2.42423e-17)
(-46.1457 -12.9424 -3.04554e-18)
(-43.7681 -13.3794 -2.10581e-17)
(-40.3739 -13.7332 1.42588e-17)
(-36.7807 -13.7948 -2.57866e-17)
(-33.5345 -13.4042 1.13849e-17)
(-30.7356 -12.5546 6.54927e-18)
(-28.163 -11.4634 -1.89116e-18)
(-25.5359 -10.443 -4.88959e-18)
(-22.7167 -9.70217 1.30172e-19)
(-19.7934 -9.29942 -1.08413e-19)
(-16.9894 -9.20536 1.82529e-19)
(-14.5003 -9.36012 0)
(-12.3873 -9.69445 1.09592e-18)
(-10.5882 -10.1415 -2.52301e-18)
(-9.00526 -10.6406 1.41524e-18)
(-7.55824 -11.1375 0)
(-6.20689 -11.5961 -1.95097e-18)
(-4.9341 -11.9869 1.9653e-18)
(-3.73058 -12.2766 0)
(-2.60537 -12.4598 0)
(-1.5704 -12.5479 -2.01361e-18)
(-0.629503 -12.5453 2.05881e-18)
(0.216535 -12.4582 -1.04505e-19)
(0.971306 -12.2941 0)
(1.64117 -12.0615 1.6917e-18)
(2.23392 -11.7695 -1.76332e-19)
(2.75769 -11.4268 -1.72257e-18)
(3.22033 -11.0418 -1.31484e-19)
(3.62905 -10.6215 1.77629e-19)
(3.99032 -10.1719 0)
(4.30987 -9.69801 -1.11705e-18)
(4.59272 -9.20383 2.06717e-18)
(4.84333 -8.69276 -1.03055e-18)
(5.06561 -8.16775 -6.70195e-20)
(5.26305 -7.63147 -7.32215e-19)
(5.43885 -7.08638 1.21501e-19)
(5.59588 -6.53474 1.1198e-18)
(5.73677 -5.97857 -3.95328e-19)
(5.86388 -5.41965 0)
(5.97928 -4.85955 0)
(6.08473 -4.29962 6.45758e-20)
(6.1816 -3.74117 5.95148e-20)
(6.27093 -3.18545 0)
(6.35337 -2.63373 6.00761e-19)
(6.42911 -2.08748 -5.88116e-19)
(6.49792 -1.5483 -6.8557e-19)
(6.55917 -1.01793 -1.17031e-19)
(6.6119 -0.498267 5.51877e-19)
(6.65496 0.00874252 -6.60313e-19)
(6.68727 0.501147 6.44707e-19)
(6.70804 0.977064 -1.70665e-20)
(6.71719 1.43474 6.20475e-19)
(6.71564 1.87258 -5.9999e-19)
(6.70551 2.28916 -6.24663e-19)
(6.69036 2.68303 7.81623e-19)
(6.67453 3.05263 -6.08201e-19)
(6.66455 3.39559 6.71748e-19)
(6.66244 3.70779 -6.51294e-19)
(6.68197 3.98852 1.25492e-18)
(6.70424 4.21011 -1.26073e-20)
(6.7712 4.45453 -1.16815e-20)
(3.7819 -4.65799 -5.17094e-17)
(5.90229 -8.88098 -1.3778e-19)
(6.80172 -11.1195 7.4762e-17)
(4.78183 -11.3609 -1.48995e-16)
(-0.597561 -8.51872 7.43437e-17)
(-9.50043 -4.76342 -6.48019e-17)
(-19.7458 -1.48933 6.18444e-18)
(-28.4063 0.108989 6.01458e-17)
(-33.8579 -0.283085 -4.6584e-17)
(-36.8429 -2.06686 4.61965e-17)
(-39.0008 -4.45244 -3.1989e-17)
(-41.0578 -7.11967 3.22562e-17)
(-42.8103 -9.95774 -1.98203e-17)
(-43.7728 -12.9555 2.02114e-17)
(-43.3864 -16.0974 3.24181e-20)
(-41.2139 -19.3097 6.60336e-20)
(-37.2807 -22.3462 1.05866e-18)
(-32.2878 -24.7834 -1.0791e-18)
(-27.3287 -26.2515 -2.86285e-19)
(-23.2848 -26.6339 -2.88836e-21)
(-20.4886 -26.0126 2.07655e-17)
(-18.7947 -24.6517 -2.0995e-17)
(-17.7101 -22.9857 0)
(-16.6104 -21.4039 -1.26587e-19)
(-15.1659 -20.0389 0)
(-13.5416 -18.7932 0)
(-12.0885 -17.5346 -1.25263e-19)
(-10.9482 -16.2509 -1.28197e-17)
(-10.0122 -15.0522 1.30826e-17)
(-9.11365 -14.0602 9.34663e-18)
(-8.15901 -13.3227 -9.63594e-18)
(-7.12799 -12.8211 1.38145e-19)
(-6.0406 -12.5247 -1.25791e-19)
(-4.93005 -12.4085 0)
(-3.82278 -12.4348 -1.95901e-19)
(-2.7293 -12.5553 0)
(-1.66296 -12.7211 0)
(-0.633964 -12.8924 -1.94041e-19)
(0.350499 -13.0377 0)
(1.2823 -13.132 0)
(2.15295 -13.1575 3.94465e-18)
(2.95475 -13.1041 -3.77092e-18)
(3.68197 -12.9679 0)
(4.33122 -12.7514 0)
(4.90169 -12.4617 0)
(5.39527 -12.1094 -2.41905e-19)
(5.81623 -11.7062 1.31432e-19)
(6.17075 -11.264 2.25261e-18)
(6.46611 -10.7933 -2.36221e-18)
(6.70987 -10.3026 1.92757e-18)
(6.90922 -9.7982 -2.14187e-18)
(7.07051 -9.2846 2.01509e-19)
(7.19921 -8.76507 1.08776e-19)
(7.30001 -8.24228 0)
(7.37704 -7.71865 0)
(7.43413 -7.19638 -8.14318e-19)
(7.47481 -6.67743 2.40043e-21)
(7.50233 -6.16333 8.53444e-19)
(7.51956 -5.65509 -7.03869e-19)
(7.52891 -5.15322 7.28568e-19)
(7.53228 -4.65776 1.12274e-18)
(7.531 -4.16845 -6.27368e-20)
(7.52591 -3.6848 -2.0339e-18)
(7.51732 -3.20629 1.0131e-18)
(7.50507 -2.73243 6.9257e-20)
(7.4886 -2.26288 9.58619e-20)
(7.46698 -1.79752 8.86303e-19)
(7.43907 -1.33651 -1.73524e-18)
(7.40361 -0.880337 8.48565e-19)
(7.35937 -0.429861 9.46696e-20)
(7.30536 0.0135875 8.33479e-19)
(7.24103 0.448126 -9.21677e-19)
(7.1664 0.871172 0)
(7.08227 1.27933 -9.2894e-20)
(6.98993 1.66806 0)
(6.89196 2.03258 7.40813e-19)
(6.78758 2.36343 -9.42598e-21)
(6.68845 2.66562 -6.87305e-19)
(6.55741 2.88577 4.65759e-19)
(6.529 3.19468 1.3297e-19)
(-8.72015 2.68349 6.61149e-18)
(-2.38435 2.6621 -9.94788e-18)
(15.1542 -13.7597 2.04289e-19)
(31.0298 -21.5542 -1.76192e-17)
(34.1641 -26.1845 1.80188e-17)
(31.2516 -25.9462 -2.19604e-17)
(25.3529 -22.9535 4.59865e-17)
(18.3489 -18.253 -2.26144e-17)
(9.91917 -11.9073 2.24966e-17)
(-1.17617 -3.98921 -2.19147e-17)
(-14.1049 4.55352 0)
(-25.7176 12.0747 3.09765e-19)
(-33.1532 17.2747 1.15961e-19)
(-35.7186 19.8339 0)
(-34.5016 20.1966 0)
(-31.067 18.9939 0)
(-26.6021 16.7216 0)
(-21.9318 13.8078 -1.50036e-19)
(-17.7834 10.6923 0)
(-14.666 7.75837 7.81512e-18)
(-12.6664 5.22292 -7.99603e-18)
(-11.5208 3.11053 -8.88527e-18)
(-10.8446 1.33842 8.93585e-18)
(-10.3245 -0.170564 3.92361e-18)
(-9.83658 -1.44672 -3.89774e-18)
(-9.41233 -2.49671 4.44538e-19)
(-9.08429 -3.33855 -3.25398e-19)
(-8.80014 -4.019 -1.89082e-18)
(-8.46195 -4.61125 -9.27673e-19)
(-7.99092 -5.19472 2.81833e-18)
(-7.35155 -5.83571 0)
(-6.53919 -6.57084 3.13265e-19)
(-5.55901 -7.39125 3.38666e-19)
(-4.42332 -8.25657 0)
(-3.16381 -9.12894 1.95693e-19)
(-1.82013 -9.96658 0)
(-0.425585 -10.7311 0)
(0.981723 -11.3867 7.98024e-18)
(2.3638 -11.9063 -1.51576e-17)
(3.68321 -12.2714 7.69318e-18)
(4.90582 -12.4735 6.75847e-18)
(6.00339 -12.5144 -7.05951e-18)
(6.95541 -12.4053 -2.36486e-19)
(7.75019 -12.1656 0)
(8.38529 -11.8204 5.41379e-18)
(8.86725 -11.3983 -4.78944e-18)
(9.21057 -10.9283 0)
(9.43563 -10.4366 0)
(9.56579 -9.9439 -2.93938e-18)
(9.62412 -9.46357 3.34093e-18)
(9.63057 -9.00139 2.77742e-18)
(9.60031 -8.55721 -2.57167e-18)
(9.54359 -8.1275 -2.03731e-18)
(9.46687 -7.70806 3.62101e-18)
(9.37433 -7.29581 -1.69268e-18)
(9.26929 -6.88941 -3.44744e-19)
(9.15491 -6.48896 0)
(9.0343 -6.09524 1.5598e-19)
(8.91033 -5.70902 -8.49508e-19)
(8.78534 -5.33063 1.77805e-18)
(8.66098 -4.95982 -8.87729e-19)
(8.53815 -4.59586 0)
(8.41705 -4.2376 -7.82833e-20)
(8.29722 -3.88365 0)
(8.17765 -3.53258 -6.93064e-20)
(8.05685 -3.18303 -8.08586e-20)
(7.93298 -2.8339 -1.52524e-19)
(7.80402 -2.48445 -1.0808e-18)
(7.66782 -2.13446 9.17785e-19)
(7.52237 -1.78433 -1.31498e-19)
(7.36587 -1.43516 -9.72757e-19)
(7.1969 -1.08884 1.17841e-18)
(7.01449 -0.748086 -9.10503e-19)
(6.81819 -0.416419 8.85292e-19)
(6.60795 -0.0980952 -9.48771e-19)
(6.38375 0.201931 7.17107e-19)
(6.14588 0.478599 7.61027e-19)
(5.89285 0.726175 -7.37657e-19)
(5.6245 0.936929 1.65231e-19)
(5.39085 1.1827 -1.53441e-19)
(-10.3443 6.3713 4.55587e-17)
(-25.0032 18.4983 6.57542e-17)
(-30.8577 23.6797 -1.31315e-16)
(-22.9593 24.3572 1.26351e-16)
(-9.08108 19.6412 -6.22938e-17)
(3.84452 15.2294 -1.25711e-19)
(11.5557 13.0665 4.33696e-17)
(13.9002 13.4918 -8.02066e-17)
(12.5253 15.5966 8.2745e-18)
(9.34038 18.3129 2.87453e-17)
(5.98549 21.0472 -2.04144e-19)
(3.43883 23.5689 -7.70182e-18)
(1.87141 25.7145 7.82978e-18)
(0.796024 27.3882 6.81734e-19)
(-0.480546 28.6382 -6.9484e-19)
(-2.30998 29.573 -4.8673e-18)
(-4.53108 30.115 4.95238e-18)
(-6.74921 29.9775 1.49785e-19)
(-8.62481 28.9495 0)
(-9.95987 27.0083 6.07638e-18)
(-10.6386 24.3292 -6.35224e-18)
(-10.624 21.0972 3.59533e-19)
(-9.93377 17.4664 -3.5845e-18)
(-8.64319 13.582 3.28665e-18)
(-6.89887 9.62671 3.86943e-19)
(-4.93908 5.80165 0)
(-3.05128 2.31001 -3.26145e-19)
(-1.47567 -0.654132 -3.78152e-19)
(-0.338312 -2.9786 -1.00628e-17)
(0.376531 -4.67051 1.04953e-17)
(0.803517 -5.83497 1.41294e-17)
(1.1283 -6.621 -1.43185e-17)
(1.52156 -7.16948 1.87527e-19)
(2.09961 -7.58459 -1.6511e-17)
(2.92199 -7.93268 3.19567e-17)
(3.97953 -8.269 -1.59291e-17)
(5.22214 -8.59333 -1.41594e-17)
(6.57559 -8.88847 1.46663e-17)
(7.96483 -9.1303 3.25664e-20)
(9.31413 -9.28553 -3.28753e-19)
(10.5508 -9.32664 2.84586e-19)
(11.614 -9.23854 -9.29578e-18)
(12.46 -9.02133 1.33955e-18)
(13.0645 -8.69052 8.2097e-18)
(13.4229 -8.27501 -6.61639e-18)
(13.5507 -7.81322 6.23495e-18)
(13.4815 -7.3475 0)
(13.2634 -6.91728 4.30245e-18)
(12.9511 -6.55179 -4.26768e-18)
(12.5964 -6.26449 2.91162e-18)
(12.2397 -6.05143 -5.17056e-19)
(11.9042 -5.89462 -2.87542e-19)
(11.5971 -5.7692 -2.42021e-19)
(11.3142 -5.65145 -2.05885e-19)
(11.0466 -5.52447 -1.93079e-18)
(10.7866 -5.38003 8.71672e-20)
(10.5301 -5.21714 0)
(10.2763 -5.03917 -1.4559e-18)
(10.0262 -4.85101 1.14087e-18)
(9.78182 -4.65735 0)
(9.54438 -4.46172 -1.12486e-18)
(9.31447 -4.26631 8.51351e-19)
(9.09174 -4.07208 0)
(8.87503 -3.87897 -1.0455e-19)
(8.66246 -3.68609 0)
(8.45155 -3.49199 -1.2793e-18)
(8.2394 -3.29494 2.67727e-18)
(8.02281 -3.09316 -1.2489e-18)
(7.79856 -2.88507 1.37765e-19)
(7.56359 -2.66949 1.31645e-19)
(7.31526 -2.44582 -1.02914e-18)
(7.0516 -2.21414 8.81427e-19)
(6.77155 -1.97529 -1.16536e-19)
(6.47518 -1.73075 -1.10069e-19)
(6.16383 -1.48253 2.10064e-19)
(5.84021 -1.23282 1.01085e-19)
(5.50847 -0.983607 8.34259e-19)
(5.17522 -0.735856 -2.79802e-20)
(4.85436 -0.485841 -7.49233e-19)
(4.5779 -0.240319 -1.4732e-19)
(8.54408 -4.79423 0)
(16.6349 -10.9025 -1.95208e-19)
(16.905 -11.7168 -2.18724e-20)
(11.8493 -13.3848 1.12847e-17)
(7.06334 -14.8024 -1.95218e-17)
(2.01169 -17.1911 1.26889e-17)
(-3.10529 -20.0809 -4.63039e-18)
(-8.25007 -22.8466 0)
(-13.6186 -25.176 2.74187e-19)
(-19.219 -26.7928 -7.45294e-18)
(-24.7617 -27.6602 7.79679e-18)
(-29.7965 -27.9767 1.26452e-17)
(-33.8982 -27.9298 -2.82292e-17)
(-36.871 -27.5599 -2.41733e-18)
(-38.779 -26.827 -2.25675e-18)
(-39.7421 -25.6882 2.07832e-17)
(-39.7106 -23.9852 1.54325e-19)
(-38.6284 -21.5659 -2.71395e-17)
(-36.6276 -18.4859 2.74765e-17)
(-34.0327 -15.0048 1.75262e-19)
(-31.1316 -11.2821 1.95596e-19)
(-28.0994 -7.41027 2.90346e-20)
(-25.0342 -3.50802 -2.57599e-17)
(-22.0138 0.260449 2.84978e-18)
(-19.0803 3.73366 2.37168e-17)
(-16.2666 6.7623 2.94318e-19)
(-13.5971 9.24044 -1.78389e-17)
(-11.0885 11.1134 3.43151e-17)
(-8.74518 12.3781 -3.03212e-17)
(-6.56362 13.0763 1.39292e-17)
(-4.53274 13.281 0)
(-2.63001 13.0798 -1.90267e-17)
(-0.812951 12.55 3.50083e-17)
(0.974996 11.7458 -1.62446e-17)
(2.78702 10.7049 1.31209e-17)
(4.67056 9.45054 -1.37314e-17)
(6.65072 8.09246 -4.15273e-19)
(8.69781 6.73027 0)
(10.7386 5.42652 -1.40096e-19)
(12.677 4.23503 -7.86571e-18)
(14.4079 3.20379 8.42165e-18)
(15.8317 2.36287 -1.72294e-19)
(16.8691 1.71985 1.5667e-19)
(17.4725 1.26028 0)
(17.6324 0.95016 0)
(17.3815 0.740188 3.77571e-18)
(16.7946 0.57237 -4.21061e-18)
(15.9814 0.388776 -2.38785e-19)
(15.0706 0.142766 -2.8771e-18)
(14.1847 -0.189756 5.66229e-18)
(13.4142 -0.604221 -2.46592e-18)
(12.7999 -1.07055 0)
(12.334 -1.5449 2.21852e-18)
(11.9767 -1.98453 -2.06716e-18)
(11.68 -2.35918 0)
(11.4055 -2.65528 1.74937e-18)
(11.1314 -2.87355 -1.62564e-18)
(10.8504 -3.02345 1.39196e-18)
(10.5635 -3.11776 -1.20431e-18)
(10.2749 -3.16903 0)
(9.98877 -3.18799 2.76367e-19)
(9.70796 -3.18316 1.22884e-19)
(9.434 -3.16091 -9.1663e-19)
(9.1671 -3.12564 1.5799e-19)
(8.90643 -3.07997 8.29627e-19)
(8.65028 -3.02494 0)
(8.39623 -2.96032 8.38536e-20)
(8.1415 -2.8849 0)
(7.88318 -2.79684 0)
(7.61865 -2.69402 -1.09807e-18)
(7.34593 -2.57429 1.07061e-18)
(7.06406 -2.43577 8.4467e-19)
(6.77346 -2.277 8.30195e-20)
(6.47631 -2.09717 -7.7125e-19)
(6.17686 -1.89613 -8.9972e-19)
(5.88167 -1.67438 7.72623e-19)
(5.60004 -1.43292 -9.14355e-20)
(5.34459 -1.17365 -6.41867e-19)
(5.13348 -0.902857 1.36731e-18)
(5.00571 -0.629471 -4.34582e-19)
(4.86415 -1.85917 3.39654e-17)
(6.41858 2.27311 -2.49766e-17)
(-4.63884 3.73929 -1.90209e-17)
(-17.7654 10.197 1.95002e-17)
(-29.6805 12.6001 1.52983e-20)
(-37.089 14.2556 1.52577e-20)
(-40.5319 14.9323 0)
(-41.5459 14.8271 2.6947e-18)
(-41.4239 14.191 -2.56965e-18)
(-40.753 13.2356 0)
(-39.6331 12.0892 2.84909e-18)
(-37.9269 10.8366 -6.65421e-18)
(-35.33 9.46461 -4.19322e-19)
(-31.5886 7.93578 9.1868e-18)
(-26.7204 6.25517 -4.7695e-18)
(-21.1172 4.57237 1.38705e-19)
(-15.3739 3.13902 -4.63282e-19)
(-10.0416 2.07733 0)
(-5.42908 1.37588 -4.07722e-18)
(-1.61744 0.969521 4.33521e-18)
(1.41046 0.819592 -4.03501e-19)
(3.69523 0.921344 -3.67891e-18)
(5.30039 1.28358 3.17195e-18)
(6.27917 1.90469 -3.08455e-18)
(6.70185 2.78229 3.09309e-18)
(6.65016 3.89907 -2.95984e-19)
(6.22589 5.22142 -1.60121e-18)
(5.55043 6.69219 3.70355e-19)
(4.76742 8.23556 2.53086e-18)
(4.03644 9.761 -1.52037e-19)
(3.51955 11.1713 -6.28665e-19)
(3.36326 12.3651 2.3457e-19)
(3.67623 13.2534 -2.15014e-19)
(4.50915 13.792 0)
(5.83447 13.9903 2.58199e-19)
(7.60949 13.8952 2.475e-19)
(9.71661 13.5329 0)
(11.9642 12.9546 4.01936e-18)
(14.1683 12.2178 -4.2541e-18)
(16.1575 11.3882 -2.0123e-19)
(17.7788 10.5292 0)
(18.9069 9.69167 1.70879e-19)
(19.45 8.9056 3.56777e-18)
(19.3669 8.17679 -3.61081e-18)
(18.6794 7.4959 0)
(17.4809 6.84887 -2.72094e-18)
(15.9365 6.22165 3.26092e-18)
(14.2648 5.59776 0)
(12.7006 4.95509 0)
(11.4406 4.27085 -1.63834e-19)
(10.5919 3.53409 -1.52778e-19)
(10.1511 2.75532 0)
(10.0243 1.96531 1.93134e-18)
(10.078 1.20384 -2.04798e-18)
(10.1898 0.506349 -1.80701e-18)
(10.2776 -0.104536 2.2173e-19)
(10.3028 -0.620301 3.22092e-18)
(10.2589 -1.0431 -2.98115e-18)
(10.155 -1.38116 -7.6267e-20)
(10.0046 -1.6453 1.14957e-18)
(9.82049 -1.84703 -1.42486e-19)
(9.61279 -1.9977 0)
(9.38947 -2.10777 0)
(9.15668 -2.18634 8.73901e-19)
(8.91896 -2.24059 -9.59785e-19)
(8.67924 -2.27561 0)
(8.439 -2.29438 8.66337e-20)
(8.19852 -2.29799 0)
(7.9573 -2.28602 5.83374e-19)
(7.7145 -2.25696 -5.69331e-19)
(7.4694 -2.20859 1.25785e-19)
(7.22188 -2.13849 1.05481e-18)
(6.97282 -2.04433 -9.08756e-19)
(6.72444 -1.9243 1.00562e-19)
(6.48056 -1.77737 0)
(6.24679 -1.60356 0)
(6.0307 -1.40424 0)
(5.84203 -1.18312 -6.76812e-19)
(5.69351 -0.948113 -4.77304e-20)
(5.60711 -0.706954 1.06693e-18)
(-6.35577 0.804345 -3.29737e-17)
(-26.6619 5.95058 -4.90457e-17)
(-51.4036 13.0851 5.0203e-17)
(-67.4736 19.0934 -5.0526e-17)
(-70.0478 22.4025 5.1938e-17)
(-64.0098 24.1145 2.42179e-19)
(-56.0118 25.9269 2.25345e-19)
(-49.9852 28.4025 0)
(-46.6878 31.2462 -1.83605e-19)
(-45.0607 33.8838 0)
(-43.5121 35.8266 1.65255e-19)
(-40.7631 36.8259 4.25051e-17)
(-36.3002 37.0413 -4.31762e-17)
(-30.1456 36.7855 -3.86339e-17)
(-22.5619 36.4911 3.91362e-17)
(-14.0914 36.6973 -3.40602e-17)
(-5.7669 37.9003 3.52474e-17)
(1.33057 39.9664 0)
(6.79636 41.8699 0)
(10.7436 42.6026 0)
(13.4727 41.9957 2.06864e-17)
(15.3245 40.4768 -3.90486e-17)
(16.5886 38.4945 2.50504e-18)
(17.472 36.3202 3.05961e-17)
(18.1036 34.1147 -1.43355e-17)
(18.5453 31.9969 0)
(18.8189 30.068 9.95892e-20)
(18.9267 28.4084 0)
(18.8664 27.0635 6.27556e-18)
(18.6444 26.0363 -6.43104e-18)
(18.2907 25.3053 -1.91915e-19)
(17.859 24.8139 0)
(17.4148 24.4826 -1.36896e-18)
(17.0365 24.2075 1.7068e-18)
(16.743 23.8716 -3.51975e-19)
(16.5722 23.3826 -8.21189e-19)
(16.5574 22.6432 2.06921e-18)
(16.638 21.5946 -1.2508e-18)
(16.7507 20.2378 0)
(16.7849 18.6114 0)
(16.6027 16.7878 0)
(16.0619 14.8703 1.88364e-18)
(15.0856 12.9906 -5.74718e-18)
(13.7027 11.2391 3.75039e-18)
(12.0695 9.65687 0)
(10.4421 8.24564 -3.5709e-18)
(9.07668 6.98717 3.4645e-18)
(8.13909 5.86998 3.2086e-18)
(7.66837 4.89195 -3.53963e-19)
(7.60112 4.05027 -1.42449e-19)
(7.81927 3.3325 -1.50793e-19)
(8.19291 2.7166 -2.72506e-18)
(8.60914 2.17692 0)
(8.98746 1.69083 0)
(9.28371 1.24268 -1.89584e-18)
(9.48477 0.824693 2.00319e-18)
(9.59769 0.43556 0)
(9.63797 0.0781912 0)
(9.6208 -0.242863 8.45778e-20)
(9.55721 -0.523761 1.61117e-19)
(9.45456 -0.76302 0)
(9.31868 -0.962074 0)
(9.15566 -1.12478 -1.15848e-19)
(8.97214 -1.25633 -1.05898e-19)
(8.77473 -1.36206 8.92692e-19)
(8.56916 -1.44661 -1.49697e-18)
(8.35979 -1.51343 -4.23351e-20)
(8.14951 -1.56454 1.25884e-18)
(7.93995 -1.60065 -1.22751e-18)
(7.73185 -1.62126 1.06771e-18)
(7.52547 -1.625 -2.11033e-19)
(7.3211 -1.60999 -4.67717e-19)
(7.11946 -1.57419 8.25127e-19)
(6.92202 -1.51584 -4.23044e-20)
(6.7313 -1.43382 -1.45596e-18)
(6.55093 -1.32805 7.72595e-19)
(6.38569 -1.19982 0)
(6.2414 -1.05244 1.45551e-19)
(6.12498 -0.892301 0)
(6.04765 -0.724741 -4.96677e-19)
(-12.3881 3.37466 0)
(-12.153 -0.529516 1.40302e-19)
(14.1727 -7.89091 -1.3873e-19)
(45.123 -20.1189 1.67607e-17)
(69.1534 -27.726 -3.00763e-17)
(82.7943 -33.2016 1.24461e-17)
(84.0076 -35.5336 -2.25275e-19)
(74.0651 -34.4157 0)
(58.2704 -30.9315 0)
(43.4491 -26.8386 0)
(33.6588 -23.5044 -1.65074e-19)
(29.8189 -21.47 -4.09927e-19)
(31.7468 -20.6498 0)
(39.8591 -21.2807 2.46066e-19)
(55.2297 -24.027 6.90159e-19)
(76.1495 -28.7166 1.52802e-17)
(92.75 -32.2662 -1.5898e-17)
(91.8564 -30.4813 -4.81725e-19)
(73.047 -23.6196 0)
(49.4452 -15.7239 4.56336e-19)
(31.4398 -9.39162 2.08833e-20)
(20.6187 -4.73445 1.9133e-17)
(14.8823 -1.17136 -1.53134e-19)
(12.1975 1.69427 -1.91097e-17)
(11.2614 4.07522 -7.366e-20)
(11.2815 6.08039 3.16345e-19)
(11.7405 7.77063 -1.65987e-17)
(12.2861 9.1897 1.55624e-17)
(12.6773 10.3732 5.06348e-19)
(12.7581 11.3414 1.18912e-19)
(12.4664 12.1103 1.22079e-19)
(11.858 12.6799 -1.03771e-17)
(11.0044 13.042 1.04769e-17)