/*--------------------------------*- C++ -*----------------------------------*\
| =========                 |                                                 |
| \\      /  F ield         | OpenFOAM: The Open Source CFD Toolbox           |
|  \\    /   O peration     | Version:  2012                                  |
|   \\  /    A nd           | Website:  www.openfoam.com                      |
|    \\/     M anipulation  |                                                 |
\*---------------------------------------------------------------------------*/
FoamFile
{
    version     2.0;
    format      ascii;
    class       surfaceScalarField;
    location    "0.88";
    object      phi;
}
// * * * * * * * * * * * * * * * * * * * * * * * * * * * * * * * * * * * * * //

dimensions      [0 3 -1 0 0 0 0];
oriented        oriented;


internalField   nonuniform List<scalar> 
84340
(
-0.000291753
0.000386895
-9.51422e-05
-0.000829914
0.000833696
-0.000295535
-0.00133404
0.000985233
-0.000481104
-0.00172004
0.00101411
-0.000628113
-0.00203889
0.000941471
-0.000622622
-0.00229155
0.0007711
-0.000518439
-0.00238522
0.000535225
-0.000441555
-0.00225098
0.00029074
-0.000424977
-0.00194293
0.00013149
-0.000439546
-0.0015908
9.2434e-05
-0.000444555
-0.00129399
0.00012578
-0.000422597
-0.0010712
0.000177246
-0.000400029
-0.000896724
0.00022294
-0.000397421
-0.000748808
0.000255485
-0.000403401
-0.000626409
0.000271352
-0.000393751
-0.000535122
0.000269286
-0.000360572
-0.000472337
0.000250699
-0.000313484
-0.000429616
0.000218092
-0.000260813
-0.000399668
0.000174064
-0.000204013
-0.000377745
0.000121064
-0.000142986
-0.000362131
6.08887e-05
-7.65033e-05
-0.000352379
-4.55306e-06
-5.19836e-06
-0.000348927
-6.28546e-05
5.94026e-05
-0.000348355
-0.000106675
0.000106104
-0.000355767
-0.000132829
0.000140241
-0.000374879
-0.000154084
0.000173196
-0.000411127
-0.000176254
0.000212502
-0.000464868
-0.000202652
0.000256393
-0.000531222
-0.000236402
0.000302756
-0.000603483
-0.000278178
0.000350439
-0.000675778
-0.000327084
0.00039938
-0.000739327
-0.00038385
0.000447398
-0.000790526
-0.000441822
0.000493021
-0.000827345
-0.000501179
0.000537998
-0.000846903
-0.000560024
0.000579582
-0.000847721
-0.000614389
0.000615207
-0.000831228
-0.000658383
0.00064189
-0.000802471
-0.000685755
0.000656998
-0.000768814
-0.000692398
0.000658741
-0.000737292
-0.000677877
0.000646354
-0.000712309
-0.000644749
0.000619766
-0.000695584
-0.000596094
0.000579369
-0.000688295
-0.000533322
0.000526032
-0.000693401
-0.0004564
0.000461506
-0.000715294
-0.000366999
0.000388892
-0.000755445
-0.00027209
0.00031224
-0.000809066
-0.000182032
0.000235652
-0.000865344
-0.000106033
0.000162311
-0.0009136
-4.65657e-05
9.48209e-05
-0.000947824
1.94242e-06
3.22819e-05
-0.000963299
3.01967e-05
-1.47224e-05
-0.000960365
5.18946e-05
-5.48282e-05
-0.000942895
6.73796e-05
-8.48504e-05
-0.000914253
7.67545e-05
-0.000105396
-0.000878267
8.22577e-05
-0.000118243
-0.00083671
8.41785e-05
-0.000125735
-0.000789776
8.32905e-05
-0.000130225
-0.000736403
8.02042e-05
-0.000133578
-0.000674765
7.52084e-05
-0.000136846
-0.000602797
6.82444e-05
-0.000140212
-0.000518638
5.89745e-05
-0.000143133
-0.000420964
4.6909e-05
-0.000144584
-0.000309012
3.13677e-05
-0.000143319
-0.000182652
1.17157e-05
-0.000138077
-4.23343e-05
-1.262e-05
-0.000127697
0.000111046
-4.21842e-05
-0.000111196
0.000276241
-7.74185e-05
-8.77756e-05
0.000451685
-0.000118625
-5.68187e-05
0.000635394
-0.00016581
-1.78987e-05
0.000825211
-0.000218999
2.91821e-05
0.00101843
-0.000278004
8.47876e-05
0.00121225
-0.000342426
0.000148608
0.00140355
-0.000411689
0.000220381
0.00158905
-0.000485054
0.00029956
0.00176541
-0.000561655
0.000385289
0.00192953
-0.00064057
0.000476458
0.00207865
-0.000720913
0.000571795
0.00221051
-0.000801869
0.000670004
0.00232354
-0.000883263
0.000770232
-0.000961385
0.000873166
0.00241176
0.000321663
6.52318e-05
0.000917007
0.000238352
0.0015544
0.000347843
0.00215578
0.000412729
0.00264788
0.000449371
0.00300224
0.000416736
0.00325026
0.000287203
0.00343393
0.000107071
0.00358078
-1.53621e-05
0.00370263
-2.94148e-05
0.00380426
2.41475e-05
0.00389214
8.93717e-05
0.00397659
0.00013849
0.00407561
0.000156468
0.00419656
0.000150395
0.00434168
0.000124171
0.00450972
8.26582e-05
0.0046963
3.15082e-05
0.00489402
-2.3655e-05
0.00509175
-7.66655e-05
0.0052794
-0.000126754
0.00543153
-0.000156692
0.00552703
-0.00015835
0.00555232
-0.000131968
0.00550616
-8.66635e-05
0.00538888
-3.68091e-05
0.0052092
3.43309e-06
0.00498331
2.32302e-05
0.00473047
1.64415e-05
0.00447204
-1.97434e-05
0.00422759
-8.26407e-05
0.00401053
-0.000166792
0.00383543
-0.000266722
0.00371043
-0.000376174
0.00363547
-0.000485061
0.00359816
-0.000577082
0.00357139
-0.000631614
0.0035185
-0.000632866
0.00340479
-0.000578684
0.00320966
-0.000482753
0.00293265
-0.000367734
0.00259099
-0.00025443
0.00221213
-0.000154467
0.00182664
-7.09135e-05
0.00144509
1.45547e-05
0.0010822
9.0801e-05
0.000737996
0.000162173
0.000427869
0.000204094
0.000159171
0.000222133
-6.08991e-05
0.000222012
-0.000240903
0.0002102
-0.000381128
0.00019212
-0.00048479
0.000171043
-0.000556533
0.000148497
-0.00059955
0.000125275
-0.000617135
0.000101764
-0.000611918
7.80723e-05
-0.000585749
5.40355e-05
-0.000539955
2.94147e-05
-0.000475476
3.76555e-06
-0.000392771
-2.37305e-05
-0.000293763
-5.20998e-05
-0.000178869
-8.3526e-05
-4.93622e-05
-0.00011779
9.31863e-05
-0.000155168
0.000247027
-0.000196025
0.000410039
-0.000240432
0.00057983
-0.000288416
0.000753891
-0.000339871
0.000929484
-0.000394592
0.00110376
-0.000452277
0.00127388
-0.000512545
0.00143715
-0.000574966
0.00159119
-0.000639094
0.00173404
-0.000704505
0.00186429
-0.000770815
0.00198105
-0.000837683
0.00208389
-0.000904707
0.00217252
-0.000971894
-0.00103463
0.00224577
1.62478e-05
4.89841e-05
0.000253431
1.16899e-06
0.000610907
-9.63319e-06
0.000991411
3.22253e-05
0.00137444
6.63467e-05
0.00169307
9.81e-05
0.00185746
0.00012281
0.00181971
0.000144828
0.00163123
0.000173116
0.0014001
0.000201712
0.00120776
0.00021649
0.00108915
0.000207985
0.0010534
0.000174241
0.00109308
0.000116787
0.00120436
3.91078e-05
0.00138109
-5.25571e-05
0.00161492
-0.000151166
0.00189116
-0.000244734
0.00219062
-0.000323119
0.00249349
-0.000379534
0.00277193
-0.000405193
0.00300302
-0.000387778
0.00316851
-0.000323847
0.00326094
-0.000224397
0.00327837
-0.000104096
0.00322426
1.73015e-05
0.00310525
0.000122446
0.00292889
0.000199592
0.00270247
0.000242855
0.00243084
0.000251889
0.00211781
0.000230393
0.00176819
0.000182827
0.00138763
0.000113838
0.000981486
2.99667e-05
0.00055825
-6.18241e-05
0.000132807
-0.000151639
-0.00027524
-0.000223567
-0.000647448
-0.000260658
-0.000975167
-0.000250965
-0.0012582
-0.000199722
-0.00148734
-0.000138592
-0.00166192
-7.98499e-05
-0.00177853
-3.7858e-05
-0.0018466
-2.84824e-06
-0.00185871
2.66711e-05
-0.00182091
5.29997e-05
-0.00173456
7.58193e-05
-0.00162313
9.26611e-05
-0.00150347
0.000102475
-0.00138662
0.00010516
-0.00127791
0.000101491
-0.0011783
9.25173e-05
-0.00108643
7.91646e-05
-0.00100007
6.21426e-05
-0.000916757
4.19611e-05
-0.000834014
1.90209e-05
-0.000749991
-5.95067e-06
-0.000661266
-3.469e-05
-0.000566334
-6.55174e-05
-0.000464144
-9.84245e-05
-0.000353978
-0.000133897
-0.00023437
-0.000171708
-0.00010591
-0.000211986
3.09628e-05
-0.000254663
0.000175421
-0.000299626
0.000326124
-0.000346727
0.000481448
-0.000395756
0.000639492
-0.00044646
0.000798177
-0.000498556
0.000955339
-0.000551754
0.00110883
-0.00060577
0.00125664
-0.000660352
0.00139696
-0.000715293
0.00152831
-0.000770443
0.00164951
-0.000825702
0.0017597
-0.000881006
0.00185831
-0.000936291
0.00194506
-0.000991456
0.00201963
-0.00104646
-0.00109955
0.00208455
0.000621842
-0.000572858
0.00174773
-0.00112471
0.0030581
-0.00132
0.00447675
-0.00138642
0.00592388
-0.00138079
0.00729927
-0.00127728
0.00851774
-0.00109567
0.00954319
-0.000880616
0.0103838
-0.000667504
0.0110701
-0.00048454
0.0116294
-0.000342812
0.0120821
-0.00024473
0.012436
-0.000179636
0.0126872
-0.000134488
0.0128248
-9.84784e-05
0.0128349
-6.26171e-05
0.0127035
-1.97937e-05
0.0124222
3.65325e-05
0.0119837
0.00011537
0.01138
0.000224243
0.0106202
0.000354558
0.00974217
0.000490267
0.00878754
0.000630787
0.00781182
0.000751325
0.00686571
0.000842006
0.00598337
0.000899643
0.00518337
0.000922447
0.00447288
0.000910087
0.00384874
0.000866995
0.00329613
0.000804501
0.00279073
0.000735786
0.00230894
0.000664623
0.00183817
0.000584607
0.00137616
0.000491978
0.000922397
0.000391936
0.000480997
0.000289761
6.40021e-05
0.000193427
-0.000310455
0.000113799
-0.000621394
5.99745e-05
-0.00085425
3.31338e-05
-0.00101901
2.61651e-05
-0.0011291
3.02415e-05
-0.00120581
3.88529e-05
-0.00125734
4.86837e-05
-0.00128863
5.79573e-05
-0.00130108
6.54537e-05
-0.00129531
7.00507e-05
-0.00127365
7.10003e-05
-0.00123913
6.79541e-05
-0.00119486
6.08887e-05
-0.0011433
4.99283e-05
-0.00108601
3.52329e-05
-0.00102386
1.70068e-05
-0.000957011
-4.70454e-06
-0.000885155
-2.98955e-05
-0.000808042
-5.80923e-05
-0.000724315
-8.96776e-05
-0.000634521
-0.000124483
-0.000537737
-0.000162302
-0.00043315
-0.000203012
-0.000320616
-0.000246431
-0.000200027
-0.000292297
-7.17165e-05
-0.000340296
6.36735e-05
-0.000390053
0.000205181
-0.000441134
0.000351517
-0.000493064
0.000501114
-0.000545353
0.00065217
-0.000597515
0.000802721
-0.000649108
0.000950719
-0.000699754
0.00109412
-0.000749172
0.00123097
-0.000797197
0.00135947
-0.000843795
0.00147809
-0.000889064
0.00158563
-0.00093324
0.00168129
-0.000976674
0.00176482
-0.00101981
0.00183652
-0.00106315
0.00189727
-0.00110722
-0.00115154
0.00194926
-0.000289899
-0.000282959
-0.000618059
-0.000796556
-0.000629161
-0.0013089
-0.000442596
-0.00157299
-0.000413034
-0.00141035
-0.000696154
-0.000994162
-0.00119685
-0.000594971
-0.00176453
-0.000312933
-0.00229932
-0.00013272
-0.00275674
-2.71149e-05
-0.00311868
1.91219e-05
-0.00338379
2.0385e-05
-0.00355694
-6.48909e-06
-0.00364552
-4.59017e-05
-0.00365753
-8.64711e-05
-0.00360668
-0.000113472
-0.00351995
-0.000106525
-0.00343306
-5.03573e-05
-0.00336916
5.14714e-05
-0.00333976
0.000194847
-0.00333709
0.000351888
-0.00334575
0.000498926
-0.00333948
0.000624515
-0.00331097
0.000722814
-0.00325505
0.000786083
-0.00316093
0.000805523
-0.00301661
0.000778132
-0.00281583
0.000709305
-0.00256174
0.000612902
-0.00226187
0.000504637
-0.00193864
0.000412552
-0.00162258
0.000348567
-0.00134169
0.000303719
-0.00111384
0.000264123
-0.000946806
0.000224902
-0.00084527
0.000188226
-0.000808989
0.000157146
-0.000828362
0.000133173
-0.000884615
0.000116228
-0.000956488
0.000105007
-0.00102811
9.77892e-05
-0.00109082
9.29445e-05
-0.00114117
8.92043e-05
-0.00117805
8.55679e-05
-0.00120132
8.12288e-05
-0.00121137
7.55052e-05
-0.00120914
6.78218e-05
-0.00119585
5.77018e-05
-0.00117283
4.49342e-05
-0.00114128
2.93437e-05
-0.00110212
1.07722e-05
-0.00105516
-1.17336e-05
-0.00100236
-3.57921e-05
-0.000942888
-6.41747e-05
-0.000876717
-9.60673e-05
-0.000803288
-0.000131521
-0.000722387
-0.000170578
-0.000633667
-0.000213202
-0.000536708
-0.000259261
-0.000431202
-0.000308518
-0.000317024
-0.000360609
-0.000194282
-0.000415038
-6.34012e-05
-0.000471177
7.48287e-05
-0.000528283
0.000219229
-0.000585534
0.000368241
-0.000642076
0.000519965
-0.000697076
0.000672235
-0.000749784
0.000822719
-0.000799591
0.000969037
-0.000846072
0.00110889
-0.000889021
0.00124016
-0.000928474
0.00136109
-0.000964718
0.00147031
-0.000998287
0.00156702
-0.00102995
0.00165101
-0.00106067
0.00172272
-0.00109153
0.0017832
-0.00112363
0.0018339
-0.00115792
-0.0011951
0.00187745
-0.000628115
0.000345156
-0.00171387
0.000289201
-0.00279917
-0.000223599
-0.00377917
-0.000592989
-0.00465305
-0.000536478
-0.00541368
-0.000233534
-0.00604646
3.78057e-05
-0.00653542
0.000176028
-0.00688704
0.000218904
-0.00712674
0.000212583
-0.00729099
0.000183379
-0.00741084
0.00014023
-0.00749207
7.47412e-05
-0.00751866
-1.93095e-05
-0.00745025
-0.000154877
-0.00722244
-0.000341289
-0.00675302
-0.000575942
-0.00599551
-0.000807867
-0.00504726
-0.000896783
-0.00415329
-0.000699118
-0.00354409
-0.00025731
-0.00324361
0.000198439
-0.00311151
0.000492414
-0.00301696
0.000628273
-0.00290962
0.000678741
-0.00278478
0.000680677
-0.00264978
0.000643137
-0.00251105
0.000570571
-0.0023631
0.000464954
-0.00222051
0.000362046
-0.00208103
0.000273077
-0.00193966
0.000207197
-0.00179874
0.000162798
-0.00166594
0.000131327
-0.00155499
0.000113947
-0.00147127
0.000104509
-0.00141385
9.97181e-05
-0.0013783
9.76247e-05
-0.00135739
9.53212e-05
-0.00134389
9.14998e-05
-0.00133323
8.71338e-05
-0.00132229
8.20008e-05
-0.00130902
7.59371e-05
-0.00129223
6.87807e-05
-0.00127134
6.03388e-05
-0.00124622
5.03827e-05
-0.00121708
3.86836e-05
-0.00118197
2.25875e-05
-0.00114266
5.62797e-06
-0.00110003
-1.32857e-05
-0.00105426
-3.5006e-05
-0.00100628
-5.97096e-05
-0.000953217
-8.88552e-05
-0.000895781
-0.000121611
-0.000833185
-0.000158664
-0.000764492
-0.000200214
-0.000688698
-0.000246373
-0.000604801
-0.000297099
-0.000511887
-0.000352175
-0.000409242
-0.000411162
-0.000296472
-0.000473379
-0.000173613
-0.000537898
-4.12163e-05
-0.000603573
9.96008e-05
-0.0006691
0.000247164
-0.000733097
0.000399306
-0.000794218
0.000553484
-0.000851254
0.000706937
-0.000903238
0.000856867
-0.000949522
0.00100061
-0.000989817
0.0011358
-0.00102421
0.00126046
-0.00105313
0.0013731
-0.00107736
0.00147275
-0.00109794
0.00155898
-0.00111618
0.00163189
-0.00113358
0.00169211
-0.00115175
0.00174071
-0.00117223
0.00177916
-0.00119636
-0.0012252
0.00180927
0.000431843
-8.66874e-05
0.00083262
-0.000111575
0.000756477
-0.000147456
0.00039207
-0.000228582
0.000135387
-0.000279795
0.000168117
-0.000266264
0.00040278
-0.000196858
0.000679275
-0.000100468
0.000905346
-7.16634e-06
0.00104968
6.82442e-05
0.0011044
0.00012866
0.00106005
0.000184584
0.000899917
0.000234873
0.000614258
0.00026635
0.000204974
0.000254406
-0.000300629
0.000164314
-0.000836213
-4.03582e-05
-0.00129221
-0.000351872
-0.00155699
-0.000631998
-0.0015988
-0.000657309
-0.0014852
-0.000370916
-0.00132078
3.4024e-05
-0.00118188
0.000353515
-0.00109946
0.000545851
-0.00107192
0.000651201
-0.00108235
0.000691103
-0.00111367
0.000674459
-0.00116002
0.000616926
-0.00121025
0.000515183
-0.0012443
0.000396095
-0.00125301
0.00028179
-0.00122458
0.000178763
-0.00117572
0.000113936
-0.00112348
7.90901e-05
-0.0010738
6.42706e-05
-0.00103037
6.1074e-05
-0.000994166
6.35162e-05
-0.000964695
6.81533e-05
-0.00094234
7.29663e-05
-0.000927493
7.66534e-05
-0.000918737
7.83779e-05
-0.000914349
7.76128e-05
-0.000912487
7.40745e-05
-0.000911369
6.76631e-05
-0.000909427
5.83969e-05
-0.000905393
4.63497e-05
-0.000898299
3.15896e-05
-0.000889839
1.41266e-05
-0.0008782
-6.01131e-06
-0.000862404
-2.90818e-05
-0.000842479
-5.49297e-05
-0.000818049
-8.41398e-05
-0.000789285
-0.000117619
-0.000755165
-0.000155731
-0.000714779
-0.000199049
-0.000666931
-0.000248062
-0.000610234
-0.00030307
-0.000543249
-0.000364084
-0.000464678
-0.000430747
-0.000373564
-0.000502276
-0.000269489
-0.000577454
-0.000152728
-0.000654659
-2.43396e-05
-0.000731962
0.000113827
-0.000807267
0.000259218
-0.000878488
0.000408748
-0.000943748
0.000559044
-0.00100155
0.000706716
-0.00105091
0.00084863
-0.00109144
0.000982118
-0.0011233
0.00110511
-0.0011472
0.0012162
-0.00116422
0.00131457
-0.00117573
0.00139995
-0.00118333
0.00147255
-0.00118878
0.00153296
-0.00119399
0.00158215
-0.00120093
0.00162142
-0.0012115
0.0016524
-0.00122734
-0.00124958
0.00167678
-2.63588e-05
-6.03285e-05
-0.00013813
1.95629e-07
-0.000466406
0.000180821
-0.000933275
0.000238287
-0.00138203
0.00016896
-0.00178267
0.000134378
-0.00219658
0.000217052
-0.00268059
0.000383538
-0.00321695
0.0005292
-0.00372823
0.000579526
-0.00415864
0.000559061
-0.00447962
0.00050557
-0.00467877
0.000434018
-0.00476104
0.000348626
-0.00474648
0.000239847
-0.00467594
9.37665e-05
-0.00461541
-0.000100887
-0.00462529
-0.000341994
-0.00466866
-0.00058862
-0.00456173
-0.000764239
-0.00411888
-0.000813772
-0.00334109
-0.000743765
-0.00239007
-0.000597503
-0.00142904
-0.000415179
-0.000548986
-0.000228854
0.000206816
-6.4699e-05
0.000820132
6.11426e-05
0.00129378
0.000143279
0.00162332
0.000185638
0.00180513
0.000214289
0.0018472
0.00023972
0.00175632
0.000269643
0.00156672
0.000303536
0.00131316
0.000332648
0.00102889
0.000348538
0.000737535
0.000352431
0.000463167
0.000337883
0.000218855
0.000312465
1.03911e-05
0.00028143
-0.00016122
0.000248265
-0.000297871
0.000215028
-0.000403052
0.000182793
-0.000480967
0.000151989
-0.000535969
0.000122666
-0.000572277
9.47051e-05
-0.000593817
6.78891e-05
-0.000603967
4.17394e-05
-0.000606601
1.67604e-05
-0.000604239
-8.37357e-06
-0.000599189
-3.41319e-05
-0.000592734
-6.13841e-05
-0.000585391
-9.14829e-05
-0.000577164
-0.000125847
-0.000566919
-0.000165976
-0.000552724
-0.000213245
-0.000532072
-0.000268714
-0.000502196
-0.000332946
-0.000460421
-0.000405859
-0.000404521
-0.000486647
-0.000333022
-0.000573776
-0.000245438
-0.000665037
-0.000142405
-0.000757691
-2.57016e-05
-0.000848664
0.00010185
-0.000934818
0.000236618
-0.00101326
0.000374496
-0.00108163
0.000511309
-0.00113836
0.000643226
-0.00118283
0.000767114
-0.00121533
0.000880775
-0.00123697
0.000983023
-0.00124945
0.0010736
-0.0012548
0.001153
-0.00125512
0.00122217
-0.00125249
0.00128228
-0.00124889
0.00133456
-0.00124627
0.00138018
-0.00124655
0.00142022
-0.00125154
0.00145563
-0.00126276
-0.00128128
0.00148733
1.24525e-05
-7.27809e-05
0.000130822
-0.000118175
0.000477844
-0.000166201
0.00106514
-0.000349007
0.00185391
-0.00061981
0.00281565
-0.000827363
0.00389521
-0.00086251
0.00498729
-0.000708541
0.00595976
-0.000443266
0.00670622
-0.000166938
0.00720798
5.73036e-05
0.00748021
0.000233336
0.00754427
0.000369962
0.0074212
0.000471695
0.00712468
0.000536369
0.0066579
0.000560546
0.00601245
0.000544564
0.00517456
0.000495892
0.00415371
0.000432232
0.00301196
0.000377505
0.00184644
0.000351755
0.000741217
0.000361456
-0.000255215
0.000398929
-0.00111949
0.000449095
-0.00184339
0.000495051
-0.00242964
0.000521547
-0.00288619
0.000517687
-0.00322163
0.000478723
-0.00344359
0.000407602
-0.00354239
0.000313084
-0.00351828
0.000215613
-0.00338149
0.000132851
-0.00314753
6.95757e-05
-0.00284401
2.91284e-05
-0.00250454
9.07038e-06
-0.00215566
3.55548e-06
-0.00182385
6.0679e-06
-0.00152542
1.40415e-05
-0.00126732
2.33222e-05
-0.00104948
3.04302e-05
-0.000868875
3.44216e-05
-0.000721065
3.49817e-05
-0.00060116
3.20844e-05
-0.00050445
2.59563e-05
-0.000426812
1.70676e-05
-0.000365035
6.11144e-06
-0.000317183
-6.11311e-06
-0.000281559
-1.88636e-05
-0.000258113
-3.18199e-05
-0.000246908
-4.53369e-05
-0.000247623
-6.06686e-05
-0.000259125
-7.99817e-05
-0.000278926
-0.000106045
-0.00030318
-0.000141722
-0.000327027
-0.000189398
-0.0003452
-0.000250541
-0.000352697
-0.00032545
-0.000345316
-0.000413239
-0.000320031
-0.000511932
-0.000275195
-0.000618612
-0.000210635
-0.000729597
-0.000127665
-0.000840662
-2.89826e-05
-0.000947347
8.15658e-05
-0.00104537
0.000199269
-0.00113096
0.000319115
-0.00120147
0.000436323
-0.00125557
0.000546863
-0.00129337
0.000647879
-0.00131634
0.000737904
-0.00132699
0.000816851
-0.0013284
0.000885786
-0.00132373
0.000946529
-0.00131587
0.00100119
-0.00130715
0.00105175
-0.00129945
0.00109975
-0.00129427
0.00114618
-0.00129298
0.00119144
-0.00129681
0.00123548
-0.00130679
-0.00132398
0.00127818
-0.000298639
0.000225858
-0.000717296
0.000300483
-0.00107669
0.000193195
-0.00145346
2.77619e-05
-0.00190247
-0.000170802
-0.00235819
-0.00037164
-0.00269597
-0.000524737
-0.00282862
-0.000575892
-0.00276147
-0.000510407
-0.00255747
-0.000370943
-0.00228713
-0.000213037
-0.00198363
-7.01619e-05
-0.0016644
5.07285e-05
-0.00134643
0.000153725
-0.00105244
0.000242381
-0.000808169
0.000316276
-0.000636912
0.000373307
-0.000554826
0.000413806
-0.000565046
0.000442451
-0.000654069
0.000466528
-0.00079341
0.000491097
-0.000949605
0.00051765
-0.00109361
0.000542939
-0.001205
0.000560484
-0.00127267
0.000562719
-0.00129501
0.000543883
-0.0012785
0.000501179
-0.00123471
0.000434931
-0.00117647
0.00034936
-0.00111536
0.000251974
-0.00105316
0.00015342
-0.000985943
6.56313e-05
-0.000905742
-1.06251e-05
-0.000806254
-7.03597e-05
-0.000688955
-0.000108228
-0.000558348
-0.000127052
-0.000420729
-0.000131551
-0.000280541
-0.000126146
-0.000142675
-0.000114544
-1.24013e-05
-9.98434e-05
0.000106535
-8.45143e-05
0.000212229
-7.07117e-05
0.00030401
-5.96967e-05
0.000381725
-5.17586e-05
0.000444888
-4.60953e-05
0.000491997
-4.09975e-05
0.000520412
-3.45276e-05
0.000527059
-2.55107e-05
0.000509581
-1.43407e-05
0.000467372
-3.12757e-06
0.000402964
3.73818e-06
0.000321395
1.58778e-06
0.00022907
-1.37197e-05
0.000133545
-4.61969e-05
4.25642e-05
-9.84173e-05
-3.68934e-05
-0.000171084
-9.90965e-05
-0.000263247
-0.000139879
-0.000372457
-0.000156658
-0.000495153
-0.000148417
-0.000626853
-0.000115717
-0.000762297
-6.06558e-05
-0.000895723
1.31568e-05
-0.00102116
0.000100838
-0.00113305
0.000196801
-0.00122692
0.000295203
-0.00129988
0.000390696
-0.00135106
0.000479055
-0.00138173
0.000557622
-0.00139491
0.000625468
-0.00139484
0.000683289
-0.00138622
0.000733042
-0.00137349
0.000777418
-0.00136024
0.000819245
-0.00134898
0.000860965
-0.00134117
0.00090427
-0.00133758
0.000949945
-0.00133865
0.000997898
-0.00134476
0.00104736
-0.00135626
-0.00137401
0.00109739
0.000516053
-0.000290196
0.00126634
-0.000449806
0.00198332
-0.000523784
0.00261966
-0.000608577
0.00311512
-0.000666263
0.00345235
-0.000708864
0.00364864
-0.000721031
0.00375031
-0.000677565
0.00380897
-0.000569069
0.00384896
-0.000410929
0.00386442
-0.000228498
0.00383905
-4.47912e-05
0.00376466
0.000125116
0.0036446
0.000273789
0.0034888
0.000398179
0.00330768
0.000497401
0.00310906
0.000571921
0.00289913
0.000623736
0.00268836
0.000653228
0.00249544
0.000659442
0.00233765
0.00064889
0.00223174
0.000623552
0.00218951
0.000585169
0.00221505
0.000534951
0.00230366
0.000474107
0.00244334
0.0004042
0.0026171
0.000327418
0.00280546
0.000246575
0.0029924
0.00016242
0.00316648
7.78902e-05
0.00331794
1.96344e-06
0.00344613
-6.25591e-05
0.00354909
-0.000113589
0.00362869
-0.000149957
0.00369174
-0.000171278
0.00374291
-0.000178224
0.00378337
-0.000172008
0.00381099
-0.00015377
0.0038218
-0.000125353
0.00381418
-9.22195e-05
0.00377538
-4.57157e-05
0.00369971
4.95236e-06
0.00358123
5.8786e-05
0.00341669
0.000112782
0.00320695
0.000163641
0.00295736
0.000208599
0.00267683
0.000246001
0.00237612
0.000275192
0.0020661
0.000295683
0.00175683
0.000306141
0.00145665
0.000303923
0.00117287
0.000285361
0.000912475
0.000246681
0.000681092
0.000185185
0.000483188
9.94867e-05
0.000320034
-7.92973e-06
0.000192908
-0.000136122
0.000101619
-0.000281168
4.50995e-05
-0.000438633
2.14283e-05
-0.000603182
2.7766e-05
-0.000768635
6.01644e-05
-0.000928122
0.000113626
-0.00107462
0.000182177
-0.0012016
0.000259249
-0.00130399
0.00033842
-0.00137905
0.00041413
-0.00142677
0.00048233
-0.00144993
0.000540851
-0.00145343
0.000589412
-0.0014434
0.000629342
-0.00142615
0.000663101
-0.00140725
0.000693695
-0.00139084
0.00072409
-0.00137938
0.000756715
-0.00137379
0.000793131
-0.00137399
0.000833903
-0.00137943
0.000878661
-0.00138952
0.00092633
-0.00140393
-0.00142306
0.000975378
-0.000856976
0.000566781
-0.00234232
0.00103554
-0.00397628
0.00111018
-0.00563247
0.00104761
-0.00722379
0.000925049
-0.00869873
0.000766083
-0.0100224
0.000602657
-0.0111572
0.000457176
-0.0120623
0.000336076
-0.0127063
0.000233113
-0.0130736
0.000138761
-0.0131666
4.81671e-05
-0.0130017
-3.97036e-05
-0.0126047
-0.000123303
-0.0120046
-0.000201905
-0.0112296
-0.000277591
-0.0103082
-0.000349506
-0.00926969
-0.000414729
-0.00814643
-0.000470033
-0.0069705
-0.000516479
-0.00576703
-0.000554588
-0.00455665
-0.000586823
-0.00335469
-0.000616796
-0.00217166
-0.00064807
-0.00101546
-0.000682098
0.000103901
-0.00071516
0.00117226
-0.000740937
0.00217905
-0.000760223
0.00310897
-0.000767501
0.00394502
-0.000758159
0.00467599
-0.000729
0.00529168
-0.000678249
0.00578341
-0.000605316
0.00614571
-0.00051226
0.00637825
-0.00040382
0.00648704
-0.000287017
0.00648592
-0.000170887
0.00637897
-4.68216e-05
0.00617462
7.90025e-05
0.00588946
0.000192942
0.00554742
0.000296322
0.00515942
0.000392953
0.0047352
0.000483008
0.00428386
0.000564122
0.0038156
0.000631899
0.00334265
0.000681547
0.00287879
0.000709865
0.00243763
0.000716348
0.00203062
0.000702688
0.00166564
0.000671123
0.00134668
0.000622882
0.00107439
0.000557652
0.000846935
0.000474138
0.000661389
0.000370731
0.000513254
0.000247622
0.0004016
0.000103724
0.000318563
-5.30846e-05
0.000264024
-0.000226629
0.000235841
-0.00041045
0.000231689
-0.000599031
0.000248774
-0.00078572
0.000283581
-0.000962929
0.000331724
-0.00112276
0.000388093
-0.00125797
0.000447198
-0.0013631
0.000503851
-0.0014357
0.000553987
-0.00147691
0.000595269
-0.00149121
0.000627282
-0.00148544
0.000651261
-0.00146738
0.00066954
-0.00144443
0.000684937
-0.00142264
0.000700227
-0.00140613
0.000717756
-0.00139691
0.000739195
-0.00139523
0.000765426
-0.00140023
0.000796541
-0.00141054
0.000831946
-0.00142492
0.000870531
-0.00144251
-0.00146319
0.000910666
0.000670912
-0.000104132
0.00158515
0.000121301
0.00226451
0.000430822
0.00265921
0.000652912
0.00279563
0.000788629
0.00269478
0.000866931
0.00238952
0.000907916
0.00192854
0.000918161
0.00136643
0.00089818
0.000743414
0.000856132
9.04605e-05
0.000791714
-0.000546162
0.00068479
-0.00110034
0.000514472
-0.00150047
0.000276827
-0.00169681
-5.56038e-06
-0.00168042
-0.000293983
-0.00148077
-0.000549153
-0.00114766
-0.00074784
-0.000744326
-0.00087337
-0.00032934
-0.000931465
6.09794e-05
-0.000944908
0.000410102
-0.000935946
0.000708506
-0.000915199
0.000949513
-0.000889077
0.00113193
-0.000864512
0.00126447
-0.000847699
0.0013631
-0.000839566
0.00143825
-0.000835381
0.00149888
-0.000828131
0.00154964
-0.000808914
0.00158995
-0.000769314
0.00161219
-0.000700491
0.00160144
-0.000594566
0.00154257
-0.000453393
0.00142714
-0.000288388
0.00125615
-0.000116022
0.00106061
2.46523e-05
0.000869978
0.000143808
0.000703587
0.000245393
0.000565986
0.000330544
0.000457529
0.000404779
0.00037805
0.000472433
0.000325891
0.000535166
0.000297965
0.000592048
0.000289512
0.000640352
0.000294309
0.00067675
0.000305763
0.000698411
0.000318571
0.00070354
0.000329995
0.000691264
0.000340005
0.000661113
0.000350338
0.000612548
0.000363172
0.000544819
0.000380141
0.00045717
0.000401751
0.000349121
0.000428284
0.000221089
0.00045812
7.38876e-05
0.000494093
-8.90576e-05
0.000533723
-0.000266258
0.000576177
-0.000452904
0.000620436
-0.000643289
0.000665175
-0.000830459
0.000708722
-0.00100648
0.000748959
-0.001163
0.000783385
-0.00129239
0.000809473
-0.00138919
0.000825309
-0.00145154
0.000830326
-0.00148192
0.000825729
-0.00148661
0.000814319
-0.00147403
0.000799775
-0.00145283
0.000785762
-0.00143041
0.000775216
-0.0014121
0.000770029
-0.00140094
0.000771076
-0.00139795
0.000778433
-0.00140259
0.000791639
-0.00141343
0.000809905
-0.00142881
0.000832252
-0.00144727
0.000857575
-0.00146783
-0.0014901
0.00088448
-0.000103517
-6.14481e-07
-7.13616e-05
8.91457e-05
0.000189042
0.000170418
0.000619418
0.000222535
0.00113229
0.000275756
0.00167619
0.000323033
0.00222565
0.000358452
0.00275916
0.000384652
0.00324588
0.000411459
0.00365369
0.000448323
0.00395999
0.000485418
0.0041615
0.000483281
0.00429907
0.0003769
0.00444246
0.000133432
0.00468304
-0.000246134
0.00508813
-0.00069907
0.00567564
-0.00113667
0.0063425
-0.0014147
0.0068728
-0.00140367
0.00706248
-0.00112115
0.00685583
-0.000738259
0.00634654
-0.000426648
0.00567938
-0.000248049
0.00496942
-0.000179111
0.00427816
-0.00017325
0.0036276
-0.000197147
0.00302231
-0.000234276
0.00246313
-0.000276199
0.00195108
-0.00031608
0.00148764
-0.000345478
0.0010729
-0.000354565
0.000705468
-0.000333063
0.000383923
-0.000273021
0.000105639
-0.000175109
-0.00013049
-5.22579e-05
-0.000321284
7.47721e-05
-0.000484143
0.000187511
-0.000618185
0.00027785
-0.000719775
0.000346983
-0.00078965
0.000400419
-0.000828591
0.00044372
-0.000836595
0.000480436
-0.000813374
0.000511945
-0.000759339
0.000538013
-0.000676459
0.000557471
-0.000568462
0.000568753
-0.000440292
0.000570242
-0.000297193
0.000560441
-0.000143909
0.00053798
1.56267e-05
0.000501577
0.000178152
0.000450023
0.000340726
0.000382244
0.000500503
0.000297393
0.00065485
0.000194774
0.000800445
7.54944e-05
0.00093428
-5.9947e-05
0.00105495
-0.000209728
0.0011596
-0.000370911
0.00124617
-0.000539471
0.001313
-0.000710122
0.00135891
-0.00087637
0.00138318
-0.00103074
0.00138559
-0.00116542
0.0013666
-0.0012734
0.00132767
-0.00135025
0.00127181
-0.00139567
0.00120381
-0.00141393
0.00112996
-0.00141276
0.00105697
-0.00140104
0.000990787
-0.00138665
0.000935536
-0.00137516
0.000893138
-0.0013697
0.000863541
-0.00137134
0.000845349
-0.00137976
0.000836543
-0.00139378
0.00083505
-0.00141194
0.000839074
-0.00143283
0.000847188
-0.00145538
0.00085827
-0.00147892
-0.00150308
0.000871251
-0.000538034
0.000537419
-0.0012962
0.00084731
-0.00199137
0.000865586
-0.00262962
0.000860793
-0.00321576
0.000861891
-0.00372271
0.000829988
-0.00409797
0.000733707
-0.00430183
0.000588514
-0.00432105
0.000430675
-0.00416311
0.000290382
-0.0038491
0.00017141
-0.0034099
4.40809e-05
-0.00289646
-0.00013654
-0.00235481
-0.000408216
-0.00181979
-0.000781154
-0.00129766
-0.0012212
-0.000806076
-0.00162825
-0.00038125
-0.00183953
-6.21516e-05
-0.00172277
0.000126977
-0.00131028
0.000186446
-0.000797728
0.000136067
-0.000376269
9.15198e-06
-0.000121134
-0.0001636
-6.35873e-06
-0.000365349
2.84987e-05
-0.000591071
2.85756e-05
-0.000840737
1.53902e-05
-0.00111455
-2.38819e-06
-0.00141025
-2.03816e-05
-0.00172094
-3.47804e-05
-0.00203441
-4.11009e-05
-0.00232829
-3.91847e-05
-0.00257651
-2.4798e-05
-0.00275312
1.50468e-06
-0.00284213
3.67508e-05
-0.00284401
7.66516e-05
-0.00277347
0.000116974
-0.00265042
0.000154798
-0.00249218
0.000188738
-0.00231021
0.000218448
-0.00211047
0.000243987
-0.00189543
0.000265395
-0.00166597
0.000282482
-0.00142277
0.000294809
-0.00116702
0.000301722
-0.000900654
0.000302389
-0.000626249