/*--------------------------------*- C++ -*----------------------------------*\
| =========                 |                                                 |
| \\      /  F ield         | OpenFOAM: The Open Source CFD Toolbox           |
|  \\    /   O peration     | Version:  2012                                  |
|   \\  /    A nd           | Website:  www.openfoam.com                      |
|    \\/     M anipulation  |                                                 |
\*---------------------------------------------------------------------------*/
FoamFile
{
    version     2.0;
    format      ascii;
    class       volVectorField;
    location    "0.88";
    object      U;
}
// * * * * * * * * * * * * * * * * * * * * * * * * * * * * * * * * * * * * * //

dimensions      [0 1 -1 0 0 0 0];


internalField   nonuniform List<vector> 
42400
(
(-11.5089 10.8994 5.82435e-17)
(-26.633 23.1916 8.56019e-17)
(-32.2223 22.243 -8.77888e-17)
(-32.3392 18.4864 0)
(-27.6394 12.0169 0)
(-21.3196 4.66885 -2.34511e-19)
(-17.1596 -0.0527828 0)
(-15.4201 -1.34891 2.7191e-19)
(-15.0202 0.135418 0)
(-14.8707 2.63665 3.08544e-19)
(-14.465 4.41273 3.18487e-19)
(-13.9057 5.4198 -3.21898e-19)
(-13.4195 6.12132 -4.75963e-17)
(-12.8873 6.6707 4.85392e-17)
(-12.1407 6.89494 -2.92735e-19)
(-11.1087 6.65437 0)
(-9.8461 5.9707 0)
(-8.41503 4.94434 0)
(-6.85144 3.67578 0)
(-5.17515 2.24162 0)
(-3.41636 0.687564 0)
(-1.64513 -0.912715 -2.10439e-19)
(-0.00468708 -2.38757 -1.61334e-17)
(1.35112 -3.58387 2.39266e-18)
(2.37684 -4.53761 1.38903e-17)
(3.1569 -5.38325 -2.00786e-20)
(3.823 -6.22042 1.35111e-20)
(4.4478 -7.09436 -8.25963e-20)
(5.0345 -8.01533 0)
(5.58874 -8.96061 0)
(6.13585 -9.88728 3.39623e-18)
(6.68386 -10.7824 -3.42872e-18)
(7.22293 -11.6197 -1.77875e-19)
(7.75457 -12.3535 -2.07451e-18)
(8.23696 -12.9368 2.23435e-18)
(8.61862 -13.3103 0)
(8.8449 -13.4264 0)
(8.87185 -13.2682 0)
(8.67569 -12.855 0)
(8.25474 -12.2299 -4.30514e-18)
(7.62326 -11.4379 4.31768e-18)
(6.80325 -10.5133 -5.10028e-18)
(5.82185 -9.48629 1.52142e-20)
(4.71617 -8.399 1.04394e-17)
(3.53745 -7.31752 -5.09961e-18)
(2.3477 -6.31411 4.87653e-18)
(1.20587 -5.43487 -9.81097e-18)
(0.162356 -4.68447 4.64216e-18)
(-0.746458 -4.03954 2.80611e-19)
(-1.4998 -3.4769 -4.16997e-18)
(-2.08695 -2.98473 8.07426e-18)
(-2.50477 -2.55691 2.89216e-19)
(-2.76776 -2.19221 -4.13564e-18)
(-2.90116 -1.89076 4.36424e-19)
(-2.93454 -1.64466 0)
(-2.89631 -1.44096 0)
(-2.80781 -1.26467 0)
(-2.68169 -1.10162 -3.51327e-19)
(-2.52255 -0.940757 -3.33058e-19)
(-2.32892 -0.775066 0)
(-2.09588 -0.601479 -4.48979e-18)
(-1.81756 -0.420236 4.69693e-18)
(-1.48852 -0.234204 4.02949e-18)
(-1.10514 -0.0474388 -3.95262e-18)
(-0.666059 0.135339 0)
(-0.172067 0.309328 0)
(0.374107 0.470112 3.19221e-18)
(0.968038 0.613734 -3.11919e-18)
(1.60349 0.736817 -3.73771e-19)
(2.27279 0.836572 0)
(2.96677 0.910691 0)
(3.67479 0.957496 -2.97347e-19)
(4.38507 0.976134 -2.73074e-19)
(5.08486 0.966439 0)
(5.76094 0.928967 -2.27259e-19)
(6.40054 0.864891 -1.5052e-18)
(6.99249 0.775751 1.4598e-18)
(7.52765 0.66281 3.34931e-19)
(8.00832 0.530726 1.0739e-18)
(8.4055 0.360371 8.56923e-19)
(-14.7804 13.9419 0)
(-32.5922 35.0867 -2.83835e-17)
(-40.8415 43.577 2.90299e-17)
(-40.6516 49.1646 0)
(-37.982 50.0404 0)
(-29.5392 46.1118 -4.5204e-18)
(-15.1344 35.749 4.8634e-18)
(1.08523 22.0336 -2.66179e-19)
(12.075 12.2665 0)
(15.0823 10.0856 -3.02216e-19)
(13.0273 12.7028 -3.12281e-19)
(9.64038 16.2738 -3.03799e-17)
(6.7895 19.2035 -2.41532e-19)
(4.94271 21.2822 3.19306e-17)
(4.09216 22.6187 2.97611e-17)
(4.12539 23.3307 -3.0353e-17)
(4.91367 23.5233 0)
(6.32388 23.2921 -4.02543e-19)
(8.21169 22.7127 0)
(10.4205 21.8699 0)
(12.7965 20.8441 0)
(15.1567 19.6899 -4.35012e-18)
(17.2804 18.4561 4.2224e-18)
(18.9896 17.1881 2.04723e-19)
(20.2084 15.9059 0)
(20.9632 14.5822 4.38898e-19)
(21.3491 13.1718 -1.30997e-20)
(21.495 11.6442 8.00193e-20)
(21.5488 9.98635 1.39962e-17)
(21.621 8.22194 -1.41446e-17)
(21.7328 6.45357 5.65024e-19)
(21.8979 4.78279 4.98446e-19)
(22.1251 3.27632 1.25279e-17)
(22.4324 1.96181 -1.28986e-17)
(22.8271 0.869925 -1.03235e-17)
(23.2328 0.0449201 1.05065e-17)
(23.4633 -0.461367 0)
(23.2777 -0.623954 -1.48357e-19)
(22.4828 -0.492841 0)
(21.0235 -0.194284 -1.46057e-19)
(18.9934 0.130779 2.80786e-19)
(16.5617 0.397961 -3.60828e-19)
(13.8806 0.624058 -2.16753e-19)
(11.0555 0.902143 2.54592e-19)
(8.18602 1.27911 -1.47955e-19)
(5.43178 1.67296 2.90656e-19)
(3.00964 1.91386 -2.92662e-19)
(1.10163 1.88677 -4.14038e-18)
(-0.265693 1.60446 4.13664e-18)
(-1.17734 1.17719 0)
(-1.76352 0.710447 -2.22362e-19)
(-2.1326 0.270738 -4.85185e-19)
(-2.34568 -0.10488 -3.25098e-18)
(-2.43968 -0.410549 3.24336e-18)
(-2.43885 -0.649063 4.0921e-19)
(-2.36067 -0.824196 -5.97313e-18)
(-2.21869 -0.941475 6.67216e-18)
(-2.02187 -1.00667 3.51122e-19)
(-1.77562 -1.02526 3.32896e-19)
(-1.48236 -1.00287 -5.18577e-18)
(-1.14258 -0.945298 5.1025e-18)
(-0.757247 -0.859709 -2.83761e-19)
(-0.327722 -0.752703 -2.8661e-19)
(0.144854 -0.629806 0)
(0.657683 -0.496971 3.44002e-18)
(1.2067 -0.359947 -1.46641e-19)
(1.78638 -0.22404 -4.09784e-18)
(2.39004 -0.0942091 0)
(3.00979 0.0252372 7.72387e-19)
(3.63688 0.130577 -3.71028e-19)
(4.26189 0.218664 -2.62502e-18)
(4.87504 0.287058 2.85333e-18)
(5.46678 0.33404 2.49349e-18)
(6.02837 0.358616 -2.42645e-18)
(6.55249 0.360482 4.72055e-19)
(7.03377 0.339974 -1.67988e-18)
(7.46893 0.297721 1.22389e-18)
(7.85723 0.236358 -3.35023e-19)
(8.20094 0.153182 1.57344e-18)
(8.48364 0.0944911 -1.20273e-18)
(0.62542 0.018806 7.13944e-18)
(0.973227 -1.72274 -2.56194e-19)
(3.76249 0.544714 -1.02014e-19)
(3.17581 1.76699 -2.68673e-19)
(3.25795 4.67904 0)
(3.77582 6.87335 3.85382e-17)
(5.27009 7.48863 -8.16968e-17)
(6.89508 6.59497 4.32242e-17)
(7.47185 5.00596 -5.00525e-17)
(7.51274 3.36546 -2.96206e-18)
(8.0169 1.56434 5.44873e-17)
(9.45506 -0.58567 1.21063e-19)
(11.8852 -3.04538 1.29904e-19)
(15.1668 -5.70146 -6.77294e-17)
(19.0653 -8.39796 6.90692e-17)
(23.269 -10.9162 -2.00854e-19)
(27.4442 -13.0367 7.31632e-17)
(31.2477 -14.5444 -2.22597e-19)
(34.3498 -15.3003 -7.32421e-17)
(36.4552 -15.1879 -8.38149e-19)
(37.2061 -14.055 7.62151e-19)
(36.2136 -11.7391 6.83986e-19)
(33.2789 -8.2108 0)
(28.6501 -3.76303 -8.44169e-20)
(23.0118 1.02165 -4.80773e-17)
(17.2062 5.48297 9.09042e-17)
(11.9556 9.08974 -4.35417e-17)
(7.72737 11.511 3.29423e-17)
(4.74536 12.6169 -3.33538e-17)
(3.01039 12.4393 -2.42569e-17)
(2.3498 11.1716 4.33951e-17)
(2.52798 9.03435 -4.20795e-18)
(3.31071 6.24668 -1.59911e-17)
(4.43155 3.05684 0)
(5.53331 -0.222598 0)
(6.16566 -3.17895 -2.47257e-19)
(5.90179 -5.34273 0)
(4.54229 -6.39637 1.65936e-19)
(2.25354 -6.38577 2.18614e-18)
(-0.485009 -5.68596 -3.6246e-18)
(-3.09942 -4.79033 1.73706e-18)
(-5.17055 -4.06192 0)
(-6.55271 -3.60894 0)
(-7.3355 -3.35823 -3.24776e-19)
(-7.68834 -3.17656 1.92793e-19)
(-7.73853 -2.9685 1.62187e-19)
(-7.54982 -2.71628 0)
(-7.16145 -2.45133 0)
(-6.64772 -2.22519 -2.63471e-18)
(-6.06563 -2.05632 2.62146e-18)
(-5.45974 -1.94425 2.23098e-19)
(-4.86157 -1.87727 0)
(-4.28579 -1.84073 3.58578e-18)
(-3.73619 -1.82186 -3.13998e-18)
(-3.21104 -1.81054 5.82924e-18)
(-2.70555 -1.79909 -6.17254e-18)
(-2.21357 -1.78213 5.55375e-18)
(-1.72733 -1.75444 -1.15926e-17)
(-1.23954 -1.71196 1.11786e-17)
(-0.74491 -1.65427 -1.41875e-19)
(-0.239561 -1.58183 -5.21177e-18)
(0.280096 -1.49443 -4.83e-18)
(0.815427 -1.39286 5.029e-18)
(1.36527 -1.27975 0)
(1.92745 -1.15766 -3.60263e-18)
(2.49857 -1.02951 1.50654e-19)
(3.07385 -0.898584 4.71476e-18)
(3.64766 -0.76826 0)
(4.2138 -0.641912 -8.05811e-19)
(4.76587 -0.522837 -2.586e-18)
(5.29768 -0.414164 2.53043e-18)
(5.80365 -0.318743 0)
(6.27908 -0.239055 0)
(6.72041 -0.177114 2.67923e-19)
(7.12524 -0.134374 -2.44832e-19)
(7.49209 -0.111617 -1.31733e-18)
(7.82008 -0.108792 2.13088e-18)
(8.10866 -0.124551 0)
(8.3574 -0.157027 -3.33459e-19)
(8.57358 -0.178893 -1.215e-18)
(13.5473 -7.18309 7.33879e-17)
(27.9405 -13.0302 -1.082e-16)
(31.9537 -8.30199 5.47912e-17)
(32.9707 -0.689217 5.43612e-17)
(35.2202 6.38503 -5.51274e-17)
(37.0676 13.8098 0)
(37.7494 21.4859 1.10385e-16)
(37.111 29.0356 -1.12601e-16)
(35.4159 36.0854 1.06551e-16)
(33.1535 42.3084 -1.08732e-16)
(30.8193 47.5464 9.75563e-17)
(28.7566 51.7704 -1.89732e-16)
(27.1227 55.025 1.76669e-16)
(25.9181 57.3499 -1.62812e-16)
(25.0364 58.7869 1.48393e-16)
(24.2815 59.4149 -7.06175e-17)
(23.4352 59.3008 -5.59574e-17)
(22.2748 58.531 1.02397e-16)
(20.6139 57.2291 -4.82863e-17)
(18.3781 55.5104 8.33734e-19)
(15.5063 53.295 -8.4747e-19)
(12.1011 50.5523 -2.03468e-17)
(8.45145 47.4143 2.01151e-17)
(4.92037 44.0298 5.29341e-19)
(1.83401 40.473 0)
(-0.571867 36.7865 3.95647e-19)
(-2.2073 33.0476 0)
(-3.13023 29.3373 2.50297e-19)
(-3.47673 25.736 -1.37502e-18)
(-3.41779 22.3106 1.67139e-18)
(-3.10328 19.0626 3.15245e-18)
(-2.63608 15.9128 -3.41285e-18)
(-2.09722 12.7985 3.8889e-19)
(-1.5644 9.75022 2.23893e-19)
(-1.03129 6.80801 4.21264e-18)
(-0.405022 3.92919 -4.47042e-18)
(0.287046 1.13394 0)
(0.788453 -1.34661 -4.28734e-18)
(0.844932 -3.20404 4.30176e-18)
(0.443942 -4.29841 -7.5332e-20)
(-0.227135 -4.75612 3.59554e-19)
(-0.971886 -4.82322 0)
(-1.67493 -4.69827 0)
(-2.29376 -4.48907 0)
(-2.81445 -4.23901 3.04997e-19)
(-3.22403 -3.97237 -4.18849e-18)
(-3.50579 -3.70856 4.01846e-18)
(-3.65041 -3.46488 0)
(-3.66549 -3.25276 0)
(-3.56829 -3.07616 -3.75167e-18)
(-3.37958 -2.93397 3.4851e-18)
(-3.11878 -2.82162 -3.58442e-18)
(-2.80167 -2.73326 2.68573e-18)
(-2.43954 -2.66319 -4.35366e-19)
(-2.04046 -2.60539 2.85971e-18)
(-1.61035 -2.55447 -3.6337e-18)
(-1.15318 -2.5051 6.09126e-18)
(-0.672299 -2.45372 -5.64352e-18)
(-0.171133 -2.3977 0)
(0.348816 -2.33351 3.34977e-19)
(0.885378 -2.25853 5.10891e-18)
(1.43543 -2.17112 -4.62985e-19)
(1.99566 -2.07067 -9.67674e-18)
(2.56182 -1.95721 8.62517e-18)
(3.129 -1.8315 -3.76771e-18)
(3.69181 -1.69503 -3.88698e-18)
(4.24451 -1.54996 2.88025e-18)
(4.78122 -1.39904 4.27699e-19)
(5.29625 -1.24554 3.19309e-18)
(5.78432 -1.09314 -3.10736e-18)
(6.24085 -0.945705 6.96974e-19)
(6.66208 -0.807189 2.85653e-18)
(7.04526 -0.68137 -2.46817e-18)
(7.3886 -0.57166 0)
(7.69139 -0.480875 1.97254e-18)
(7.95386 -0.411013 -5.68693e-19)
(8.1773 -0.363036 -3.83009e-18)
(8.36397 -0.336771 1.60407e-18)
(8.51919 -0.329531 -1.38571e-18)
(8.64419 -0.32729 1.34564e-18)
(23.6502 -17.3506 -4.39146e-17)
(51.6035 -39.6543 0)
(65.8636 -49.6063 0)
(70.3535 -53.5216 -5.7264e-19)
(67.669 -50.4622 0)
(55.9956 -42.7613 0)
(38.9413 -33.1586 0)
(20.6714 -23.7899 -9.01287e-19)
(4.55805 -15.9719 0)
(-7.37449 -10.6237 8.12834e-19)
(-14.6845 -7.91058 -8.81359e-17)
(-18.1382 -7.27171 1.73632e-16)
(-19.0318 -7.83584 -8.44841e-17)
(-18.5543 -8.81715 0)
(-17.565 -9.66465 -2.39829e-20)
(-16.6419 -10.0332 5.61259e-19)
(-16.1686 -9.82786 0)
(-16.3819 -9.1683 -4.92176e-17)
(-17.5396 -7.84434 9.59032e-17)
(-20.021 -5.34356 -3.16806e-18)
(-23.8188 -2.02442 -4.23907e-17)
(-28.2694 1.16072 -1.25535e-19)
(-32.5 3.8288 0)
(-35.7091 5.93114 3.20574e-17)
(-37.5047 7.42269 -3.37479e-17)
(-37.8277 8.21905 2.60726e-17)
(-36.75 8.31729 -2.69529e-17)
(-34.3854 7.78355 -1.95679e-17)
(-30.9932 6.78685 1.97065e-17)
(-27.1122 5.72498 0)
(-23.3703 5.03416 1.22397e-17)
(-20.0913 4.73066 -1.23993e-17)
(-17.161 4.42165 -2.30337e-19)
(-14.3679 3.81798 9.88742e-18)
(-11.7303 2.96534 -1.02099e-17)
(-9.4344 2.02827 -1.94526e-19)
(-7.63217 1.10959 3.80172e-19)
(-6.35622 0.25726 8.52074e-18)
(-5.53416 -0.499537 -8.56578e-18)
(-5.03944 -1.1433 -7.18802e-18)
(-4.74598 -1.67125 1.42759e-19)
(-4.5628 -2.0907 7.50158e-18)
(-4.43242 -2.41456 0)
(-4.32034 -2.65733 -4.08529e-19)
(-4.20333 -2.83324 4.81411e-18)
(-4.06523 -2.95579 -1.10443e-17)
(-3.89532 -3.03751 1.012e-17)
(-3.68778 -3.08958 -4.60745e-18)
(-3.44142 -3.12073 0)
(-3.15705 -3.1381 -2.70688e-19)
(-2.83596 -3.14634 4.01219e-18)
(-2.47923 -3.14796 -3.99461e-18)
(-2.08931 -3.14636 -2.85231e-21)
(-1.66894 -3.1427 3.48254e-18)
(-1.21903 -3.13555 -2.61596e-18)
(-0.740906 -3.12348 3.15973e-18)
(-0.236365 -3.10476 3.26858e-18)
(0.292424 -3.07771 -6.30995e-18)
(0.842568 -3.03985 5.46055e-18)
(1.41079 -2.98861 -5.71258e-18)
(1.99318 -2.92165 0)
(2.58492 -2.8369 3.03348e-19)
(3.18038 -2.73288 4.45925e-18)
(3.77311 -2.60878 -3.82816e-18)
(4.356 -2.46475 -9.97518e-19)
(4.92156 -2.30195 0)
(5.46231 -2.12263 -3.47752e-18)
(5.97112 -1.93009 2.9983e-18)
(6.44168 -1.72857 3.99539e-19)
(6.86883 -1.52305 3.50645e-19)
(7.24888 -1.31899 -6.71774e-19)
(7.57983 -1.12205 -1.70048e-20)
(7.86153 -0.937812 2.54714e-18)
(8.09569 -0.771462 -2.20371e-18)
(8.28591 -0.627516 2.39458e-19)
(8.43747 -0.509515 0)
(8.55699 -0.419725 2.05243e-18)
(8.6519 -0.35876 -1.58049e-18)
(8.72966 -0.324972 0)
(8.79809 -0.310236 1.2713e-18)
(0.687232 -0.42802 8.26792e-19)
(16.1192 -20.4852 7.75736e-17)
(50.1885 -44.2188 -7.21219e-17)
(62.7965 -63.5001 1.43244e-16)
(45.9083 -55.8626 -7.05729e-17)
(14.7947 -39.1677 -4.24346e-21)
(-8.82193 -28.5648 -6.05874e-17)
(-19.0576 -25.8262 6.29895e-17)
(-21.1037 -26.5994 6.94038e-22)
(-20.0312 -28.5608 -8.2328e-19)
(-18.1605 -30.7299 5.14867e-17)
(-16.2419 -32.6864 4.65243e-17)
(-14.3372 -34.4368 -1.0207e-16)
(-12.2222 -35.8964 8.8902e-17)
(-9.92782 -37.0457 -1.7282e-16)
(-8.0269 -37.9256 8.35038e-17)
(-6.98287 -37.0352 0)
(-7.12302 -32.0315 0)
(-9.1891 -23.9271 -6.25535e-17)
(-12.9197 -16.4953 3.2446e-18)
(-16.2484 -11.126 5.92684e-17)
(-17.933 -7.43989 -5.0568e-17)
(-18.7374 -5.40357 9.81033e-17)
(-19.3415 -4.3943 -4.68122e-17)
(-19.5269 -3.67704 -3.9599e-17)
(-18.9683 -3.23992 3.30162e-18)
(-17.6432 -3.30643 3.8457e-17)
(-15.6197 -3.81273 -3.85881e-19)
(-13.2142 -4.51389 3.5602e-19)
(-10.9689 -5.13774 -6.54884e-19)
(-9.27374 -5.4364 0)
(-8.1673 -5.33906 -2.33915e-17)
(-7.42176 -4.98635 4.54714e-17)
(-6.81797 -4.57493 -2.19945e-17)
(-6.27501 -4.22602 0)
(-5.79445 -3.97575 1.64986e-17)
(-5.39294 -3.81802 -1.65433e-17)
(-5.0723 -3.73379 0)
(-4.81859 -3.69812 0)
(-4.61236 -3.68693 9.98952e-18)
(-4.43485 -3.68407 -1.03039e-17)
(-4.27029 -3.68055 -2.07644e-20)
(-4.1056 -3.67197 0)
(-3.93075 -3.65701 -6.38511e-18)
(-3.73835 -3.6364 9.6748e-19)
(-3.52361 -3.61266 6.54177e-18)
(-3.28287 -3.58762 3.08823e-19)
(-3.01172 -3.56055 -5.93574e-19)
(-2.70819 -3.53397 0)
(-2.37378 -3.51312 4.48869e-18)
(-2.00978 -3.50083 -8.11555e-18)
(-1.61681 -3.49861 4.13603e-18)
(-1.19331 -3.50357 4.55772e-19)
(-0.738821 -3.51265 3.7122e-18)
(-0.254422 -3.52511 -5.59955e-19)
(0.259422 -3.53797 -5.98806e-18)
(0.801954 -3.54744 2.20069e-18)
(1.37153 -3.54928 0)
(1.96541 -3.5389 0)
(2.57946 -3.51163 -2.74231e-19)
(3.20797 -3.46297 -2.60529e-19)
(3.84357 -3.38897 0)
(4.47728 -3.28657 -3.76448e-18)
(5.09892 -3.15398 3.70166e-18)
(5.69759 -2.99096 4.09431e-18)
(6.26241 -2.79902 2.73245e-19)
(6.7833 -2.58137 -2.90539e-18)
(7.25174 -2.34288 3.0111e-18)
(7.66139 -2.0897 -2.9398e-18)
(8.0085 -1.82889 -3.60999e-20)
(8.29211 -1.56801 -2.12487e-18)
(8.51402 -1.31464 2.08414e-18)
(8.67861 -1.07604 1.83256e-18)
(8.79244 -0.858862 -2.2915e-18)
(8.86384 -0.668865 1.57265e-18)
(8.90232 -0.510672 -1.7591e-18)
(8.91779 -0.387435 1.55183e-18)
(8.91973 -0.300384 -2.94103e-18)
(8.91567 -0.249445 6.02305e-20)
(8.91938 -0.221617 5.77269e-20)
(-6.53576 6.69029 4.78574e-17)
(-3.34123 7.82687 -2.57851e-20)
(14.1278 -2.62893 -6.71897e-17)
(30.5635 -13.5282 1.34327e-16)
(36.6336 -19.7242 -6.70126e-17)
(35.9528 -19.9867 6.17003e-17)
(32.6245 -17.1873 -2.61597e-18)
(29.4651 -13.8402 -5.988e-17)
(27.4864 -11.1135 5.50448e-17)
(26.5862 -9.36986 -5.46328e-17)
(26.2061 -8.52197 4.69168e-17)
(26.0352 -8.42615 -4.71766e-17)
(26.2171 -9.16768 3.70897e-17)
(27.2338 -11.0817 -3.79281e-17)
(29.8276 -14.6385 -1.02282e-19)
(35.0366 -20.2997 -1.2618e-19)
(43.8532 -28.1674 2.46991e-17)
(54.6103 -36.9952 -2.52099e-17)
(59.1432 -42.4187 4.21194e-19)
(47.9332 -38.0868 5.83848e-19)
(23.2221 -23.3508 -6.85896e-18)
(-1.86846 -6.58654 7.9145e-18)
(-17.8941 4.14659 0)
(-24.9772 8.52536 -2.70362e-19)
(-26.9957 9.69815 0)
(-26.3764 9.33746 0)
(-24.0921 7.90853 -1.39102e-19)
(-20.6097 5.73857 1.48685e-17)
(-16.4143 3.19216 -1.49043e-17)
(-12.0725 0.638907 -1.09607e-17)
(-8.14982 -1.58261 1.17271e-17)
(-5.06502 -3.22481 -5.48552e-19)
(-2.98214 -4.20868 5.05676e-19)
(-1.82158 -4.62421 0)
(-1.34379 -4.63579 1.0389e-19)
(-1.28457 -4.4137 0)
(-1.43695 -4.097 0)
(-1.66754 -3.76929 1.44539e-19)
(-1.90221 -3.47552 0)
(-2.10455 -3.23763 0)
(-2.25742 -3.06128 -6.30041e-18)
(-2.35358 -2.94221 5.85159e-18)
(-2.3916 -2.87217 0)
(-2.37299 -2.84154 0)
(-2.30057 -2.84096 0)
(-2.17739 -2.86175 2.30981e-19)
(-2.00743 -2.89809 -3.08302e-19)
(-1.79601 -2.94904 -3.72778e-18)
(-1.54536 -3.01263 3.99714e-18)
(-1.25525 -3.08373 -3.50573e-18)
(-0.926433 -3.16045 3.8897e-18)
(-0.559871 -3.2425 -3.80697e-19)
(-0.155872 -3.32943 -1.53771e-19)
(0.286338 -3.42082 0)
(0.768294 -3.51418 0)
(1.29093 -3.60637 2.15014e-18)
(1.85429 -3.69305 2.20401e-19)
(2.45678 -3.76862 -2.24814e-18)
(3.09451 -3.82658 2.05077e-18)
(3.7607 -3.85995 -1.95703e-18)
(4.44544 -3.86192 -3.45733e-18)
(5.13587 -3.82651 1.09654e-19)
(5.81677 -3.74924 6.67311e-18)
(6.47159 -3.62777 -3.3144e-18)
(7.08375 -3.46225 -1.70726e-19)
(7.63809 -3.25555 -4.01397e-19)
(8.12216 -3.01306 -2.75238e-18)
(8.52726 -2.74225 5.28867e-18)
(8.84907 -2.45205 -2.53754e-18)
(9.08765 -2.15201 -3.14479e-19)
(9.24717 -1.85164 -2.15308e-18)
(9.33512 -1.55979 2.33151e-18)
(9.36155 -1.28433 0)
(9.33829 -1.03207 2.37092e-19)
(9.27826 -0.808792 0)
(9.19491 -0.619217 -1.52524e-18)
(9.10149 -0.46685 5.62898e-20)
(9.01015 -0.353622 1.3796e-18)
(8.93069 -0.27989 -9.4246e-19)
(8.87774 -0.230554 -2.39476e-19)
(1.63153 -0.296515 -2.24437e-17)
(-6.06231 2.60758 3.37612e-17)
(-20.2469 9.50403 9.17738e-20)
(-30.0941 11.8918 3.65145e-17)
(-32.7107 10.8417 -3.7275e-17)
(-33.7387 9.19077 3.85115e-17)
(-36.462 8.5873 -7.90135e-17)
(-41.3671 8.82808 3.90567e-17)
(-46.731 8.73036 -4.10858e-17)
(-50.9263 7.85227 4.0408e-17)
(-53.7154 6.65563 0)
(-55.5133 5.63249 -5.3041e-19)
(-56.5257 4.89393 -1.73018e-19)
(-56.4196 4.24676 0)
(-54.4178 3.22282 0)
(-49.5002 1.12768 0)
(-40.7454 -2.81437 0)
(-28.1126 -9.00137 2.58909e-19)
(-13.8868 -16.6243 0)
(-2.15973 -23.0422 -3.6079e-17)
(4.55138 -25.4263 3.56202e-17)
(6.88604 -23.3013 5.77262e-17)
(6.64584 -18.3163 -5.90903e-17)
(5.14909 -12.3211 -4.59977e-17)
(3.361 -6.52782 4.74485e-17)
(2.02012 -1.61167 -3.58771e-17)
(1.44248 2.16596 3.65177e-17)
(1.57852 4.81014 -2.6434e-17)
(2.13292 6.50389 4.72894e-18)
(2.67046 7.49139 2.25823e-17)
(2.77835 7.98272 0)
(2.24073 8.08339 4.11251e-19)
(1.16182 7.80227 3.29174e-19)
(-0.115681 7.16626 0)
(-1.25682 6.27114 -1.02827e-19)
(-2.10355 5.23403 0)
(-2.66235 4.14749 0)
(-2.99811 3.08955 -2.03395e-18)
(-3.16837 2.11979 4.24121e-18)
(-3.21334 1.26899 -2.31459e-18)
(-3.16075 0.545698 -2.68578e-18)
(-3.03097 -0.0560025 2.69538e-18)
(-2.83978 -0.549323 2.61114e-20)
(-2.59996 -0.950158 0)
(-2.32218 -1.2745 -2.75242e-18)
(-2.01544 -1.5375 2.44024e-18)
(-1.68719 -1.75334 0)
(-1.34352 -1.93587 0)
(-0.989071 -2.09745 2.23531e-18)
(-0.624687 -2.2487 -2.41157e-18)
(-0.247603 -2.39909 -2.38721e-18)
(0.147933 -2.55572 2.27021e-18)
(0.569783 -2.72395 2.06998e-18)
(1.02675 -2.90619 -3.71852e-18)
(1.52802 -3.10109 1.80118e-18)
(2.08117 -3.30382 4.1123e-19)
(2.69049 -3.50654 0)
(3.35553 -3.69906 -1.41355e-19)
(4.07019 -3.86981 1.30331e-18)
(4.82241 -4.0069 -2.59345e-18)
(5.5946 -4.09929 1.36419e-18)
(6.36485 -4.13785 0)
(7.10863 -4.11637 1.85893e-19)
(7.80108 -4.03231 0)
(8.41932 -3.88714 1.70711e-19)
(8.94477 -3.68635 1.17451e-19)
(9.36492 -3.43885 2.28742e-19)
(9.67432 -3.156 2.0661e-18)
(9.87466 -2.85037 -1.80325e-18)
(9.97396 -2.53439 2.05795e-19)
(9.98511 -2.21924 1.77329e-18)
(9.92402 -1.9141 -2.15011e-18)
(9.80798 -1.62602 1.58424e-18)
(9.6544 -1.36021 -1.54041e-18)
(9.48011 -1.12063 1.57387e-18)
(9.30093 -0.910604 -1.21531e-18)
(9.13128 -0.732965 -1.25813e-18)
(8.98331 -0.58996 1.21953e-18)
(8.8662 -0.481828 -3.00169e-19)
(8.78897 -0.399297 2.83544e-19)
(3.55599 -1.31069 -7.35047e-18)
(1.89873 -1.42034 -1.14085e-17)
(-3.13608 3.31915 2.31508e-17)
(-0.225847 3.75618 -2.44574e-17)
(9.18489 3.12362 1.27188e-17)
(13.4838 6.07533 -9.70293e-20)
(8.28034 14.5967 -1.64093e-17)
(-2.41875 26.1039 3.53194e-17)
(-10.9275 35.8846 1.91897e-18)
(-13.0975 41.3011 -2.10142e-17)
(-10.1413 42.8622 2.76767e-19)
(-5.08121 42.1728 2.26817e-17)
(0.19789 40.2434 -2.31312e-17)
(5.24153 37.3971 2.02846e-17)
(10.1364 33.6985 -2.06699e-17)
(14.8465 29.2172 -1.50752e-17)
(19.0304 24.0798 1.53458e-17)
(22.1599 18.4928 -2.63502e-19)
(23.4914 12.7528 0)
(22.4187 7.41798 1.03453e-18)
(18.8488 3.09544 -1.01065e-18)
(13.257 -0.0134919 3.47304e-21)
(6.51926 -2.07262 6.56194e-18)
(-0.457671 -3.38774 -6.71133e-18)
(-6.9028 -4.24805 -4.08808e-19)
(-12.2418 -4.91246 0)
(-16.1268 -5.5852 -8.40779e-20)
(-18.464 -6.36137 -4.60959e-19)
(-19.417 -7.19873 -1.7289e-17)
(-19.3349 -7.92187 1.75901e-17)
(-18.6128 -8.32697 1.53329e-17)
(-17.564 -8.29587 -1.58093e-17)
(-16.3477 -7.83939 -1.4082e-19)
(-14.9959 -7.06065 -1.11506e-17)
(-13.5152 -6.11218 2.04536e-17)
(-11.9387 -5.1365 -9.46332e-18)
(-10.3352 -4.22653 -6.27305e-18)
(-8.79337 -3.43964 6.44795e-18)
(-7.37856 -2.79215 6.75263e-20)
(-6.1199 -2.27646 -8.8089e-20)
(-5.01897 -1.87717 -2.60712e-21)
(-4.06219 -1.57786 -1.40399e-18)
(-3.23086 -1.36262 5.37019e-19)
(-2.50659 -1.21582 8.43713e-19)
(-1.87412 -1.12303 3.3107e-20)
(-1.32179 -1.07202 4.4965e-20)
(-0.840566 -1.05454 0)
(-0.421503 -1.06616 -5.7353e-19)
(-0.0542959 -1.10737 6.7233e-19)
(0.274643 -1.18383 -6.60285e-19)
(0.583488 -1.30299 4.85994e-20)
(0.89482 -1.47142 -2.16482e-20)
(1.23351 -1.69234 -6.31752e-21)
(1.62443 -1.96354 3.29668e-21)
(2.0893 -2.27682 7.90799e-19)
(2.64337 -2.6187 -1.29414e-19)
(3.29274 -2.97197 0)
(4.03294 -3.3175 8.8119e-19)
(4.84896 -3.63581 -5.92976e-19)
(5.71658 -3.90861 0)
(6.60441 -4.12 7.87749e-19)
(7.47673 -4.25766 -6.67041e-19)
(8.29658 -4.31394 0)
(9.02943 -4.28648 6.22522e-20)
(9.6462 -4.1786 0)
(10.1269 -3.99938 1.38194e-18)
(10.4622 -3.76217 -3.11113e-18)
(10.6542 -3.48313 1.45186e-18)
(10.7153 -3.17924 -2.14119e-19)
(10.6654 -2.86624 -2.05852e-19)
(10.5291 -2.55702 1.3518e-18)
(10.332 -2.26065 -1.12821e-18)
(10.0983 -1.98238 1.3695e-19)
(9.84852 -1.72453 1.33788e-19)
(9.59983 -1.48787 -2.93073e-19)
(9.36613 -1.27297 -1.54788e-19)
(9.15859 -1.08109 -1.19902e-18)
(8.98573 -0.914089 9.76847e-21)
(8.85344 -0.772409 1.11621e-18)
(8.76463 -0.657392 2.24766e-19)
(-3.35568 0.632408 0)
(-1.72538 -3.67454 1.90633e-19)
(10.0199 -8.49717 2.67833e-20)
(26.9891 -19.5513 3.38139e-17)
(47.3097 -30.1033 -6.60505e-17)
(65.5344 -40.5468 6.09262e-17)
(76.5834 -47.8469 -2.9289e-17)
(76.5076 -49.167 0)
(65.6686 -44.3619 -3.07865e-19)
(49.049 -35.951 1.40054e-17)
(31.927 -26.9019 -1.45713e-17)
(16.9688 -18.7092 -7.73602e-18)
(4.67115 -11.5923 1.349e-17)
(-5.27828 -5.41914 -1.66945e-18)
(-13.1704 -0.194145 -1.28217e-18)
(-19.0693 3.92886 -2.09329e-18)
(-22.9915 6.80018 -2.44072e-19)
(-25.1648 8.41246 1.71039e-18)
(-26.1037 8.95291 -1.51419e-18)
(-26.4509 8.74964 -3.92591e-20)
(-26.709 8.17927 -2.03348e-19)
(-27.0485 7.49792 -3.8204e-19)
(-27.3393 6.81883 3.84343e-18)
(-27.2781 6.12479 -1.38018e-19)
(-26.5367 5.34692 -3.87176e-18)
(-24.8812 4.40882 -2.45966e-19)
(-22.2431 3.26212 3.91501e-18)
(-18.7342 1.90965 -6.76678e-18)
(-14.6322 0.407283 5.78253e-18)
(-10.3391 -1.13117 -2.57766e-18)
(-6.29785 -2.54722 0)
(-2.89369 -3.6737 1.66822e-18)
(-0.376024 -4.37792 -2.71553e-18)
(1.19585 -4.6025 9.308e-19)
(1.95156 -4.3888 8.25274e-19)
(2.13628 -3.8561 -8.92333e-19)
(2.00857 -3.14481 -1.36425e-19)
(1.76656 -2.37114 0)
(1.52702 -1.61077 -2.74377e-20)
(1.34011 -0.90851 -2.05109e-18)
(1.21647 -0.288889 2.22518e-18)
(1.15277 0.238309 -7.62534e-20)
(1.14164 0.672286 7.07196e-20)
(1.17464 1.01672 0)
(1.24175 1.27681 0)
(1.3287 1.45711 9.92166e-19)
(1.41619 1.5593 -1.15416e-18)
(1.48318 1.58211 -6.98895e-21)
(1.51438 1.52255 -4.78008e-19)
(1.50832 1.37671 8.51444e-19)
(1.48419 1.14376 -3.13764e-19)
(1.482 0.824338 0)
(1.55443 0.421393 1.24317e-19)
(1.75284 -0.0567775 -1.04732e-19)
(2.11517 -0.595022 0)
(2.65855 -1.17171 -7.22832e-21)
(3.37816 -1.76099 -1.57861e-20)
(4.25 -2.33535 -3.04062e-20)
(5.23593 -2.86818 6.05015e-20)
(6.2888 -3.33546 0)
(7.35628 -3.71698 -3.15052e-20)
(8.38449 -3.99773 -5.55766e-20)
(9.32146 -4.16909 2.32213e-19)
(10.1224 -4.22874 -9.82403e-21)
(10.7535 -4.18267 -2.74665e-19)
(11.1951 -4.04498 0)
(11.4453 -3.83433 -6.98913e-20)
(11.5179 -3.57285 0)
(11.4401 -3.28308 0)
(11.2476 -2.98508 9.14372e-19)
(10.9785 -2.69432 -8.91377e-19)
(10.6685 -2.42045 -8.44265e-19)
(10.347 -2.16741 -1.6205e-19)
(10.0354 -1.93481 7.7725e-19)
(9.74778 -1.72 1.05212e-18)
(9.49264 -1.52028 -8.94816e-19)
(9.27505 -1.3344 1.23087e-19)
(9.0979 -1.16273 8.75462e-19)
(8.96249 -1.00612 -1.91715e-18)
(8.86775 -0.874701 6.09791e-19)
(2.23144 -0.115728 4.86808e-17)
(5.55003 5.09408 -3.58222e-17)
(5.41578 6.14521 -2.68938e-17)
(4.82834 12.9001 2.75698e-17)
(0.900686 16.3748 -6.34997e-20)
(-3.17109 19.5588 -8.2058e-20)
(-6.73982 22.0726 0)
(-9.98855 23.9927 -7.21604e-18)
(-13.3165 25.4779 7.47721e-18)
(-16.6593 26.7688 0)
(-19.629 27.8512 2.2569e-17)
(-21.9595 28.5467 -4.89105e-17)
(-23.6311 28.7615 -2.08993e-18)
(-24.7403 28.526 5.81815e-17)
(-25.3779 27.9202 -3.02379e-17)
(-25.5961 27.0204 -2.54213e-19)
(-25.4288 25.8817 1.7148e-19)
(-24.9212 24.5524 0)
(-24.135 23.0856 -2.65263e-17)
(-23.1212 21.6116 2.67135e-17)
(-21.8955 20.2164 1.87843e-19)
(-20.446 18.9616 -1.93041e-17)
(-18.7472 17.9115 1.99612e-17)
(-16.772 17.083 -1.4679e-17)
(-14.5171 16.4698 1.49007e-17)
(-12.02 16.0384 2.45226e-19)
(-9.35633 15.7408 -8.71549e-18)
(-6.62315 15.5254 1.97219e-18)
(-3.92961 15.3448 1.17169e-17)
(-1.36638 15.1625 -1.69646e-18)
(0.987163 14.9636 -3.60328e-18)
(3.05681 14.7472 -1.26583e-18)
(4.79259 14.523 1.18355e-18)
(6.16892 14.2982 0)
(7.1821 14.093 1.91895e-20)
(7.85144 13.9438 4.05722e-20)
(8.20701 13.872 0)
(8.28394 13.8663 2.51195e-18)
(8.13046 13.8887 -2.5998e-18)
(7.81423 13.8938 -7.78994e-20)
(7.40565 13.8283 0)
(6.95544 13.63 7.51009e-20)
(6.49332 13.2609 2.46008e-18)
(6.01924 12.7069 -2.44558e-18)
(5.50153 11.9775 0)
(4.89595 11.1089 -1.3909e-18)
(4.17219 10.1502 1.60668e-18)
(3.33873 9.14616 0)
(2.4509 8.12558 0)
(1.59853 7.09922 -3.35387e-20)
(0.882672 6.06722 -2.61981e-20)
(0.394854 5.02434 0)
(0.203923 3.96948 4.55052e-19)
(0.345473 2.91151 -4.69945e-19)
(0.818226 1.86745 -5.08128e-19)
(1.5893 0.856727 2.67955e-20)
(2.60522 -0.0999406 1.06667e-18)
(3.80508 -0.981663 -1.07652e-18)
(5.12312 -1.76963 -1.7319e-20)
(6.49111 -2.44712 4.09495e-19)
(7.83972 -3.00022 -2.10609e-20)
(9.1008 -3.41832 0)
(10.2111 -3.69641 0)
(11.1175 -3.83704 1.77969e-19)
(11.7846 -3.85034 -2.16824e-19)
(12.198 -3.75458 0)
(12.3671 -3.57426 1.57141e-20)
(12.3226 -3.33685 0)
(12.1107 -3.06939 -1.87544e-19)
(11.7848 -2.79526 1.82996e-19)
(11.3979 -2.53181 -3.96867e-20)
(10.9953 -2.28927 -6.85541e-19)
(10.6101 -2.0709 5.76925e-19)
(10.2621 -1.87455 -6.5494e-20)
(9.95993 -1.6951 0)
(9.70448 -1.52716 0)
(9.49288 -1.367 0)
(9.32127 -1.21306 8.04995e-19)
(9.18593 -1.06656 1.21102e-19)
(9.08331 -0.940549 -1.43728e-18)
(-5.01466 -1.0183 -3.48697e-17)
(-8.29202 -6.78847 -4.90689e-17)
(-1.77429 -15.5562 5.01608e-17)
(8.23215 -29.257 -4.41056e-17)
(18.9041 -41.5319 4.50136e-17)
(29.1336 -53.5632 -8.97915e-20)
(37.0192 -63.8141 -1.03684e-19)
(40.3989 -71.0637 0)
(38.6145 -75.1389 -9.39235e-20)
(32.9611 -76.5804 0)
(25.4989 -76.1113 -1.65026e-19)
(17.9326 -74.2479 -8.09803e-18)
(11.2927 -71.3494 8.08158e-18)
(6.03572 -67.6935 1.51124e-17)
(2.26938 -63.4674 -1.50417e-17)
(-0.0772786 -58.8056 1.88418e-17)
(-1.15545 -53.8115 -1.97853e-17)
(-1.15153 -48.574 0)
(-0.270135 -43.2011 0)
(1.24837 -37.7406 0)
(3.18178 -32.2864 -2.00128e-17)
(5.3565 -26.9064 3.98052e-17)
(7.62599 -21.6328 -1.38645e-18)
(9.87715 -16.4897 -3.57029e-17)
(12.0286 -11.4967 1.76413e-17)
(14.0275 -6.67765 0)
(15.8343 -2.07266 2.45122e-19)
(17.4107 2.27376 0)
(18.7087 6.32273 -1.02388e-17)
(19.6857 10.0214 1.0178e-17)
(20.3087 13.3229 -7.91203e-20)
(20.5488 16.1994 0)
(20.3883 18.6259 6.4973e-18)
(19.8253 20.5816 -1.23448e-17)
(18.8734 22.0601 5.92956e-18)
(17.5685 23.0671 -4.53198e-18)
(15.9699 23.6306 8.54471e-18)
(14.1381 23.7886 -4.00659e-18)
(12.1106 23.5666 0)
(9.91341 23.0121 0)
(7.58432 22.2136 0)
(5.17622 21.249 1.75497e-18)
(2.76352 20.1442 -4.73716e-18)
(0.458948 18.8959 2.89318e-18)
(-1.59749 17.4979 0)
(-3.27745 15.9552 -1.67709e-18)
(-4.50624 14.2998 1.62193e-18)
(-5.28196 12.5912 1.2334e-18)
(-5.65782 10.8992 -2.37554e-19)
(-5.70146 9.28267 -4.30107e-20)
(-5.46039 7.7755 -6.96105e-21)
(-4.95261 6.38617 -1.07263e-18)
(-4.17935 5.10656 0)
(-3.1446 3.92279 0)
(-1.86628 2.82269 -1.08785e-18)
(-0.378025 1.80159 1.23255e-18)
(1.27246 0.855965 0)
(3.02821 -0.012775 0)
(4.82935 -0.792194 9.77453e-20)
(6.60977 -1.46975 1.02859e-19)
(8.29833 -2.03361 0)
(9.82263 -2.47334 0)
(11.1155 -2.78254 -1.32015e-19)
(12.1226 -2.96131 -1.10722e-19)
(12.8115 -3.01829 5.25486e-19)
(13.1783 -2.97063 -8.23857e-19)
(13.2492 -2.84226 9.64032e-20)
(13.0763 -2.66028 3.52498e-19)
(12.7272 -2.45079 -1.82822e-19)
(12.2741 -2.23562 1.46464e-21)
(11.7827 -2.03047 -2.20868e-20)
(11.3045 -1.84427 9.37678e-20)
(10.8734 -1.67966 -3.7162e-19)
(10.505 -1.5343 -4.75074e-20)
(10.2008 -1.403 9.13022e-19)
(9.95357 -1.28003 -5.27859e-19)
(9.75255 -1.16091 0)
(9.58776 -1.04325 -1.43507e-19)
(9.45126 -0.928413 0)
(9.33759 -0.82776 6.25668e-19)
(-19.8544 7.76387 0)
(-47.8239 23.9729 8.98722e-20)
(-61.6206 28.9101 -8.31927e-20)
(-64.2832 34.6204 -6.53581e-17)
(-63.97 34.792 1.28622e-16)
(-61.8089 33.9017 -6.31048e-17)
(-58.7055 31.7416 1.04739e-19)
(-54.1908 28.3161 0)
(-47.7062 23.6591 0)
(-39.4001 17.9628 0)
(-30.0704 11.6783 1.66982e-19)
(-20.6676 5.36916 1.56647e-19)
(-11.8941 -0.428425 0)
(-4.16066 -5.2335 -8.36749e-21)
(2.34578 -8.69195 -3.96807e-19)
(7.55814 -10.671 2.42765e-17)
(11.4629 -11.2489 -2.40033e-17)
(14.0897 -10.6555 6.61318e-20)
(15.5342 -9.2167 0)
(15.9779 -7.30791 -5.82519e-20)
(15.7059 -5.25546 -2.4951e-19)
(15.0956 -3.29356 7.86124e-18)
(14.5481 -1.59683 -1.95368e-18)
(14.3865 -0.299613 -5.91906e-18)
(14.7387 0.543928 -3.18444e-19)
(15.5073 0.989408 -1.66523e-20)