/*--------------------------------*- C++ -*----------------------------------*\
| =========                 |                                                 |
| \\      /  F ield         | OpenFOAM: The Open Source CFD Toolbox           |
|  \\    /   O peration     | Version:  2012                                  |
|   \\  /    A nd           | Website:  www.openfoam.com                      |
|    \\/     M anipulation  |                                                 |
\*---------------------------------------------------------------------------*/
FoamFile
{
    version     2.0;
    format      ascii;
    class       volScalarField;
    location    "0.17";
    object      p;
}
// * * * * * * * * * * * * * * * * * * * * * * * * * * * * * * * * * * * * * //

dimensions      [0 2 -2 0 0 0 0];


internalField   nonuniform List<scalar> 
42400
(
-8893.4
-8085.32
-7056.88
-6084.72
-5186.48
-4434.1
-3790.74
-3239.97
-2765.17
-2336.38
-1915.51
-1464.76
-960.441
-406.093
165.308
704.268
1165.23
1520.9
1764.65
1904.47
1955.83
1936.61
1864.5
1755.25
1621.59
1472.87
1316.02
1155.91
996.848
842.624
696.883
563.047
443.958
341.487
255.645
186.47
133.454
95.2566
69.1473
52.0743
41.2737
34.3384
29.4921
25.5882
21.8989
18.0754
14.0387
9.8487
5.66656
1.51687
-2.56365
-6.47982
-10.2998
-13.9936
-17.4929
-20.8381
-23.9673
-26.8199
-29.3456
-31.503
-33.2628
-34.6103
-35.5482
-36.0988
-36.3049
-36.2273
-35.941
-35.5272
-35.064
-34.6169
-34.2304
-33.9246
-33.6965
-33.5255
-33.3818
-33.2349
-33.0602
-32.8419
-32.5726
-32.3497
5313.29
5164.68
4965.47
4701.32
4326.3
3916.57
3516.98
3152.22
2832.26
2559.44
2336.27
2164.89
2043.44
1963.45
1912.14
1876.37
1844.35
1806.21
1754.42
1685.52
1600.6
1503.63
1399.4
1292.08
1184.7
1079.11
976.292
876.537
779.783
685.924
595.05
507.686
424.887
348.257
280.199
221.999
173.677
134.284
102.836
78.2175
59.071
44.2021
32.7149
23.8679
16.9843
11.5644
7.31519
3.90323
0.990531
-1.78397
-4.55187
-7.45943
-10.4512
-13.5172
-16.6192
-19.6999
-22.6931
-25.5322
-28.1571
-30.519
-32.5828
-34.3281
-35.7499
-36.8582
-37.677
-38.2421
-38.5986
-38.7977
-38.8922
-38.9303
-38.9484
-38.9633
-38.9703
-38.9485
-38.8707
-38.7139
-38.4649
-38.1213
-37.6988
-37.301
10245.6
10162.1
10082.3
9961.72
9743.95
9431.89
9033.3
8556.9
7996.44
7334.43
6558.5
5678.39
4729.98
3766.85
2844.19
1999.75
1254.09
613.689
79.8156
-349.603
-680.621
-923.071
-1088.89
-1189.43
-1233.79
-1229.29
-1182.79
-1101.55
-993.629
-867.879
-733.596
-599.882
-474.6
-363.304
-268.791
-191.916
-131.197
-84.4672
-49.1804
-23.0754
-4.16263
9.09107
17.7876
22.8217
25.0423
25.1087
23.2329
19.9028
15.6439
10.8975
5.8752
0.74275
-4.35955
-9.32613
-14.0787
-18.5593
-22.7256
-26.5477
-30.0057
-33.0892
-35.796
-38.1316
-40.1081
-41.7437
-43.0619
-44.0909
-44.8636
-45.4167
-45.7892
-46.0191
-46.1374
-46.162
-46.0956
-45.9291
-45.6493
-45.2472
-44.7211
-44.0764
-43.3342
-42.6086
-5505.3
-5594.15
-5744.82
-5943.01
-6208.79
-6535.82
-6914.08
-7298.09
-7622.42
-7826.23
-7862.69
-7705.19
-7351.43
-6833.53
-6216.4
-5572.65
-4949.12
-4356.23
-3785.71
-3233.31
-2707.17
-2223.4
-1797.22
-1435.82
-1137.66
-896.06
-702.537
-548.634
-426.715
-330.284
-252.997
-189.361
-135.194
-87.6127
-45.1728
-7.26451
26.4785
55.1123
77.0749
91.328
97.7423
97.1221
90.9604
81.0452
69.0674
56.3812
44.052
32.5496
21.958
12.3296
3.62978
-4.22254
-11.3118
-17.7106
-23.4774
-28.658
-33.2888
-37.4005
-41.021
-44.1778
-46.8996
-49.2166
-51.1592
-52.7557
-54.0302
-55.0023
-55.6897
-56.1123
-56.2958
-56.2708
-56.0681
-55.7125
-55.2187
-54.5929
-53.8376
-52.9559
-51.9544
-50.8428
-49.6491
-48.5003
-13853.9
-13365.1
-12739.8
-11998.8
-11116
-10181.3
-9221.32
-8203.07
-7071.32
-5796.51
-4396.66
-2952.63
-1612.27
-535.649
205.748
669.265
963.064
1155.84
1267.99
1306.22
1283.58
1217.15
1123.32
1014.49
899.021
782.655
669.46
562.318
463.428
374.89
297.646
231.78
176.969
132.637
98.11
72.7954
55.5086
43.9679
36.7608
32.3399
29.3222
26.692
23.7874
20.249
15.994
11.0732
5.57459
-0.475462
-7.16406
-14.0334
-20.8418
-27.4445
-33.7113
-39.5396
-44.8592
-49.6297
-53.8365
-57.4857
-60.5996
-63.2109
-65.358
-67.0806
-68.4157
-69.3966
-70.0522
-70.4083
-70.4883
-70.3138
-69.9054
-69.2817
-68.4606
-67.4582
-66.2897
-64.9699
-63.514
-61.9383
-60.2598
-58.4968
-56.688
-54.9617
6850.22
6755.94
6713.78
6809.69
6998.19
7253.22
7525.59
7794.97
8034.01
8209.58
8309.3
8334.81
8274.93
8097.59
7778.55
7335.68
6823.64
6294.21
5762.89
5225.24
4688.38
4164.35
3658.72
3172.97
2711.35
2281
1888.85
1539.09
1232.3
966.306
738.217
545.984
388.513
264.436
171.083
104.241
58.2948
28.4244
9.89727
-1.39539
-8.65675
-14.1862
-19.4504
-25.1922
-31.5816
-38.4737
-45.6459
-52.7839
-59.3211
-65.2899
-70.638
-75.3049
-79.2799
-82.5856
-85.2652
-87.3729
-88.9686
-90.114
-90.8705
-91.2962
-91.4438
-91.3575
-91.0704
-90.6033
-89.9661
-89.1602
-88.1823
-87.028
-85.6947
-84.1824
-82.4943
-80.637
-78.6203
-76.4575
-74.1659
-71.767
-69.2846
-66.7465
-64.2049
-61.7803
23317.9
23003.8
22593
21825.3
20489
18542.9
15988.5
12996.5
9952.99
7254.09
5087.92
3433.95
2181.53
1219.57
468.675
-122.911
-594.306
-971.224
-1269.53
-1501.17
-1671.5
-1782.28
-1838.52
-1847.33
-1815.47
-1748.15
-1649.3
-1522.96
-1374.17
-1209.38
-1037.28
-868.707
-714.614
-582.627
-475.092
-390.902
-327.007
-279.644
-245.228
-220.313
-202.143
-188.759
-178.76
-171.137
-165.182
-160.406
-156.468
-153.119
-150.17
-147.487
-144.969
-142.541
-140.147
-137.749
-135.326
-132.872
-130.39
-127.895
-125.406
-122.941
-120.517
-118.143
-115.816
-113.529
-111.264
-108.998
-106.708
-104.368
-101.955
-99.4457
-96.8228
-94.0722
-91.186
-88.1647
-85.0182
-81.7667
-78.4392
-75.0754
-71.7443
-68.5515
-21042.5
-20144.3
-19075.3
-18028.3
-17027.8
-16054.7
-15005.9
-13750.7
-12159
-10191.1
-7948.04
-5630.15
-3461.48
-1612.46
-156.381
911.63
1621.95
2009.94
2126.6
2039.17
1813.35
1494.66
1111.62
685.402
236.706
-209.625
-622.247
-965.387
-1207.76
-1334.7
-1354.62
-1294.25
-1186.39
-1059.81
-934.318
-820.293
-721.361
-637.371
-566.574
-507.222
-457.642
-416.188
-381.376
-351.94
-326.835
-305.218
-286.413
-269.883
-255.2
-242.024
-230.087
-219.176
-209.128
-199.818
-191.156
-183.081
-175.551
-168.54
-162.028
-155.996
-150.424
-145.283
-140.535
-136.135
-132.031
-128.163
-124.474
-120.903
-117.394
-113.895
-110.359
-106.747
-103.03
-99.1907
-95.2261
-91.1523
-87.0017
-82.8252
-78.7058
-74.7304
-1603.15
-1621.5
-1710.82
-1915.74
-2256.3
-2636.77
-2997.78
-3256.12
-3294.06
-3039.47
-2550.54
-1994.16
-1525.04
-1207.37
-1030.6
-960.262
-970.713
-1050.27
-1190.01
-1374.28
-1579.79
-1778.77
-1945.94
-2062.06
-2114.89
-2097.11
-2005.3
-1845.84
-1643.31
-1433.58
-1246.29
-1092.18
-967.618
-865.471
-780.247
-708.395
-647.437
-595.443
-550.93
-512.738
-479.894
-451.532
-426.853
-405.113
-385.632
-367.811
-351.165
-335.335
-320.097
-305.329
-290.987
-277.072
-263.606
-250.627
-238.177
-226.308
-215.073
-204.514
-194.667
-185.548
-177.155
-169.463
-162.432
-155.999
-150.094
-144.635
-139.541
-134.731
-130.128
-125.66
-121.26
-116.867
-112.43
-107.91
-103.287
-98.5624
-93.7619
-88.9375
-84.173
-79.5405
7169.76
6891.61
6569.83
6152.07
5488.19
4562.42
3374.79
2007.5
641.597
-526.702
-1399.2
-1992.13
-2360.89
-2552.82
-2607.49
-2561.88
-2448.52
-2294.38
-2121.06
-1943.87
-1771.6
-1608.26
-1456.18
-1318.45
-1199.49
-1104.19
-1036.85
-999.117
-985.725
-985.848
-985.537
-975.48
-952.668
-918.498
-876.181
-829.073
-780.029
-731.221
-684.18
-639.859
-598.754
-561.031
-526.632
-495.36
-466.935
-441.04
-417.354
-395.575
-375.42
-356.622
-338.93
-322.116
-305.996
-290.456
-275.45
-261.001
-247.174
-234.049
-221.701
-210.182
-199.516
-189.691
-180.672
-172.397
-164.791
-157.769
-151.246
-145.14
-139.375
-133.877
-128.578
-123.41
-118.308
-113.217
-108.096
-102.926
-97.7132
-92.4952
-87.338
-82.2999
-13257.8
-12333.5
-11109.1
-9869.73
-8669.32
-7611.18
-6692.13
-5914.69
-5248.08
-4656.52
-4140.86
-3719.59
-3399.52
-3174.9
-3034.48
-2955.85
-2901.35
-2833.01
-2735.27
-2615.86
-2484.7
-2343.75
-2192.66
-2035.33
-1878.07
-1726.16
-1582.5
-1447.58
-1321.08
-1203.19
-1095.71
-999.86
-916.132
-844.184
-783.089
-731.618
-688.439
-652.202
-621.555
-595.142
-571.646
-549.896
-528.966
-508.232
-487.373
-466.323
-445.199
-424.22
-403.631
-383.639
-364.379
-345.908
-328.224
-311.296
-295.099
-279.627
-264.896
-250.933
-237.764
-225.405
-213.852
-203.084
-193.058
-183.72
-175.007
-166.851
-159.188
-151.962
-145.121
-138.616
-132.403
-126.433
-120.653
-115.013
-109.467
-103.982
-98.5451
-93.1677
-87.8869
-82.7382
1581.98
1497.91
1326.75
1055.69
724.801
406.119
150.077
-28.1953
-143.987
-224.008
-289.168
-349.859
-410.266
-473.121
-540.594
-612.421
-684.616
-751.402
-809.706
-862.031
-914.306
-969.051
-1023.27
-1069.58
-1100.76
-1112.3
-1104.31
-1080.21
-1044.77
-1002.55
-957.052
-910.58
-864.348
-818.96
-774.814
-732.324
-692.045
-654.64
-620.619
-590.054
-562.534
-537.366
-513.833
-491.361
-469.582
-448.331
-427.611
-407.534
-388.254
-369.903
-352.543
-336.157
-320.659
-305.932
-291.862
-278.362
-265.382
-252.904
-240.927
-229.459
-218.504
-208.056
-198.098
-188.604
-179.543
-170.885
-162.602
-154.674
-147.087
-139.831
-132.898
-126.271
-119.929
-113.842
-107.975
-102.296
-96.781
-91.4213
-86.2259
-81.1999
13469.5
13401.4
13340
13149.5
12739.6
12018.6
11048.6
9958.44
8856.73
7801.7
6815.54
5907.02
5080.54
4336.73
3672.12
3080.34
2553.32
2082.43
1659.63
1277.97
932.501
620.835
341.968
95.3814
-118.604
-300.258
-450.163
-569.453
-659.112
-720.389
-755.46
-767.291
-759.509
-736.393
-702.58
-662.623
-620.689
-580.272
-543.738
-512.02
-484.86
-461.418
-440.785
-422.223
-405.189
-389.299
-374.298
-360.017
-346.345
-333.21
-320.555
-308.328
-296.48
-284.968
-273.755
-262.816
-252.137
-241.714
-231.548
-221.644
-212.004
-202.63
-193.516
-184.656
-176.043
-167.671
-159.541
-151.656
-144.03
-136.675
-129.607
-122.836
-116.363
-110.182
-104.277
-98.6274
-93.2128
-88.0174
-83.034
-78.2497
-16633.5
-15850.7
-14852.1
-13845.3
-12808.7
-11875.5
-10996.8
-10110.9
-9190.11
-8239.1
-7284.39
-6362.08
-5509
-4754.01
-4111.47
-3580.1
-3147.18
-2794.9
-2505.53
-2263.74
-2056.18
-1871.06
-1699.23
-1534.12
-1372.17
-1212.89
-1058.54
-912.866
-779.684
-661.918
-561.497
-479.344
-415.317
-368.258
-336.176
-316.535
-306.524
-303.27
-304.084
-306.74
-309.664
-311.928
-313.082
-312.975
-311.607
-309.039
-305.372
-300.716
-295.189
-288.913
-282.011
-274.597
-266.778
-258.65
-250.293
-241.781
-233.178
-224.539
-215.914
-207.345
-198.866
-190.504
-182.278
-174.205
-166.294
-158.557
-151.002
-143.643
-136.494
-129.57
-122.887
-116.458
-110.291
-104.39
-98.7499
-93.3627
-88.2157
-83.2967
-78.5929
-74.0911
-210.042
-279.244
-397.157
-519.655
-549.01
-454.495
-289.112
-150.954
-94.1789
-105.729
-145.934
-180.309
-187.895
-159.161
-92.8467
3.10905
115.812
233.206
348.323
458.892
563.064
655.755
729.121
775.993
794.174
786.861
757.745
707.849
638.318
552.824
457.899
360.082
264.765
175.845
95.7338
25.5697
-34.4838
-84.9433
-126.737
-160.885
-188.425
-210.259
-227.143
-239.718
-248.551
-254.136
-256.989
-257.532
-256.164
-253.244
-249.081
-243.942
-238.049
-231.589
-224.715
-217.552
-210.2
-202.742
-195.243
-187.754
-180.317
-172.962
-165.713
-158.587
-151.598
-144.754
-138.065
-131.54
-125.187
-119.017
-113.039
-107.263
-101.696
-96.3415
-91.2007
-86.2708
-81.5464
-77.0208
-72.6842
-68.5252
8236.59
8139.24
7998.93
7785.69
7516.09
7245.94
6998.1
6768.31
6540.64
6300.71
6038.91
5744.35
5407.16
5025.79
4609.04
4167.12
3703.2
3222.42
2736.41
2262.59
1818.85
1418.56
1070.07
783.135
569.902
427.941
330.329
245.187
157.817
70.3995
-10.5474
-80.5307
-138.106
-183.695
-218.588
-244.344
-262.476
-274.317
-281.018
-283.593
-282.965
-279.962
-275.301
-269.571
-263.219
-256.564
-249.809
-243.069
-236.392
-229.788
-223.245
-216.746
-210.272
-203.809
-197.349
-190.889
-184.432
-177.985
-171.559
-165.166
-158.818
-152.531
-146.318
-140.194
-134.172
-128.263
-122.479
-116.83
-111.324
-105.969
-100.773
-95.7393
-90.8725
-86.1746
-81.6457
-77.2848
-73.0897
-69.0572
-65.1828
-61.4476
-13625.5
-13210.5
-12644.9
-11947.6
-11096.6
-10154
-9163.41
-8181.25
-7262.93
-6451.4
-5771.87
-5231.2
-4822.09
-4524.11
-4308.54
-4146.37
-4015.34
-3900.64
-3790.44
-3673.97
-3540.7
-3380.44
-3184.21
-2946.62
-2672.82
-2383.57
-2105.19
-1852.69
-1627.94
-1427.26
-1246.75
-1084.55
-940.437
-814.895
-707.977
-618.753
-545.209
-484.651
-434.396
-392.291
-356.822
-326.93
-301.777
-280.618
-262.769
-247.616
-234.623
-223.337
-213.385
-204.472
-196.364
-188.879
-181.878
-175.252
-168.92
-162.818
-156.9
-151.136
-145.503
-139.985
-134.576
-129.27
-124.068
-118.968
-113.972
-109.083
-104.303
-99.6346
-95.0805
-90.6433
-86.3253
-82.1285
-78.0546
-74.1045
-70.279
-66.5784
-63.0027
-59.5518
-56.2237
-52.9932
4207.47
3963.66
3661.19
3325.87
2901.59
2444.72
1974.73
1503.11
1023.43
517.203
-10.7862
-506.044
-894.242
-1144.53
-1285.22
-1364.59
-1412.77
-1442.18
-1457.47
-1460.28
-1451.49
-1431.48
-1399.73
-1354.84
-1295.18
-1219.61
-1127.63
-1020.11
-900.329
-774.881
-651.887
-537.74
-436.709
-351.885
-285.045
-235.914
-202.348
-181.017
-168.473
-161.833
-158.895
-158.041
-158.118
-158.359
-158.314
-157.805
-156.676
-154.977
-152.762
-150.094
-147.049
-143.7
-140.111
-136.34
-132.437
-128.442
-124.388
-120.304
-116.212
-112.128
-108.068
-104.042
-100.062
-96.1334
-92.264
-88.4591
-84.7232
-81.0603
-77.4735
-73.9655
-70.5383
-67.1937
-63.9331
-60.7574
-57.6675
-54.6642
-51.7478
-48.9185
-46.1738
-43.4902
13754.7
13559
13255
12751.4
11985.9
11102.6
10198.5
9312.68
8430.45
7514.42
6556.08
5604.59
4736.26
3992.97
3363.28
2819.9
2347.03
1937.66
1586.51
1286.08
1026.84
795.497
583.332
385.075
199.205
28.4735
-121.903
-246.275
-339.746
-399.828
-429.698
-437.1
-430.583
-416.201
-396.598
-372.199
-343.593
-312.079
-279.841
-249.248
-222.076
-199.188
-180.595
-165.773
-153.991
-144.534
-136.794
-130.303
-124.712
-119.768
-115.292
-111.155
-107.271
-103.58
-100.041
-96.6271
-93.3179
-90.1002
-86.964
-83.9013
-80.9057
-77.9718
-75.095
-72.2711
-69.497
-66.77
-64.088
-61.4498
-58.8546
-56.302
-53.7923
-51.3259
-48.9033
-46.5254
-44.1929
-41.9068
-39.668
-37.477
-35.3325
-33.2196
-14151.2
-13571.6
-12855.4
-12106.6
-11285.2
-10424.5
-9511.22
-8559.08
-7600.61
-6669.09
-5779.06
-4922.97
-4096.18
-3319.63
-2626.82
-2037.65
-1549.23
-1145.38
-806.23
-513.151
-252.621
-18.5891
187.242
358.469
488.706
573.589
612.29
607.439
566.01
499.068
418.264
333.671
252.053
178.016
113.755
60.0119
17.1636
-15.5894
-39.727
-56.9482
-68.7556
-76.4675
-81.1589
-83.6469
-84.5416
-84.2951
-83.2419
-81.6287
-79.6376
-77.4044
-75.0306
-72.5931
-70.1489
-67.7401
-65.3956
-63.1335
-60.9633
-58.886
-56.8979
-54.991
-53.1549
-51.378
-49.6487
-47.9565
-46.2919
-44.6475
-43.0171
-41.3967
-39.7832
-38.1748
-36.5709
-34.9711
-33.376
-31.7866
-30.204
-28.63
-27.0664
-25.5147
-23.9747
-22.444
-498.941
-661.457
-856.214
-1059.22
-1316.02
-1599.71
-1908.15
-2229.48
-2546.6
-2841.66
-3093.74
-3282.15
-3394.06
-3432.13
-3416.56
-3377.57
-3339.54
-3303.52
-3244.65
-3129.06
-2938.46
-2680.83
-2382.21
-2072.18
-1774.07
-1502.38
-1263.97
-1060.39
-889.3
-746.502
-626.844
-525.407
-438.45
-363.561
-299.394
-245.363
-201.306
-167.127
-142.496
-126.671
-118.468
-116.339
-118.587
-123.583
-129.826
-135.99
-141.419
-145.886
-149.219
-151.39
-152.477
-152.585
-151.823
-150.32
-148.2
-145.577
-142.552
-139.208
-135.616
-131.833
-127.905
-123.876
-119.783
-115.662
-111.543
-107.457
-103.431
-99.4853
-95.639
-91.9046
-88.2906
-84.8016
-81.44
-78.2069
-75.1028
-72.1283
-69.2834
-66.5632
-63.9668
-61.4704
-1026.75
-850.837
-575.26
-203.6
251.117
713.385
1118.24
1416.56
1586.72
1645.12
1646.61
1666.24
1768.31
1984.25
2303.1
2664.87
2974.59
3141.7
3122.91
2930.45
2612.12
2230.67
1840.36
1469.11
1125.02
813.36
541.853
316.469
138.225
3.93703
-91.824
-155.641
-194.114
-213.47
-219.39
-216.876
-210.058
-202.048
-194.893
-189.651
-186.577
-185.369
-185.473
-186.437
-187.603
-188.502
-189.026
-188.884
-187.998
-186.375
-184.051
-181.085
-177.556
-173.551
-169.158
-164.462
-159.535
-154.438
-149.222
-143.934
-138.614
-133.298
-128.02
-122.811
-117.699
-112.71
-107.868
-103.189
-98.6883
-94.3753
-90.2551
-86.3296
-82.5979
-79.0569
-75.7026
-72.5298
-69.5325
-66.6986
-64.0221
-61.48
11277.2
11094.4
10815.7
10348.8
9663.56
8814.4
7827.5
6712.73
5487.66
4209.74
2980
1912.43
1087.34
526.316
202.046
60.4896
40.144
75.8114
106.35
80.1102
-24.8101
-182.695
-335.012
-439.313
-501.858
-542.179
-557.18
-539.766
-501.104
-458.299
-421.499
-393.728
-374.041
-360.237
-350.178
-342.275
-335.49
-329.19
-322.987
-316.66
-310.085
-303.198
-295.958
-288.202
-280.061
-271.643
-262.997
-254.169
-245.217
-236.209
-227.217
-218.311
-209.548
-200.974
-192.614
-184.48
-176.575
-168.9
-161.451
-154.223
-147.211
-140.414
-133.834
-127.476
-121.348
-115.461
-109.828
-104.458
-99.3614
-94.5427
-90.003
-85.7392
-81.7443
-78.0085
-74.5199
-71.2652
-68.2301
-65.3936
-62.742
-60.2557
-1414.36
-1321.74
-1277.38
-1352.03
-1445.51
-1496.06
-1491
-1478.83
-1493.04
-1522.14
-1533.61
-1498.71
-1399.83
-1233.88
-1015.65
-772.952
-541.747
-356.344
-239.01
-196.042
-219.782
-292.976
-395.377
-510.944
-627.874
-728.155
-785.201
-784.842
-741.328
-684.822
-637.933
-607.898
-592.127
-584.986
-581.159
-576.651
-568.883
-556.516
-539.216
-517.457
-492.351
-465.201
-437.203
-409.413
-382.648
-357.428
-334.01
-312.461
-292.732
-274.715
-258.276
-243.266
-229.53
-216.921
-205.299
-194.536
-184.51
-175.114
-166.252
-157.844
-149.827
-142.153
-134.791
-127.727
-120.956
-114.486
-108.33
-102.505
-97.0241
-91.8976
-87.1284
-82.7122
-78.6374
-74.8869
-71.4394
-68.2713
-65.3578
-62.6676
-60.1779
-57.873
-16634.8
-15827.4
-14804.6
-13716.7
-12458
-11164.9
-9891.41
-8698.5
-7629.94
-6704.91
-5925.81
-5282.32
-4750.74
-4298.68
-3899.08
-3543.25
-3237.82
-2991.55
-2804.84
-2669.1
-2573.37
-2507.23
-2464.56
-2443.09
-2438.37
-2437.3
-2419.44
-2368.81
-2282.34
-2165.98
-2029.94
-1884.53
-1736.76
-1589.78
-1445.52
-1305.51
-1171.3
-1044.44
-926.314
-818.06
-720.572
-634.334
-559.275
-494.883
-440.327
-394.526
-356.263
-324.303
-297.492
-274.82
-255.437
-238.658
-223.943
-210.874
-199.12
-188.418
-178.553
-169.352
-160.678
-152.426
-144.516
-136.896
-129.535
-122.421
-115.563
-108.982
-102.71
-96.7855
-91.2415
-86.1042
-81.3866
-77.0865
-73.1889
-69.6682
-66.4922
-63.6251
-61.03
-58.6661
-56.5008
-54.5215
4567.83
4395.79
4157.01
3842.42
3465.61
3035.43
2546.81
2007.66
1463.85
964.943
513.756
78.8469
-356.689
-778.97
-1162.43
-1489.44
-1755.43
-1962.88
-2121.75
-2244.56
-2335.65
-2392.93
-2416.32
-2408.21
-2369.16
-2297.55
-2192.46
-2055.35
-1892.31
-1714.08
-1533.41
-1361.46
-1205.11
-1066.9
-945.747
-839.39
-745.889
-663.908
-592.513
-530.885
-478.146
-433.246
-394.973
-362.218
-333.946
-309.256
-287.498
-268.144
-250.801
-235.186
-221.084
-208.315
-196.717
-186.147
-176.464
-167.538
-159.242
-151.459
-144.079
-137.011
-130.177
-123.523
-117.015
-110.644
-104.42
-98.3768
-92.5656
-87.0475
-81.8865
-77.1377
-72.8364
-68.9914
-65.5859
-62.5844
-59.9415
-57.6078
-55.5335
-53.6686
-51.9711
-50.4205
4943.74
4953.81
5003.93
5071.27
5152.36
5229.01
5302.02
5367.68
5417.27
5444.28
5447.3
5427.35
5383.5
5310.31
5202.35
5059.26
4886.11
4687.93
4468
4227.6
3967.72
3686.13
3378.7
3050.03
2719.82
2411.28
2134.71
1887.99
1664.45
1457.45
1262.5
1076.98
899.688
730.936
572.17
425.828
294.592
180.595
84.9519
7.62703
-52.3565
-96.7567
-127.898
-148.216
-160.118
-165.806
-167.08
-165.418
-161.957
-157.506
-152.606
-147.591
-142.651
-137.869
-133.261
-128.805
-124.452
-120.17
-115.877
-111.528
-107.091
-102.549
-97.9013
-93.1681
-88.3891
-83.6211
-78.9345
-74.4093
-70.1296
-66.1745
-62.6076
-59.4659
-56.7538
-54.4457
-52.4935
-50.8362
-49.4084
-48.1462
-46.9932
-45.9052
950.683
869.318
770.532
666.899
552.258
453.359
378.304
328.881
300.257
284.157
274.258
267.684
262.997
257.244
245.912
224.723
190.488
142.58
83.3029
14.8827
-63.3297
-158.123
-280.088
-418.983
-537.512
-602.908
-611.878
-579.911
-524.351
-457.849
-388.774
-321.852
-259.594
-204.091
-156.856
-118.596
-89.184
-67.867
-53.6371
-45.3866
-41.9921
-42.305
-45.225
-49.7794
-55.1478
-60.6861
-65.9333
-70.5997
-74.5389
-77.7115
-80.1519
-81.9391
-83.1675
-83.9261
-84.2867
-84.3043
-84.0168
-83.4227
-82.5352
-81.3295
-79.7888
-77.9084
-75.6967
-73.18
-70.4058
-67.4431
-64.379
-61.3099
-58.3267
-55.505
-52.9136
-50.6034
-48.6079
-46.9241
-45.5441
-44.4395
-43.5583
-42.8328
-42.1942
-41.578
-10408
-10147.1
-9838.18
-9482.78
-9041.42
-8516.83
-7913.92
-7265.26
-6618.32
-6013.59
-5470.74
-4991.23
-4571.27
-4209.99
-3907.97
-3661.86
-3461.39
-3290.56
-3133.32
-2982.24
-2842.17
-2715.72
-2583.66
-2413.99
-2189.69
-1919.19
-1631.93
-1361.92
-1131.62
-947.417
-803.749
-688.925
-590.281
-498.714
-411.491
-329.075
-253.796
-187.748
-132.48
-88.3602
-54.7348
-30.3996
-13.9495
-3.9478
0.98523
2.10425
0.48936
-2.97247
-7.58138
-12.8055
-18.2571
-23.6682
-28.8644
-33.74
-38.2277
-42.2884
-45.8938
-49.0129
-51.6312
-53.7311
-55.2917
-56.296
-56.7372
-56.6242
-55.9877
-54.8874
-53.4199
-51.7539
-49.9908
-48.1056
-46.2167
-44.4172
-42.783
-41.388
-40.2702
-39.4342
-38.8443
-38.4338
-38.1246
-37.8385
5510.44
5386.25
5210.93
4942.95
4560.15
4102.24
3612.67
3129.39
2676.97
2267
1901.36
1576.32
1285.95
1024.47
787.844
575.83
394.59
252.493
153.345
88.819
41.4686
-2.76174
-41.3681
-61.2577
-53.7869
-24.7056
14.6387
54.1397
88.3125
114.741
130.9
133.758
123.156
104.348
85.3352
70.3679
60.2307
53.6718
49.369
46.2896
43.8154
41.4827
39.0245
36.247
33.1097
29.6149
25.7611
21.5645
17.0601
12.2985
7.34053
2.25204
-2.89872
-8.04046
-13.1077
-18.0345
-22.7562
-27.2089
-31.3303
-35.0586
-38.3336
-41.0998
-43.3108
-44.9353
-45.9629
-46.409
-46.3112
-45.6795
-44.6148
-43.3286
-41.8812
-40.3712
-38.9017
-37.5855
-36.519
-35.748
-35.2567
-34.9819
-34.8346
-34.7364
6257.32
6524.34
6826.4
7004.86
7143.38
7311.67
7512.02
7694.15
7825.1
7881.29
7844.83
7705.39
7460.98
7118.1
6691.07
6199.77
5665.12
5110.28
4559.12
4030.21
3533.76
3070.94
2639.66
2241.44
1886.4
1587.81
1353.63
1180.43
1051.92
944.81
837.496
722.07
605.826
499.686
408.051
330.85
267.382
216.663
176.934
146.334
122.421
103.485
88.2639
75.8334
65.4348
56.4967
48.6156
41.4951
34.9169
28.724
22.8076
17.0981
11.5569
6.16917
0.939341
-4.11539
-8.96703
-13.5793
-17.9093
-21.9089
-25.5267
-28.711
-31.4141
-33.5974
-35.2379
-36.3327
-36.8959
-36.9491
-36.6065
-35.9537
-35.0765
-34.082
-33.0935
-32.2343
-31.5975
-31.2238
-31.0958
-31.1499
-31.2909
-31.444
41.5742
-118.962
-343.249
-619.648
-993.784
-1367.87
-1685.86
-1922.15
-2075
-2152.64
-2168.04
-2137.78
-2080.3
-2012.81
-1945.97
-1878.14
-1794.73
-1677.83
-1527.33
-1365.25
-1214.99
-1077.93
-937.154
-781.21
-613.82
-446.305
-290.04
-153.241
-40.3073
46.4037
107.449
146.737
169.993
180.802
181.483
174.8
163.813
150.968
137.899
124.939
112.682
101.307
90.8549
81.2972
72.5495
64.5028
57.0479
50.088
43.5421
37.346
31.4508
25.8215
20.4353
15.2797
10.3516
5.65564
1.203
-2.98954
-6.90064
-10.5055
-13.7771
-16.6883
-19.214
-21.3346
-23.0383
-24.3214
-25.1951
-25.714
-25.9068
-25.8565
-25.597
-25.2771
-24.9907
-24.8227
-24.8343
-25.0505
-25.4562
-26.0025
-26.6192
-27.1866
-8779.48
-8657.86
-8588.2
-8590.63
-8652.43
-8706.21
-8677.61
-8514.34
-8200.37
-7748.91
-7187.2
-6549.14
-5872.18
-5201.94
-4596.11
-4096.7
-3686.21
-3300.15
-2893.46
-2481.53
-2114.83
-1830.55
-1633.66
-1504.23
-1414.42
-1338.96
-1258.84
-1162.63
-1046.89
-915.285
-776.428
-640.068
-514.109
-403.352
-309.437
-232.038
-169.627
-119.497
-79.3644
-47.3925
-22.3673
-3.37278
10.4795
20.0604
26.2065
29.6799
31.1308
31.0828
29.9416
28.0131
25.5248
22.6446
19.4989
16.1863
12.7869
9.36873
5.99082
2.70598
-0.438068
-3.39796
-6.13457
-8.61356
-10.8066
-12.693
-14.2612
-15.5104
-16.4521
-17.1128
-17.5292
-17.7526
-17.9004
-17.9964
-18.1204
-18.3398
-18.703
-19.2343
-19.9336
-20.7817
-21.7465
-22.7774
3736.33
3661.81
3549.09
3375.75
3121.09
2806.07
2455.47
2099.73
1767.36
1479.71
1248.33
1073.8
946.521
849.472
763.861
674.927
576.108
473.02
380.653
308.424
250.744
197.093
146.051
101.102
63.7992
32.7826
5.70672
-18.9952
-41.6122
-61.5328
-77.8752
-89.7207
-96.4404
-97.7105
-93.8366
-85.645
-74.1708
-60.9646
-47.1301
-33.6905
-21.5026
-11.14
-2.7971
3.68651
8.63923
12.3982
15.2125
17.2258
18.5074
19.0926
19.0066
18.29
17.0044
15.2384
13.0982
10.695
8.13563
5.5162
2.92001
0.41683
-1.93682
-4.09716
-6.03275
-7.72412
-9.16366
-10.3556
-11.3156
-12.0702
-12.6557
-13.1165
-13.5041
-13.8697
-14.2621
-14.7256
-15.2943
-15.9896
-16.8198
-17.7791
-18.8484
-20.0838
2538.51
2564.25
2625.44
2710.58
2815.3
2928.6
3052.26
3184.78
3319.18
3444.95
3549.47
3619.68
3642.96
3610.2
3517.63
3367.42
3168.26
2934.49
2681.86
2421.95
2161.93
1906.76
1661.69
1431.47
1220.42
1031.24
864.223
717.793
589.32
476.266
376.827
290.089
215.722
153.384
103.15
65.1057
38.6129
22.5859
15.4733
15.3299
19.9787
27.2672
35.3141
42.6517
48.3026
51.7667
52.9575
52.0969
49.5949
45.9154
41.3056
36.3018
31.1873
26.1485
21.3255
16.8086
12.648
8.8663
5.46828
2.44791
-0.20733
-2.51416
-4.49271
-6.16657
-7.56329
-8.71483
-9.65756
-10.4317
-11.0801
-11.6465
-12.1729
-12.6982
-13.2553
-13.8703
-14.5621
-15.3423
-16.2149
-17.1814
-18.2635
-19.4545
858.954
820.961
783.399
751.936
718.215
675.893
618.711
545.086
456.599
355.269
242.506
119.547
-10.5131
-139.795
-254.058
-335.885
-372.809
-364.076
-319.365
-251.516
-172.516
-90.6302
-12.0172
58.7239
118.454
165.803
200.329
222.973
235.419
239.474
236.734
228.446
215.6
199.116
180.011
159.44
138.627
118.737
100.763
85.4091
72.9935
63.4316
56.2935
50.9375
46.6742
42.9084
39.2296
35.4261
31.4366
27.3453
23.4877
19.7604
16.2375
12.9327
9.83838
6.94444
4.24449
1.73875
-0.566494
-2.66143
-4.53583
-6.18232
-7.59939
-8.79349
-9.7802
-10.5842
-11.2379
-11.7793
-12.2488
-12.6861
-13.1266
-13.599
-14.1235
-14.7127
-15.3683
-16.0879
-16.8644
-17.6946
-18.5777
-19.4635
1306.11
1222.89
1091.86
904.72
643.226
352.798
59.3432
-222.367
-484.75
-729.356
-963.638
-1198.34
-1442.27
-1693.58
-1929.95
-2110.48
-2196.26
-2177.33
-2074.93
-1919.89
-1733.47
-1527.52
-1311.13
-1093.96
-885.533
-693.839
-524.581
-380.939
-263.716
-171.737
-102.411
-52.3445
-17.9258
4.25494
17.4898
24.2667
26.6446
26.2348
24.2452
21.5406
18.6816
16.0025
13.7882
12.0612
10.7472
9.61031
8.50329
7.39093
6.2626
5.10691
3.90711
2.67438
1.39957
0.0105794
-1.51488
-3.1443
-4.83055
-6.51949
-8.15452
-9.68222
-11.0574
-12.2465
-13.2304
-14.005
-14.5818
-14.9863
-15.2552
-15.4327
-15.5652
-15.6969
-15.8649
-16.0959
-16.4048
-16.7943
-17.2563
-17.7758
-18.3335
-18.9082
-19.469
-20.0153
-11058.4
-10254.4
-9219.53
-8158.44
-7044.58
-5956.39
-4867.78
-3776.02
-2712.16
-1729.29
-880.62
-199.534
307.676
655.44
867.632
971.162
990.824
949.513
869.836
771.498
667.774
563.971
460.193
355.926
253.082
155.943
69.2668
-3.47841
-60.8576
-103.183
-131.856
-149.115
-157.057
-157.493
-152.277
-142.732
-130.106
-115.517
-99.9583
-84.2909
-69.2168
-55.2816
-42.9851
-32.5232
-23.9289
-17.1896
-12.161
-8.53883
-6.12959
-4.74054
-4.18301
-4.30544
-5.05649
-6.26194
-7.81366
-9.57554
-11.4444
-13.3244
-15.1263
-16.771
-18.1944
-19.3511
-20.2172
-20.7909
-21.092
-21.1596
-21.0484
-20.8217
-20.5447
-20.2775
-20.0688
-19.9523
-19.9438
-20.0417
-20.2308
-20.4865
-20.7796
-21.0782
-21.3463
-21.5976
7673.7
7459.71
7171.52
6746.4
6160.77
5424.59
4580.52
3680.26
2773.53
1906.73
1117.97
433.388
-135.402
-589.01
-934.872
-1184.45
-1351.15
-1448.27
-1487.28
-1476.38
-1423.03
-1336.96
-1231.68
-1122.39
-1020.93
-932.163
-854.643
-784.213
-717.062
-651.076
-585.574
-520.709
-457.45
-397.202
-340.902
-289.376
-243.134
-202.209
-166.4
-135.29
-108.377
-85.2222
-65.5184
-49.1302
-36.006
-25.8617
-18.4342
-13.5254
-10.7209
-9.57477
-9.56237
-10.3651
-11.7875
-13.57
-15.5549
-17.6684
-19.8079
-21.8697
-23.7647
-25.4183
-26.7713
-27.7818
-28.4296
-28.7184
-28.6768
-28.3564
-27.8272
-27.1695
-26.4583
-25.7802
-25.1865
-24.7153
-24.3825
-24.1822
-24.0914
-24.0762
-24.0982
-24.1192
-24.1044
-24.0602
1934.67
1852.93
1797.41
1791.79
1815.44
1860.58
1900.69
1903.12
1838.17
1690.01
1461.42
1168.27
831.639
473.023
113.275
-226.997
-528.232
-774.435
-955.615
-1069.05
-1118.45
-1111.94
-1060.31
-975.758
-870.596
-755.603
-639.126
-526.825
-422.194
-327.227
-243.051
-169.942
-107.768
-56.1531
-14.8833
16.2737
37.8377
50.9483
57.1677
58.2365
55.7088
50.9924
45.1489
38.8527
32.5521
26.4873
20.7605
15.3957
10.3248
5.59775
1.09005
-3.22537
-7.32584
-11.2948
-15.1186
-18.6758
-21.9555
-24.9244
-27.5322
-29.7313
-31.4848
-32.7719
-33.5925
-33.9695
-33.95
-33.6029
-33.0143
-32.2786
-31.4884
-30.7248
-30.0471
-29.4895
-29.0619
-28.752
-28.5316
-28.363
-28.2049
-28.0168
-27.7549
-27.3882
-56.8662
-50.7349
-45.536
-41.1518
-37.4492
-34.3581
-31.797
-29.7123
-28.0732
-26.8616
-26.069
-25.6879
-25.7061
-26.0987
-26.8235
-27.8194
-29.0008
-30.2566
-31.4422
-32.3898
-32.9401
-32.9735
-32.429
-31.3063
-29.6506
-27.5401
-25.0829
-22.425
-19.7456
-17.2287
-15.0166
-13.1724
-11.6792
-10.4733
-9.48408
-8.6535
-7.94122
-7.32371
-6.78949
-6.33286
-5.94921
-5.6333
-5.37943
-5.18202
-5.03589
-4.93613
-4.87777
-4.85535
-4.86238
-4.89101
-4.9317
-4.97291
-5.00122
-5.00238
-4.96317
-4.8735
-4.72869
-4.53027
-4.28586
-4.00801
-3.71181
-3.4122
-3.12195
-2.85047
-2.60378
-2.38508
-2.19564
-2.03558
-1.90444
-1.80139
-1.72527
-1.67462
-1.64781
-1.64317
-1.65914
-1.69435
-1.74783
-1.819
-1.90777
-2.01425
-2.13839
-2.27943
-2.43532
-2.60256
-2.77643
-2.95192
-3.12491
-3.29335
-3.4578
-3.62114
-3.78763
-3.96163
-4.14646
-4.34352
-4.55191
-4.76835
-4.98759
-5.20295
-5.40683
-5.59123
-5.74949
-5.87534
-5.96392
-6.01222
-6.019
-5.98474
-5.9115
-5.80264
-5.66245
-5.49576
-5.30754
-5.10264
-4.88554
-4.66018
-4.42998
-4.1978
-3.96598
-3.73644
-3.51069
-3.28991
-3.07505
-2.86687
-2.66601
-2.47297
-2.28818
-2.11197
-1.9446
-1.78632
-1.63729
-1.49761
-1.3673
-1.24626
-1.13437
-1.03146
-0.937333
-0.851747
-0.774384
-0.704865
-0.642764
-0.587629
-0.538967
-0.496264
-0.458983
-0.426527
-0.398291
-0.373672
-0.352157
-0.333196
-0.316317
-0.30112
-0.287232
-0.274336
-0.262181
-0.250578
-0.239393
-0.22854
-0.217982
-0.207715
-0.197752
-0.188105
-0.178777
-0.169758
-0.16104
-0.152622
-0.144514
-0.136721
-0.129245
-0.122072
-0.115188
-0.108582
-0.102256
-0.0962156
-0.0904682