/*--------------------------------*- C++ -*----------------------------------*\
| =========                 |                                                 |
| \\      /  F ield         | OpenFOAM: The Open Source CFD Toolbox           |
|  \\    /   O peration     | Version:  2012                                  |
|   \\  /    A nd           | Website:  www.openfoam.com                      |
|    \\/     M anipulation  |                                                 |
\*---------------------------------------------------------------------------*/
FoamFile
{
    version     2.0;
    format      ascii;
    class       volScalarField;
    location    "0.01";
    object      p;
}
// * * * * * * * * * * * * * * * * * * * * * * * * * * * * * * * * * * * * * //

dimensions      [0 2 -2 0 0 0 0];


internalField   nonuniform List<scalar> 
42400
(
8554.79
8455.37
8371.37
8311.18
8266.67
8282.24
8300.62
8197.02
7863.91
7208.77
6120.37
4786.85
3698.94
2999.82
2522.84
2219.53
2055.12
1940.2
1824.82
1693.75
1546.78
1395.19
1250.12
1110.18
966.474
817.605
670.045
532.952
412.063
308.866
223.783
156.303
105.115
68.3501
43.9609
28.8544
20.8784
18.3749
19.9491
24.4298
30.825
38.3198
46.2483
54.0498
61.2508
67.4615
72.3623
75.7094
77.3569
77.284
75.6123
72.5942
68.5705
63.9078
58.9373
53.9166
49.022
44.3653
40.0156
36.0143
32.3818
29.1204
26.218
23.6525
21.3957
19.4169
17.6846
16.1684
14.8394
13.6709
12.6388
11.7215
10.9002
10.1586
9.48268
8.86049
8.28314
7.7444
7.24223
6.73732
-6509.31
-6304.19
-6028.23
-5658.33
-5175.53
-4618.83
-4030.68
-3449.65
-2888.63
-2327.68
-1730.45
-1079.22
-447.852
11.4347
235.553
293.979
265.883
187.371
75.8946
-53.1975
-185.649
-310.763
-421.874
-513.997
-582.056
-622.068
-630.796
-610.319
-566.506
-506.37
-437.751
-366.83
-297.58
-232.458
-173.079
-120.512
-75.2648
-37.3458
-6.40017
18.1819
37.1916
51.5397
62.1906
70.0609
75.9191
80.3159
83.5409
85.6289
86.4413
85.811
83.691
80.2277
75.7335
70.5864
65.1245
59.5926
54.1481
48.8958
43.9175
39.2822
35.0428
31.2297
27.8492
24.8869
22.3135
20.0906
18.1762
16.5282
15.1069
13.8763
12.8047
11.8647
11.0332
10.2908
9.62159
9.01246
8.45393
7.93805
7.45582
6.97483
-708.634
-799.574
-954.73
-1107.88
-1223.9
-1244.08
-1189.24
-1097.55
-994.779
-893.296
-800.814
-726.399
-673.683
-634.296
-600.803
-573.772
-557.481
-553.33
-559.202
-567.748
-566.619
-543.457
-490.818
-408.494
-301.913
-178.393
-44.9941
90.6491
219.486
332.04
418.766
472.73
493.033
484.808
455.946
413.953
364.797
313.036
262.116
214.502
171.791
134.895
104.219
79.7635
61.1996
47.9208
39.0863
33.697
30.7375
29.3437
28.8897
28.9747
29.3445
29.8052
30.1626
30.2302
29.8755
29.0569
27.8249
26.2909
24.5854
22.8253
21.0989
19.4635
17.9504
16.5727
15.3309
14.2182
13.2239
12.3352
11.5391
10.8229
10.1749
9.58459
9.04293
8.54225
8.07698
7.64202
7.23099
6.81495
10581.6
10469.2
10284
10010.1
9646.71
9275.67
8893.64
8465.43
7971.54
7421.36
6840.98
6263.66
5719.85
5224.98
4774.6
4342.45
3894.43
3406.1
2884.88
2380.01
1967.33
1705.18
1593.28
1576.04
1579.83
1551.63
1470.15
1336.34
1161.89
963.737
763.744
582.857
432.46
312.996
219.521
146.82
90.9343
48.8913
18.3002
-2.8436
-16.2442
-23.3667
-25.5397
-24.0351
-20.0624
-14.7232
-8.9554
-3.4732
1.2795
5.13179
8.12529
10.4116
12.1669
13.5241
14.557
15.2953
15.7494
15.9313
15.8657
15.5911
15.1545
14.6049
13.9875
13.3401
12.6916
12.0622
11.4643
10.9041
10.3836
9.90111
9.45321
9.0355
8.6433
8.27217
7.91815
7.57795
7.24967
6.93126
6.61844
6.28559
-354.481
-388.372
-494.463
-676.244
-928.057
-1166
-1341.22
-1441.57
-1479.61
-1471.48
-1428.53
-1355.24
-1253.58
-1129.35
-996.667
-877.51
-791.901
-748.111
-738.568
-741.778
-733.971
-695.808
-622.177
-525.588
-424.775
-334.078
-260.103
-203.978
-164.705
-139.741
-123.693
-111.43
-100.565
-90.0653
-80.7197
-73.1845
-67.5229
-63.3942
-60.3513
-57.9937
-55.9773
-54.0005
-51.8116
-49.2335
-46.1837
-42.6747
-38.7937
-34.6682
-30.4329
-26.2071
-22.0867
-18.1454
-14.4418
-11.0234
-7.92834
-5.18275
-2.79808
-0.769984
0.920438
2.30332
3.41569
4.29704
4.98573
5.51648
5.91913
6.21829
6.43365
6.58052
6.67063
6.71284
6.71393
6.67917
6.61279
6.51834
6.39892
6.25743
6.09738
5.92116
5.72794
5.49753
-10080.3
-9814.34
-9502.53
-9159.44
-8733.14
-8234.63
-7679.74
-7112.23
-6579.37
-6107.49
-5688.16
-5285.19
-4855.18
-4374.87
-3863.84
-3385.94
-3003.71
-2730.27
-2524.85
-2332.05
-2116.94
-1878.9
-1640.7
-1428.01
-1254.81
-1121.63
-1020.41
-939.974
-869.611
-801.406
-731.567
-659.058
-585.342
-514.736
-450.987
-395.942
-349.458
-310.161
-276.366
-246.657
-220.061
-195.97
-174.016
-153.973
-135.697
-119.088
-104.06
-90.5337
-78.4208
-67.6241
-58.0378
-49.553
-42.0621
-35.4641
-29.6662
-24.5847
-20.144
-16.2756
-12.9169
-10.0103
-7.50347
-5.34844
-3.50217
-1.92629
-0.586986
0.545329
1.49639
2.28853
2.9411
3.47095
3.89285
4.21979
4.46327
4.63353
4.73973
4.79027
4.79345
4.75572
4.67963
4.55162
421.622
575.091
806.619
1093.3
1445.26
1787.64
2057.66
2183.66
2112.89
1840.93
1421.22
940.873
471.155
40.4137
-350.423
-703.611
-1023.87
-1313.04
-1566.54
-1772.47
-1918.76
-1999.78
-2016.89
-1975.71
-1886.56
-1763.09
-1620.19
-1469.71
-1318.15
-1168.67
-1024.04
-887.988
-764.288
-655.077
-560.71
-480.552
-412.973
-356.263
-308.607
-268.455
-234.542
-205.798
-181.311
-160.316
-142.179
-126.384
-112.514
-100.239
-89.2996
-79.4908
-70.652
-62.6558
-55.4005
-48.8042
-42.8
-37.3324
-32.3552
-27.8293
-23.721
-20.0017
-16.6462
-13.6324
-10.9405
-8.55181
-6.44827
-4.61164
-3.02311
-1.66313
-0.511585
0.451842
1.24677
1.89293
2.40795
2.80838
3.10935
3.32465
3.46731
3.54767
3.57166
3.53321
3537.4
3127.84
2683.58
2252.65
1726.43
1130.47
453.084
-285.841
-1025.4
-1655.66
-2044.42
-2123.44
-1949.75
-1655.24
-1344.25
-1061.52
-818.484
-617.416
-454.353
-323.424
-220.313
-142.877
-89.3309
-56.7016
-40.7349
-36.7303
-41.4323
-53.147
-71.0705
-94.7817
-121.831
-148.405
-171.004
-187.475
-197.084
-200.088
-197.54
-190.767
-181.22
-170.125
-158.391
-146.663
-135.363
-124.731
-114.875
-105.814
-97.5085
-89.8913
-82.8802
-76.3907
-70.3428
-64.6642
-59.2932
-54.1794
-49.2845
-44.5822
-40.0578
-35.7072
-31.5358
-27.5567
-23.7887
-20.2536
-16.9738
-13.9693
-11.255
-8.83882
-6.72018
-4.88989
-3.33135
-2.02246
-0.938048
-0.051806
0.66163
1.22599
1.66275
1.99117
2.22869
2.38917
2.48169
2.50742
-3325.81
-2642.12
-1702.45
-707.053
312.133
1225.15
2031.21
2723.03
3270.03
3651.12
3882.07
3994.97
4002.49
3902.93
3709.2
3449.61
3152.85
2846.54
2558.08
2304.93
2081.4
1862.77
1628.45
1378.48
1128.98
899.369
704.367
549.464
432.054
343.764
276.548
223.994
181.977
147.403
117.856
91.6999
67.8944
46.2433
26.8041
9.51857
-5.49696
-18.1792
-28.7143
-37.3212
-44.2059
-49.557
-53.5457
-56.328
-58.0455
-58.8237
-58.7715
-57.9831
-56.5405
-54.5176
-51.9844
-49.0099
-45.6655
-42.0263
-38.1724
-34.1886
-30.1633
-26.186
-22.3435
-18.7156
-15.3693
-12.3548
-9.70129
-7.41642
-5.48821
-3.88954
-2.58422
-1.53295
-0.697248
-0.0420551
0.463204
0.844658
1.12471
1.32079
1.44506
1.50469
10604.4
10524.4
10278.4
9788.93
9150.73
8534.05
7994.93
7523.81
7091.49
6665.98
6225.15
5761.62
5273.02
4750.14
4177.59
3543.94
2853.89
2129.37
1408.62
757.968
261.997
-34.3853
-163.921
-195.61
-177.044
-127.488
-59.0017
14.5989
78.7147
123.767
146.243
148.706
137.39
118.614
97.4421
77.2522
59.8021
45.3059
33.1356
22.2221
11.6804
1.25169
-8.80447
-18.1574
-26.5712
-33.9272
-40.1993
-45.4194
-49.6359
-52.8934
-55.2255
-56.6587
-57.2178
-56.9317
-55.838
-53.9863
-51.4406
-48.2809
-44.6042
-40.5239
-36.168
-31.6757
-27.1911
-22.8547
-18.7948
-15.1155
-11.8881
-9.14425
-6.87717
-5.04947
-3.60497
-2.48075
-1.61642
-0.959207
-0.465616
-0.100855
0.162784
0.345913
0.463012
0.52477
-7033.19
-6750.77
-6405.24
-6060.26
-5680.59
-5284.89
-4885.2
-4499.07
-4138.56
-3811.44
-3517.56
-3247.87
-2989.7
-2735.84
-2485.28
-2240.1
-2000.91
-1767.07
-1536.4
-1302.41
-1057.4
-806.733
-573.392
-382.593
-244.698
-153.77
-97.6942
-65.7205
-49.3784
-41.3864
-35.2827
-26.225
-12.0356
6.97818
28.9299
51.1395
70.7621
85.3677
93.3766
94.6255
89.6872
79.6272
65.9081
50.076
33.5151
17.3207
2.25537
-11.2398
-22.9499
-32.7943
-40.7773
-46.9531
-51.4105
-54.2592
-55.6207
-55.6249
-54.4107
-52.1263
-48.9314
-44.9985
-40.5128
-35.6672
-30.6731
-25.7342
-21.0423
-16.7662
-13.0323
-9.9087
-7.40006
-5.45658
-3.99447
-2.9183
-2.13816
-1.57871
-1.18144
-0.902843
-0.711052
-0.583925
-0.506423
-0.468008
-9328.17
-9127.9
-8826.77
-8440.29
-8016.91
-7664.78
-7378.65
-7091.84
-6741.98
-6304.16
-5786.09
-5210.58
-4607.69
-4011.94
-3456.96
-2967.65
-2554.19
-2209.86
-1912.3
-1633.07
-1353.54
-1076.15
-821.054
-612.178
-463.371
-373.624
-330.235
-317.586
-319.618
-322.172
-315.539
-295.948
-263.564
-222.364
-178.434
-137.64
-104.1
-79.2873
-62.3286
-51.2031
-43.9531
-39.2859
-36.582
-35.6369
-36.2453
-38.2001
-41.1622
-44.7217
-48.4835
-52.0818
-55.2261
-57.7047
-59.3683
-60.1221
-59.9207
-58.7616
-56.6794
-53.7432
-50.0536
-45.7382
-40.948
-35.8537
-30.6399
-25.4991
-20.6249
-16.2009
-12.3789
-9.24999
-6.82621
-5.04479
-3.79492
-2.95105
-2.39833
-2.04493
-1.8237
-1.68836
-1.60801
-1.56314
-1.54153
-1.53712
8945.7
8937.01
8938.32
8877.22
8713
8443.83
8152.89
7907.58
7689.84
7435.14
7096.86
6662.25
6137.89
5540.22
4891.35
4213.8
3524.3
2834.89
2162.82
1538.6
999.298
572.824
263.048
47.2969
-109.607
-234.148
-335.737
-412.294
-458.574
-471.73
-453.611
-411
-354.054
-292.191
-232.965
-181.628
-140.564
-109.957
-88.264
-73.2483
-62.9276
-55.8986
-51.2694
-48.4408
-47.0825
-46.8694
-47.4875
-48.6217
-49.9868
-51.3393
-52.4692
-53.2019
-53.4014
-52.972
-51.8598
-50.0518
-47.5738
-44.4872
-40.8841
-36.8823
-32.6168
-28.2311
-23.8668
-19.6591
-15.7392
-12.239
-9.27877
-6.93714
-5.22083
-4.06176
-3.34401
-2.941
-2.74263
-2.6661
-2.65507
-2.67398
-2.70196
-2.72802
-2.74678
-2.76045
9212.19
8855.63
8427.67
7883.86
7088.12
6136.37
5159.85
4279.68
3542.43
2933.87
2422.83
1976.69
1566.39
1183.89
860.121
640.616
538.185
523.469
553.14
590.947
612.575
604.042
562.901
496.414
415.792
331.923
253.703
187.443
137.385
104.14
84.5124
74.0569
67.9801
63.1357
58.025
52.1672
45.7285
39.1799
32.6463
26.144
19.6867
13.289
6.96264
0.72752
-5.37731
-11.291
-16.9219
-22.1535
-26.8551
-30.8926
-34.1391
-36.4864
-37.8565
-38.2132
-37.5707
-36.0001
-33.6296
-30.6379
-27.2386
-23.6582
-20.1098
-16.7684
-13.7528
-11.1228
-8.8956
-7.07488
-5.66687
-4.66995
-4.05184
-3.74262
-3.65162
-3.69208
-3.79641
-3.91896
-4.03215
-4.12144
-4.181
-4.21038
-4.21166
-4.1951
-15839.1
-15231.1
-14372.1
-13307.2
-12097.3
-10904.2
-9787.41
-8737.84
-7715.02
-6691.7
-5674.43
-4700.35
-3821.46
-3078.53
-2477.25
-1984.94
-1559.28
-1176.57
-834.393
-535.953
-283.563
-76.9704
85.9634
208.914
296.607
354.244
387.34
401.425
401.486
391.625
374.791
353.053
327.959
300.626
271.875
242.409
212.877
183.861
155.837
129.183
104.184
81.0499
59.9271
40.9042
24.017
9.25308
-3.43534
-14.1173
-22.8702
-29.7721
-34.8971
-38.3154
-40.0988
-40.3333
-39.1371
-36.682
-33.211
-29.0413
-24.5456
-20.1077
-16.0668
-12.6672
-10.0294
-8.1466
-6.91218
-6.17316
-5.78391
-5.63136
-5.63103
-5.71653
-5.83658
-5.95607
-6.05437
-6.12092
-6.1513
-6.14503
-6.10434
-6.03306
-5.9355
-5.82458
7430.1
7175.07
6771.5
6225.61
5587.79
4969.21
4416.39
3941.23
3543.24
3219.95
2968.52
2786.38
2668.95
2603.04
2566.08
2533.18
2487.05
2420.31
2329.33
2209.19
2058.65
1883.59
1694.64
1502.42
1314.72
1136.53
971.238
821.384
688.709
573.888
476.377
394.613
326.47
269.706
222.213
182.105
147.758
117.822
91.2651
67.3843
45.7674
26.2167
8.67735
-6.82391
-20.2451
-31.582
-40.8812
-48.2203
-53.6836
-57.3518
-59.3048
-59.6323
-58.4445
-55.8812
-52.1198
-47.3827
-41.9459
-36.1434
-30.3573
-24.9787
-20.342
-16.658
-13.9763
-12.1959
-11.117
-10.5116
-10.1817
-9.98613
-9.83889
-9.69505
-9.53652
-9.3601
-9.16818
-8.96337
-8.74699
-8.51976
-8.28265
-8.03693
-7.78432
-7.53467
9098.73
8988.14
8758.4
8351.82
7814.31
7271.9
6802.69
6417.37
6074.76
5722.41
5339.44
4936.71
4528.65
4116.1
3691.48
3244.53
2764.38
2248.07
1707.67
1174.45
693.761
304.114
18.9975
-171.288
-287.966
-352.011
-380.256
-383.862
-370.39
-345.7
-314.826
-281.892
-249.749
-219.916
-192.951
-168.95
-147.896
-129.803
-114.755
-102.853
-94.1187
-88.3965
-85.314
-84.3033
-84.6808
-85.7561
-86.9221
-87.7005
-87.743
-86.8131
-84.7684
-81.5537
-77.2006
-71.829
-65.6433
-58.9203
-51.9879
-45.1941
-38.868
-33.2777
-28.5957
-24.8731
-22.0494
-19.9762
-18.4608
-17.3158
-16.3929
-15.5942
-14.8661
-14.1853
-13.5449
-12.9433
-12.3786
-11.8474
-11.3454
-10.8686
-10.4137
-9.97811
-9.55987
-9.16282
-17524.4
-16683.2
-15611.8
-14436.4
-13090.2
-11663
-10190.7
-8757.84
-7490.67
-6476.17
-5699.59
-5100.32
-4639.15
-4293.1
-4037.32
-3844.64
-3687.44
-3542.44
-3389.26
-3211.86
-3002.82
-2767.64
-2516.94
-2260.61
-2003.71
-1748.07
-1498.66
-1265.45
-1058.92
-884.895
-743.053
-628.844
-536.307
-460.136
-396.371
-342.167
-295.663
-255.62
-221.171
-191.666
-166.597
-145.558
-128.222
-114.286
-103.413
-95.187
-89.1086
-84.6183
-81.1493
-78.1806
-75.2823
-72.1447
-68.5916
-64.5786
-60.1751
-55.5346
-50.8532
-46.325
-42.105
-38.2877
-34.9064
-31.9484
-29.3729
-27.1269
-25.1502
-23.3931
-21.8175
-20.397
-19.1133
-17.9513
-16.8975
-15.9392
-15.0646
-14.2632
-13.5255
-12.8436
-12.2108
-11.6209
-11.0686
-10.5512
6410.1
5990.47
5402.43
4633.2
3687.8
2744.78
1914.34
1249.45
763.248
443.721
241.573
89.9878
-59.0728
-226.978
-412.178
-599
-773.616
-927.193
-1051.62
-1136.51
-1171.85
-1150.82
-1074.02
-945.583
-770.86
-563.547
-353.999
-180.127
-65.7015
-12.4198
-6.40741
-28.908
-63.3859
-98.3339
-127.181
-147.182
-158.361
-162.266
-160.952
-156.332
-149.853
-142.539
-135.046
-127.783
-120.994
-114.778
-109.112
-103.884
-98.9323
-94.0931
-89.2288
-84.2469
-79.1098
-73.8386
-68.5067
-63.2232
-58.1067
-53.2589
-48.7495
-44.6121
-40.8516
-37.4554
-34.4008
-31.6611
-29.2081
-27.014
-25.0519
-23.2962
-21.7232
-20.311
-19.0397
-17.8911
-16.8495
-15.901
-15.0338
-14.2377
-13.5043
-12.8257
-12.1947
-11.6039
5706.02
5697.19
5691.22
5689.35
5720.56
5821.8
5958.91
6046.09
6010.51
5845.64
5597.77
5301.36
4957.96
4560.5
4114.16
3638.23
3160.29
2707.95
2300.52
1946.68
1645.38
1389.92
1171.69
982.248
814.175
661.45
518.908
382.431
251.197
130.283
26.0156
-57.363
-118.973
-159.625
-182.278
-190.73
-189.626
-183.093
-174.061
-164.338
-154.858
-145.986
-137.759
-130.062
-122.741
-115.679
-108.821
-102.178
-95.7951
-89.7192
-83.973
-78.545
-73.4002
-68.4995
-63.8178
-59.3499
-55.1068
-51.1044
-47.3542
-43.8601
-40.6208
-37.6327
-34.8896
-32.3809
-30.0912
-28.0029
-26.0985
-24.3624
-22.7808
-21.3408
-20.0303
-18.8375
-17.751
-16.7597
-15.8535
-15.0228
-14.259
-13.5536
-12.8984
-12.2835
-7624.31
-7248.87
-6782.57
-6263.54
-5633.87
-4936.62
-4236.15
-3628.06
-3183.9
-2926.33
-2830.53
-2835.42
-2866.29
-2863.39
-2799.38
-2677.17
-2514.68
-2330.55
-2137.34
-1942.65
-1751.98
-1569.47
-1398.25
-1240.49
-1097.38
-969.142
-855.251
-754.719
-666.305
-588.652
-520.391
-460.324
-407.375
-360.439
-318.777
-281.924
-249.536
-221.335
-197.05
-176.375
-158.945
-144.343
-132.136
-121.915
-113.31
-106.007
-99.7445
-94.3119
-89.5477
-85.3326
-81.5824
-78.2376
-75.2543
-72.5971
-70.2361
-68.1443
-66.2949
-64.659
-63.203
-61.8874
-60.665
-59.4823
-58.2801
-56.9962
-55.5688
-53.9446
-52.0933
-49.9762
-47.5884
-44.9601
-42.1326
-39.1634
-36.1256
-33.0979
-30.1562
-27.3682
-24.7882
-22.4489
-20.3895
-18.5805
-3526.29
-3482.61
-3441.89
-3392.58
-3287.98
-3160.97
-3058.63
-3031.29
-3098.86
-3239.25
-3403.03
-3538.26
-3609.96
-3597.73
-3495.57
-3312.97
-3073.51
-2805.63
-2533.29
-2269.18
-2020.66
-1789.47
-1574.87
-1375.32
-1189.59
-1017.46
-859.766
-717.659
-592.101
-483.729
-392.725
-318.725
-260.548
-216.288
-183.702
-160.509
-144.555
-133.887
-126.826
-122.011
-118.409
-115.301
-112.243
-108.992
-105.45
-101.617
-97.5524
-93.3579
-89.1653
-85.1205
-81.3516
-77.9353
-74.8835
-72.1646
-69.7277
-67.5247
-65.5156
-63.6687
-61.957
-60.355
-58.8354
-57.3673
-55.915
-54.4386
-52.8952
-51.2416
-49.437
-47.4476
-45.2633
-42.8765
-40.2865
-37.5387
-34.6826
-31.7765
-28.8869
-26.085
-23.4402
-21.0134
-18.8624
-17.0013
-5732.41
-5591.62
-5419.12
-5195.85
-4874.63
-4460.77
-3952.99
-3358.6
-2689.6
-1970.25
-1249.93
-602.736
-89.0974
283.09
550.987
754.252
907.843
1007.84
1050.7
1043.27
998.732
929.349
843.57
747.331
645.755
543.077
442.232
345.215
253.618
168.462
90.414
20.1474
-41.5982
-94.1106
-136.841
-169.543
-192.348
-205.776
-210.73
-208.555
-200.762
-188.811
-174.381
-159.036
-143.85
-129.612
-116.735
-105.4
-95.7136
-87.7381
-81.4399
-76.6311
-72.9136
-69.9584
-67.4493
-65.1754
-63.0326
-60.9781
-58.9975
-57.0857
-55.237
-53.4412
-51.6825
-49.9404
-48.1907
-46.4076
-44.5658
-42.6425
-40.6199
-38.4885
-36.2629
-33.9464
-31.5649
-29.1536
-26.7573
-24.4247
-22.2048
-20.1435
-18.2793
-16.6271
7297.11
7175.83
7089.03
7060.39
7046.62
7035.37
6998.33
6919.36
6789.96
6597.55
6322.26
5949.32
5486.09
4962.29
4414.24
3871.17
3355.05
2887.95
2486.16
2146.88
1851.83
1585.99
1347.53
1140.43
965.731
820.361
699.211
596.712
507.654
427.631
353.185
281.953
212.845
145.979
82.2991
23.1471
-30.0102
-75.6965
-112.483
-139.067
-154.928
-160.781
-158.419
-150.732
-140.483
-129.428
-118.41
-107.796
-97.8841
-89.0059
-81.4221
-75.1942
-70.2269
-66.1344
-62.957
-60.35
-58.0733
-56.025
-54.123
-52.3067
-50.5353
-48.782
-47.0298
-45.2671
-43.4859
-41.6797
-39.8435
-37.9729
-36.0652
-34.1203
-32.1425
-30.1396
-28.1279
-26.1257
-24.1577
-22.2516
-20.4353
-18.7345
-17.172
-15.7566
12925.6
12552.5
12062.2
11389.9
10457
9376.1
8230.5
7087.02
5988.23
4955.91
4003.59
3143.41
2386.91
1744.13
1222.35
824.318
543.843
362.929
252.094
180.336
125.682
78.4215
34.8897
-6.73792
-46.5409
-83.881
-117.719
-147.145
-171.805
-192.471
-210.837
-228.195
-244.542
-258.981
-270.551
-278.603
-282.722
-282.5
-277.491
-267.329
-252.101
-232.845
-211.226
-189.128
-168.157
-149.071
-131.994
-116.813
-103.496
-92.1618
-82.9401
-75.684
-70.2434
-66.259
-62.9269
-60.0367
-57.4512
-55.0222
-52.678
-50.3949
-48.1695
-46.0049
-43.9045
-41.8683
-39.8922
-37.969
-36.0892
-34.2429
-32.4213
-30.6181
-28.8306
-27.0596
-25.3107
-23.5933
-21.9199
-20.3056
-18.766
-17.3168
-15.9709
-14.7339
-15269.9
-14750.9
-14128.3
-13436.7
-12600.2
-11548.1
-10210.5
-8622.77
-6936.76
-5353.74
-4019.45
-2979.54
-2214.06
-1686.42
-1356.26
-1172.8
-1079.17
-1028.97
-996.934
-976.599
-967.845
-968.482
-972.184
-971.783
-961.493
-935.624
-891.346
-831.894
-766.154
-703.076
-646.37
-594.821
-546.563
-501.333
-459.742
-421.972
-387.455
-355.155
-323.871
-292.62
-261.14
-230.163
-201.054
-174.854
-152.148
-132.943
-116.903
-103.586
-92.5819
-83.5211
-76.0777
-70.0637
-65.1004
-60.9009
-57.2638
-54.0521
-51.1723
-48.5599
-46.1706
-43.9716
-41.9355
-40.0374
-38.2532
-36.5599
-34.9361
-33.3628
-31.824
-30.3068
-28.8021
-27.3042
-25.8114
-24.3253
-22.8508
-21.3961
-19.9715
-18.5888
-17.2605
-15.9989
-14.8151
-13.7157
-115.818
-255.633
-469.044
-747.76
-1082.08
-1419.25
-1729.53
-1993.14
-2208.98
-2394.68
-2567.44
-2728.06
-2861.55
-2948.98
-2979.93
-2955.73
-2886.55
-2787.12
-2672.31
-2552.6
-2433.88
-2316.15
-2193.48
-2057.19
-1899.64
-1714.06
-1495.53
-1251.98
-1011.93
-808.756
-660.048
-555.937
-480.224
-421.711
-374.632
-335.587
-302.093
-272.368
-245.282
-220.187
-196.793
-175.059
-155.096
-137.037
-120.969
-106.903
-94.7631
-84.4316
-75.7521
-68.5359
-62.5855
-57.6987
-53.6743
-50.3266
-47.4956
-45.0518
-42.8962
-40.9555
-39.1778
-37.5268
-35.9771
-34.5103
-33.1123
-31.7707
-30.474
-29.2111
-27.9709
-26.7438
-25.5216
-24.2988
-23.0723
-21.8416
-20.6096
-19.382
-18.1668
-16.9745
-15.8162
-14.7042
-13.6502
-12.6648
-3170.39
-2813.92
-2321.37
-1772.81
-1183.61
-651.564
-199.232
170.404
459.64
669.233
798.751
850.733
834.034
763.382
656.618
530.295
398.413
272.424
160.795
68.2614
-4.50741
-60.4025
-104.976
-143.868
-180.426
-214.873
-245.332
-270.293
-288.519
-299.212
-301.799
-297.095
-286.331
-271.439
-254.582
-237.385
-220.776
-205.078
-190.238
-176.031
-162.215
-148.635
-135.277
-122.264
-109.813
-98.1676
-87.5353
-78.0449
-69.7413
-62.5957
-56.5262
-51.42
-47.1533
-43.6016
-40.6457
-38.18
-36.1092
-34.349
-32.8258
-31.4774
-30.2532
-29.1147
-28.0355
-26.9994
-25.9979
-25.0254
-24.0765
-23.1435
-22.2165
-21.2851
-20.3403
-19.3766
-18.3923
-17.3898
-16.3759
-15.3601
-14.3547
-13.3734
-12.43
-11.5404
2387.12
2154.58
1857.64
1510.03
1086.18
628.793
172.247
-243.022
-576.257
-795.553
-888.1
-865.167
-754.524
-587.835
-391.641
-184.644
20.9868
217.813
400.75
563.748
696.93
787.916
828.436
819.049
769.785
695.439
608.386
516.956
426.488
340.078
259.37
185.452
118.975
60.5047
10.5073
-30.9117
-63.9696
-89.0595
-106.647
-117.235
-121.427
-120.031
-114.148
-105.128
-94.4094
-83.296
-72.7718
-63.4315
-55.5198
-49.0362
-43.8501
-39.7554
-36.556
-34.0682
-32.1303
-30.6066
-29.3857
-28.3761
-27.5038
-26.7095
-25.9478
-25.187
-24.4082
-23.6045
-22.7781
-21.9378
-21.0945
-20.2582
-19.4348
-18.6247
-17.8232
-17.0218
-16.2115
-15.3855
-14.5412
-13.6819
-12.8155
-11.9544
-11.1124
-10.3096
-172.462
102.739
486.936
898.38
1315.28
1709.19
2094.31
2466.04
2797.8
3053.73
3207.03
3250.53
3193.19
3053.39
2852.18
2609.84
2344.38
2070.84
1800.61
1541.23
1297.04
1065.57
847.199
643.972
459.876
299.879
166.756
61.0073
-19.9309
-79.8761
-122.339
-150.144
-165.601
-170.783
-167.632
-157.952
-143.472
-125.909
-106.908
-87.8942
-70.0172
-54.1645
-40.9305
-30.5898
-23.1171
-18.2463
-15.5466
-14.5029
-14.5927
-15.3534
-16.4245
-17.5593
-18.6129
-19.5151
-20.2432
-20.7999
-21.1976
-21.4494
-21.5643
-21.5467
-21.3981
-21.1201
-20.7177
-20.202
-19.5912
-18.9092
-18.1832
-17.4392
-16.6982
-15.9736
-15.27
-14.5838
-13.9059
-13.225
-12.5314
-11.8203
-11.0932
-10.3578
-9.62539
-8.91724
6396.64
6249.5
6081.62
5885.36
5589.28
5253.62
4895.07
4499.98
4041.57
3528.82
3007.18
2507.29
2032.73
1585.67
1176.89
818.402
518.591
282.271
110.44
0.00739422
-57.4893
-76.4872
-72.0041
-55.5761
-33.5677
-9.61222
14.5311
36.9986
54.9744
65.3461
66.4793
59.2638
46.6123
32.1287
18.843
8.5687
1.87092
-1.6296
-2.90118
-3.17157
-3.51639
-4.57461
-6.38188
-8.6133
-10.8254
-12.6669
-13.9826
-14.8014
-15.261
-15.5262
-15.732
-15.9595
-16.2399
-16.5695
-16.9255
-17.2778
-17.5957
-17.851
-18.0203
-18.0845
-18.0302
-17.8497
-17.5423
-17.1152
-16.5835
-15.9697
-15.3017
-14.609
-13.9185
-13.2508
-12.6163
-12.0155
-11.4399
-10.8761
-10.3104
-9.73306
-9.14041
-8.53548
-7.92549
-7.32895
337.566
290.516
253.68
193.748
18.7143
-341.871
-902.211
-1577.55
-2187.76
-2567.47
-2695.65
-2670.45
-2585.84
-2479.48
-2360.29
-2234.32
-2107.28
-1982.27
-1860.23
-1738.72
-1614.34
-1482.93
-1341.92
-1190.29
-1028.49
-858.814
-686.264
-518.788
-366.077
-236.779
-135.739
-62.9953
-14.8123
14.2854
29.8346
36.5507
37.9959
36.626
33.9492
30.756
27.3842
23.9308
20.4125
16.8203
13.1571
9.45447
5.78217
2.24317
-1.04914
-3.99911
-6.55046
-8.69068
-10.4418
-11.8456
-12.9499
-13.7985
-14.4265
-14.8599
-15.1169
-15.2106
-15.1518
-14.9512
-14.6215
-14.1789
-13.6436
-13.04
-12.3948
-11.7354
-11.0864
-10.4671
-9.8887
-9.3533
-8.85477
-8.38132
-7.91949
-7.45805
-6.99067
-6.51661
-6.0393
-5.57251
-9029.73
-8519.72
-7864.09
-7173.06
-6468.89
-5829.97
-5250.45
-4690.68
-4092.58
-3429.62
-2740.23
-2098.01
-1554.23
-1117.42
-769.627
-485.432
-244.789
-39.6906
129.624
260.539
354.347
415.773
451.232
468.689
477.571
485.812
495.066
499.5
490.471
463.009
418.662
363.614
305.082
248.88
198.651
155.995
120.963
92.7249
70.1726
52.271
38.1826
27.2484
18.9252
12.7245
8.18751
4.89015
2.45505
0.555893
-1.07579
-2.63436
-4.22306
-5.85569
-7.48248
-9.026
-10.4103
-11.5771
-12.4906
-13.1362
-13.5168
-13.6487
-13.5577
-13.275
-12.8349
-12.2729
-11.6239
-10.9215
-10.1968
-9.47724
-8.78509
-8.13641
-7.53997
-6.99725
-6.50349
-6.04978
-5.6259
-5.22302
-4.8354
-4.46083
-4.10063
-3.76446
11523.1
11398.8
11153
10710
10067.9
9355.69
8657.33
8027.17
7487.41
7026.48
6609.8
6197.12
5755.51
5265.74
4722.88
4128.64
3485.65
2799.58
2083.55
1358.89
652.421
-5.77353
-581.216
-1035.36
-1335.18
-1471.88
-1469.97
-1375.21
-1232.12
-1071.83
-912.6
-764.242
-631.667
-516.707
-419.211
-337.973
-271.464
-218.164
-176.479
-144.63
-120.743
-103.043
-89.9254
-80.0616
-72.3698
-65.9807
-60.2438
-54.7724
-49.4597
-44.4078
-39.7884
-35.718
-32.2114
-29.2032
-26.5969
-24.3008
-22.2439
-20.3759
-18.6618
-17.0772
-15.6039
-14.2287
-12.9419
-11.7371
-10.6105
-9.56079
-8.58834
-7.69426
-6.87941
-6.1433
-5.48335
-4.89465
-4.3704
-3.90286
-3.48481
-3.11063
-2.77669
-2.4815
-2.22795
-2.02405
-6253.88
-6310.25
-6394.53
-6474.73
-6510.1
-6455.94
-6296.5
-6039.49
-5700.55
-5295.89
-4843.59
-4367.32
-3895.31
-3456.01
-3071.84
-2753.86
-2499.18
-2292.33
-2111.53
-1936.89
-1759.93
-1576.77
-1384.16
-1181.46
-974.887
-777.659
-604.826
-465.764
-361.918
-288.491
-238.002
-203.012
-177.136
-155.162
-133.539
-111.262
-90.0583
-72.968
-62.1246
-57.4574
-57.1092
-58.6787
-60.1929
-60.5475
-59.4625
-57.1565
-54.0256
-50.4191
-46.6268
-42.8725
-39.2816
-35.9081
-32.7772
-29.8682
-27.1748
-24.6764
-22.3501
-20.1759
-18.1389
-16.2294
-14.442
-12.7747
-11.2271
-9.79945
-8.49165
-7.30264
-6.23011
-5.27029
-4.41784
-3.66673
-3.00938
-2.43787
-1.94433
-1.52165
-1.16402
-0.867189
-0.627974
-0.445484
-0.324229
-0.271737
-7793.49
-7426.18
-6916.39
-6307.5
-5547.86
-4733.86
-3917.7
-3147.3
-2456.57
-1865.11
-1379.13
-988.816
-675.818
-423.483
-223.259
-77.9785
6.1684
42.8222
68.6043
99.6572
111.874
85.1139
27.6255
-43.7566
-117.683
-188.337
-252.837
-309.971
-359.711
-402.639
-439.091
-468.368
-488.423
-495.234
-485.277
-458.038
-419.16
-377.315
-339.197
-306.945
-279.346
-254.163
-229.77
-205.212
-180.724
-157.085
-135.168
-115.62
-98.7037
-84.3696
-72.3335
-62.2007
-53.5905
-46.19
-39.7636
-34.1393
-29.1924
-24.8298
-20.9804
-17.5878
-14.6051
-11.9924
-9.71392
-7.73719
-6.03208
-4.57043
-3.32592
-2.27402
-1.39209
-0.659511
-0.0576956
0.429756
0.816995
1.1159
1.33625
1.48613
1.5728
1.60082
1.57076
1.47383
14402.4
14408.8
14305.4
13973.8
13415
12732.3
11998.7
11274.6
10587.3
9895.93
9138.37
8296.69
7401.77
6489.05
5579.57
4679.24
3772.21
2882.28
2134.27
1623.29
1287.37
1012.28
745.705
486.214
245.412
34.0195
-142.079
-282.608
-390.938
-471.475
-527.872
-562.203
-575.326
-567.557
-540.373
-499.284
-451.742
-404.802
-362.587
-325.905
-293.638
-264.267
-236.669
-210.649
-186.16
-163.287
-142.173
-122.941
-105.646
-90.2655
-76.7119
-64.8526
-54.5309
-45.5839
-37.8529
-31.1906
-25.4635
-20.5524
-16.3523
-12.771
-9.72786
-7.1522
-4.98225
-3.16401
-1.65026
-0.399784
0.623326
1.45032
2.10818
2.62035
3.00682
3.28477
3.46889
3.57178
3.6043
3.57606
3.4961
3.37125
3.20675
2.99152
-14049.9
-13069
-11874.3
-10780.7
-9730.19
-8774.46
-7877.62
-7027.15
-6225.99
-5488.52
-4833.51
-4271.23
-3794.57
-3386.2
-3032.73
-2732.59
-2498.51
-2344.49
-2258.68
-2199.49
-2123.31
-2011.31
-1871.27
-1725.69
-1594.16
-1481.4
-1378.59
-1275.38
-1167.81
-1058.1
-951.59
-852.386
-762.041
-680.691
-607.569
-541.796
-482.668
-429.689
-382.063
-339.044
-299.96
-264.348
-231.844
-202.18
-175.167
-150.668
-128.585
-108.829
-91.303
-75.8939
-62.4666
-50.8675
-40.9292
-32.4767
-25.3355
-19.3376
-14.3271
-10.1637
-6.72353
-3.89882
-1.59632
0.264533
1.75335
2.9302
3.84663
4.54655
5.06699
5.43887
5.68772
5.83443
5.89596
5.88601
5.8156
5.69367
5.5276
5.32367
5.08774
4.82414
4.53806
4.21691
-581.822
-1145.72
-1777.61
-2366.9
-2958.64
-3521.03
-4056.25
-4541.31
-4954.75
-5283.46
-5517.26
-5649.19
-5702.73
-5749.61
-5845.36
-5961.75
-6020.9
-5971.14
-5806.52
-5549.35
-5216.52
-4795.19
-4253.81
-3606.59
-2953.92
-2405.95
-1992.9
-1680.97
-1432.36
-1227.75
-1057.24
-914.102
-792.783
-688.705
-598.551
-519.813
-450.451
-389.361
-335.721
-288.65
-247.22
-210.599
-178.143
-149.34
-123.788
-101.179
-81.2756
-63.8907
-48.8677
-36.0612
-25.3214
-16.4815
-9.35285
-3.72609
0.619717
3.90378
6.32985
8.07732
9.29561
10.1044
10.5982
10.8513
10.9221
10.8566
10.6913
10.4546
10.1681
9.84797
9.50574
9.1493
8.78374
8.41205
8.03563
7.65481
7.26922
6.87804
6.48037
6.07491
5.66336
5.22306
867.745
1331.77
1990.69
2661.97
3310.72
3890.63
4434.55
4901.35
5232.8
5444.78
5613.53
5732.55
5662.29
5341.64
4895.19
4449.77
4026.48
3608.94
3182.57
2753.61
2346.85
1983.05
1662.71
1369.72
1092.47
838.246
622.267
450.127
316.383
212.292
130.511
66.1875
16.2436
-21.6161
-49.4088
-68.0463
-79.0594
-83.4492
-82.5462
-77.6266
-69.7286
-59.7341
-48.4469
-36.565
-24.6771
-13.2691
-2.73102
6.63629
14.6206
21.0963
26.0251
29.4542
31.5093
32.3792
32.2907
31.4818
30.1754
28.5627
26.7948
24.9825
23.2013
21.499
19.9027
18.4257
17.0715
15.8377
14.7176
13.7025
12.7819
11.9449
11.1809
10.4792
9.83003
9.22425
8.65342
8.1095
7.58494
7.07251
6.56433
6.01773
-15.6569
-12.6796
-10.4324
-8.62732
-7.32982
-6.34381
-5.5306
-4.84108
-4.24869
-3.73584
-3.29112
-2.90553
-2.57106
-2.28064
-2.02818
-1.80839
-1.61666
-1.44905
-1.30221
-1.17324
-1.05969
-0.959463
-0.870791
-0.792171
-0.722318
-0.660134
-0.604666
-0.555074
-0.510638
-0.470757
-0.434902
-0.402595
-0.373423
-0.347042
-0.323143
-0.301449
-0.281719
-0.263753
-0.247373
-0.232411
-0.218711
-0.206141
-0.194598
-0.183984
-0.174202
-0.165181
-0.156867
-0.149201
-0.142112
-0.13554
-0.12945
-0.123813
-0.118591
-0.113747
-0.109254
-0.105089
-0.101217
-0.0975998
-0.0942131
-0.0910459
-0.0880825
-0.085301
-0.0826882
-0.080246
-0.0779731
-0.0758505
-0.0738523
-0.0719695
-0.0702115
-0.0685857
-0.0670841
-0.0656945
-0.0644144
-0.0632441
-0.0621715
-0.0611757
-0.0602454
-0.0593851
-0.0585951
-0.0578557
-0.0571391
-0.0564346
-0.0557557
-0.0551183
-0.0545217
-0.0539569
-0.0534236
-0.0529303
-0.0524751
-0.0520379
-0.0516065
-0.0511862
-0.0507935
-0.0504327
-0.0500874
-0.0497394
-0.0493902
-0.0490562
-0.0487415
-0.0484263
-0.0480876
-0.0477244
-0.0473609
-0.0470225
-0.0467149
-0.0464301
-0.0461673
-0.0459388
-0.0457505
-0.0455844
-0.0454056
-0.045191
-0.0449471
-0.0446984
-0.0444583
-0.044215
-0.0439453
-0.0436375
-0.0433001
-0.0429497
-0.0425966
-0.0422445
-0.0419003
-0.0415775
-0.0412852
-0.0410153
-0.0407432
-0.0404432
-0.0401054
-0.0397363
-0.0393473
-0.0389448
-0.0385303
-0.0381084
-0.0376871
-0.0372682
-0.0368381
-0.0363738
-0.0358615
-0.0353131
-0.0347622
-0.0342402
-0.0337521
-0.0332717
-0.0327609
-0.0321968
-0.0315857
-0.0309546
-0.0303316
-0.0297313
-0.0291537
-0.0285925
-0.0280424
-0.0274982
-0.0269524
-0.0263955
-0.0258227
-0.0252394