/*--------------------------------*- C++ -*----------------------------------*\
| =========                 |                                                 |
| \\      /  F ield         | OpenFOAM: The Open Source CFD Toolbox           |
|  \\    /   O peration     | Version:  2012                                  |
|   \\  /    A nd           | Website:  www.openfoam.com                      |
|    \\/     M anipulation  |                                                 |
\*---------------------------------------------------------------------------*/
FoamFile
{
    version     2.0;
    format      ascii;
    class       surfaceScalarField;
    location    "0.01";
    object      phi;
}
// * * * * * * * * * * * * * * * * * * * * * * * * * * * * * * * * * * * * * //

dimensions      [0 3 -1 0 0 0 0];
oriented        oriented;


internalField   nonuniform List<scalar> 
84340
(
-0.000282503
0.000444412
-0.000161909
-0.000633952
0.000913329
-0.000561879
-0.00112127
0.00119233
-0.000705016
-0.00204141
0.00137805
-0.000457909
-0.00341694
0.00150791
-0.000132383
-0.00506862
0.00158996
6.1723e-05
-0.00683403
0.00164057
0.000124836
-0.00858482
0.00164515
0.000105638
-0.0101909
0.00152687
7.9252e-05
-0.0114748
0.0010724
0.000211442
-0.0122183
0.000182461
0.000561019
-0.0122351
-0.000474476
0.000491343
-0.0115671
-0.000229969
-0.000438082
-0.0104832
0.000261841
-0.00134569
-0.0091776
0.000311382
-0.00161702
-0.0077927
0.000126978
-0.00151188
-0.00643819
-5.64229e-05
-0.00129809
-0.00518762
-0.000196739
-0.00105383
-0.00409041
-0.000286577
-0.000810638
-0.00315661
-0.000329568
-0.000604227
-0.0023667
-0.000329499
-0.000460412
-0.00169802
-0.000293901
-0.000374777
-0.00114276
-0.000238754
-0.000316503
-0.000707454
-0.000184052
-0.000251256
-0.000397579
-0.000142375
-0.000167501
-0.000172781
-0.000154925
-6.98724e-05
-2.93936e-06
-0.000201028
3.11867e-05
0.000150031
-0.000280365
0.000127395
0.000320607
-0.000386164
0.000215587
0.000511448
-0.000489103
0.000298262
0.000725668
-0.0005886
0.00037438
0.000959115
-0.000682929
0.000449482
0.00120658
-0.000770978
0.000523509
0.00146257
-0.000851589
0.000595605
0.00173248
-0.000922971
0.000653054
0.00199994
-0.000983769
0.000716313
0.00225547
-0.00103254
0.000777014
0.00249169
-0.0010681
0.000831882
0.00270212
-0.00108974
0.000879306
0.00288079
-0.00109729
0.000918622
0.00302249
-0.00109122
0.000949526
0.00312308
-0.00107253
0.000971933
0.00317987
-0.00104282
0.000986028
0.0031919
-0.00100422
0.000992197
0.00316017
-0.000959262
0.000990987
0.00308769
-0.000910502
0.000982986
0.00297912
-0.000860136
0.000968703
0.00284025
-0.000809597
0.000948466
0.00267722
-0.000759365
0.000922395
0.00249585
-0.000709142
0.00089051
0.00230122
-0.000658381
0.000853019
0.00209758
-0.000607088
0.000810723
0.00188877
-0.000556597
0.000765404
0.00167877
-0.000509937
0.000719938
0.00147222
-0.0004714
0.000677956
0.00127442
-0.000445241
0.000643043
0.00109072
-0.000434081
0.000617777
0.000925565
-0.000437889
0.000603044
0.000781727
-0.0004541
0.000597939
0.000660121
-0.000478691
0.000600297
0.000560129
-0.000507532
0.000607524
0.00048016
-0.000537357
0.000617326
0.000418173
-0.00056611
0.000628097
0.000372038
-0.000592815
0.000638951
0.000339722
-0.000617231
0.000649547
0.000319372
-0.00063952
0.000659869
0.000309341
-0.000660009
0.00067004
0.00030818
-0.000679051
0.000680211
0.000314632
-0.000696962
0.00069051
0.000327612
-0.000714004
0.000701024
0.00034619
-0.000730383
0.000711804
0.000369576
-0.000746265
0.000722878
0.000397097
-0.000761785
0.000734263
0.000428182
-0.000777062
0.000745977
0.000462337
-0.000792204
0.000758049
0.000499129
-0.000807328
0.000770537
0.000538138
-0.000822579
0.00078357
0.000578878
-0.000838175
0.000797435
0.000620734
-0.000854554
0.000812698
-0.000873369
0.000830383
0.00066372
0.000271891
0.000172522
0.000490951
0.000694269
0.000507935
0.00117535
0.000523613
0.00136237
0.000717328
0.0013142
0.00111743
0.00118986
0.00167461
0.00108339
0.00230975
0.00101002
0.00288813
0.000948485
0.00309628
0.000864254
0.0025724
0.000706345
0.00164212
0.000455808
0.0012369
0.000175243
0.00154326
-4.45125e-05
0.00204671
-0.000192073
0.00246701
-0.000293319
0.00276515
-0.000354564
0.00294323
-0.000374823
0.00302021
-0.000363557
0.00302854
-0.000337899
0.00301223
-0.000313187
0.00301744
-0.000299111
0.00308192
-0.000303236
0.00322986
-0.000331989
0.00347631
-0.00038882
0.00379282
-0.000471438
0.00416188
-0.000570092
0.00455467
-0.000673154
0.00493835
-0.000769843
0.00530341
-0.000854166
0.00564076
-0.000925951
0.00594544
-0.000987608
0.00621504
-0.00104058
0.00644746
-0.00108401
0.00663977
-0.00111528
0.00678737
-0.00113137
0.00688483
-0.00113
0.00692687
-0.00111014
0.00690911
-0.00107198
0.00682849
-0.00101667
0.00668322
-0.000945959
0.00647301
-0.000862309
0.00619926
-0.000769072
0.00586566
-0.000670626
0.00547876
-0.000572362
0.00504828
-0.000480026
0.00458679
-0.000398645
0.00410872
-0.000331523
0.00362908
-0.00027972
0.00316205
-0.000242112
0.00271984
-0.000216175
0.002312
-0.000199252
0.00194509
-0.000189687
0.00162276
-0.000187602
0.00134585
-0.000194495
0.00111266
-0.000212043
0.000919371
-0.000240796
0.000760955
-0.000279474
0.000632084
-0.000325229
0.00052795
-0.000374558
0.000444683
-0.000424266
0.000379351
-0.000472025
0.000329718
-0.000516478
0.000293967
-0.000557064
0.000270492
-0.000593756
0.000257803
-0.000626831
0.000254497
-0.000656703
0.000259271
-0.000683825
0.000270939
-0.00070863
0.000288445
-0.000731509
0.000310868
-0.000752805
0.000337418
-0.000772815
0.000367428
-0.000791796
0.00040034
-0.000809974
0.00043569
-0.000827554
0.0004731
-0.000844738
0.000512268
-0.000861746
0.000552991
-0.000878898
0.000595262
-0.000896825
-0.000917242
0.000639135
0.000119485
5.30367e-05
0.000426553
0.000387201
0.000951612
0.000650289
0.00168323
0.000630758
0.00256145
0.000435973
0.00352728
0.00022403
0.00453529
7.53826e-05
0.00554639
-1.08537e-06
0.0065297
-3.48204e-05
0.00743821
-4.42586e-05
0.00820996
-6.54045e-05
0.00878112
-0.000115357
0.00913768
-0.000181315
0.00936214
-0.000268969
0.00953801
-0.000367947
0.00971864
-0.000473942
0.0099453
-0.000581231
0.0102477
-0.000677201
0.010621
-0.000736917
0.0110298
-0.000746699
0.0114385
-0.000721853
0.0118247
-0.000685307
0.012178
-0.000656573
0.0124844
-0.000638337
0.0127131
-0.000617578
0.0128121
-0.000570345
0.0127268
-0.000484836
0.0124282
-0.000374573
0.0119247
-0.000266354
0.01128
-0.000209409
0.0105782
-0.000224192
0.00987182
-0.000281221
0.00916724
-0.000335989
0.00845031
-0.000367078
0.00771229
-0.000377263
0.00695675
-0.000375827
0.00619496
-0.000368212
0.00544048
-0.000355662
0.00470625
-0.000337749
0.0040036
-0.000314024
0.0033422
-0.000284559
0.00272969
-0.00024979
0.00217172
-0.000211108
0.00167214
-0.000171043
0.00123268
-0.000132904
0.000853076
-0.000100422
0.000531426
-7.69964e-05
0.000264901
-6.49982e-05
5.03767e-05
-6.51956e-05
-0.000115712
-7.6023e-05
-0.000236507
-9.53799e-05
-0.000315165
-0.000120594
-0.000355716
-0.000149136
-0.000363223
-0.000180096
-0.000344083
-0.000213634
-0.000305905
-0.000250221
-0.000256716
-0.000289985
-0.000203719
-0.000332472
-0.000152226
-0.000376722
-0.000105251
-0.000421533
-6.37698e-05
-0.000465747
-2.73614e-05
-0.000508433
5.12131e-06
-0.000548961
3.50407e-05
-0.000586983
6.36695e-05
-0.000622385
9.20489e-05
-0.00065521
0.000120954
-0.000685609
0.000150909
-0.00071378
0.000182225
-0.000739947
0.000215053
-0.000764337
0.000249422
-0.000787174
0.000285281
-0.000808674
0.000322529
-0.000829044
0.000361039
-0.000848483
0.000400674
-0.000867189
0.000441299
-0.000885363
0.000482796
-0.000903243
0.00052507
-0.000921172
0.000568035
-0.00093979
-0.000960673
0.000611466
-0.000132497
0.000185534
9.51776e-05
0.000159526
0.000911728
-0.000166261
0.00205147
-0.000508986
0.0032092
-0.000721757
0.00423567
-0.000802434
0.0050636
-0.000752548
0.00566792
-0.000605408
0.00605856
-0.000425456
0.00627851
-0.000264215
0.00637501
-0.000161901
0.00639573
-0.000136079
0.00640597
-0.000191552
0.00646465
-0.000327648
0.00664065
-0.000543955
0.00699995
-0.000833232
0.00757497
-0.00115626
0.0083208
-0.00142303
0.00908268
-0.0014988
0.00961216
-0.00127618
0.00969015
-0.000799846
0.00924245
-0.000237597
0.00831727
0.000268603
0.00704744
0.000631487
0.00557511
0.000854755
0.00402732
0.000977446
0.00251114
0.00103135
0.00111194
0.00102463
-9.10823e-05
0.000936667
-0.00104293
0.000742439
-0.00172903
0.000461912
-0.00217662
0.000166368
-0.002438
-7.4608e-05
-0.00256876
-0.000236325
-0.00261521
-0.000330808
-0.00261125
-0.000379791
-0.00257967
-0.000399793
-0.00253444
-0.000400895
-0.00248269
-0.000389499
-0.00242647
-0.000370244
-0.00236432
-0.000346708
-0.00229252
-0.000321584
-0.0022069
-0.000296728
-0.00210445
-0.000273494
-0.00198437
-0.000252988
-0.00184865
-0.000236135
-0.00170194
-0.000223709
-0.00155064
-0.000216293
-0.00140164
-0.000214202
-0.00126023
-0.000217435
-0.00112975
-0.000225854
-0.00101109
-0.000239256
-0.000902797
-0.00025743
-0.000802714
-0.000280179
-0.000709111
-0.000307237
-0.000621164
-0.000338168
-0.000538819
-0.00037233
-0.000462374
-0.000408918
-0.000392048
-0.000447048
-0.000327725
-0.000485856
-0.000268907
-0.000524565
-0.000214801
-0.000562539
-0.000164467
-0.000599295
-0.000116954
-0.000634495
-7.14051e-05
-0.000667934
-2.71093e-05
-0.000699506
1.64709e-05
-0.000729189
5.97162e-05
-0.000757025
0.000102872
-0.000783103
0.000146083
-0.000807548
0.000189417
-0.000830508
0.000232895
-0.000852151
0.000276505
-0.000872654
0.000320222
-0.0008922
0.000364013
-0.00091098
0.00040785
-0.0009292
0.000451708
-0.000947101
0.000495567
-0.000965031
0.000539395
-0.000983618
-0.00100438
0.000583107
0.000196644
-1.111e-05
0.000681903
-0.000325734
0.00132626
-0.000810612
0.00197459
-0.00115732
0.00248807
-0.00123524
0.00276296
-0.00107732
0.00276297
-0.00075256
0.00251715
-0.000359587
0.00208178
9.91718e-06
0.00153715
0.000280415
0.0009477
0.000427548
0.000359757
0.000451863
-0.000180164
0.000348369
-0.000610322
0.00010251
-0.000871971
-0.000282306
-0.000956391
-0.000748812
-0.000927289
-0.00118536
-0.000883402
-0.00146692
-0.000901569
-0.00148063
-0.000994199
-0.00118355
-0.00118341
-0.000610634
-0.00147145
5.0443e-05
-0.00180262
0.000599772
-0.0021121
0.000940967
-0.00234014
0.00108279
-0.00243792
0.00107523
-0.00237056
0.000963985
-0.0021273
0.000781368
-0.00174695
0.000556316
-0.00132631
0.000321795
-0.000960008
9.56136e-05
-0.000703275
-9.03643e-05
-0.000573237
-0.000204646
-0.000546494
-0.000263068
-0.000593162
-0.000284141
-0.000687988
-0.000284964
-0.000810394
-0.000277387
-0.000943824
-0.000267465
-0.00107587
-0.000257454
-0.00119824
-0.000247868
-0.00130593
-0.00023902
-0.0013961
-0.000231421
-0.00146716
-0.000225661
-0.0015184
-0.000222257
-0.00154978
-0.000221611
-0.00156187
-0.00022404
-0.00155578
-0.000229803
-0.00153299
-0.000239078
-0.00149526
-0.000251931
-0.00144439
-0.000268309
-0.00138218
-0.00028806
-0.00131047
-0.000310967
-0.00123112
-0.000336781
-0.00114607
-0.000365229
-0.0010573
-0.000396006
-0.000966723
-0.000428749
-0.000876018
-0.000463036
-0.000786538
-0.000498398
-0.000699245
-0.000534341
-0.000614733
-0.000570368
-0.000533289
-0.00060601
-0.000454983
-0.000640845
-0.000379762
-0.000674516
-0.000307512
-0.000706745
-0.000238105
-0.00073734
-0.000171416
-0.000766196
-0.000107316
-0.000793289
-4.56754e-05
-0.000818667
1.36491e-05
-0.000842428
7.08116e-05
-0.00086471
0.000125977
-0.000885673
0.000179313
-0.000905487
0.000230986
-0.000924328
0.000281157
-0.000942371
0.000329973
-0.000959796
0.00037757
-0.000976796
0.000424067
-0.000993598
0.000469567
-0.00101053
0.000514145
-0.0010282
-0.00104803
0.000557788
0.000423017
-0.000434127
0.00101917
-0.000921883
0.00133126
-0.00112271
0.00129459
-0.00112065
0.0010207
-0.000961354
0.000614265
-0.000670883
0.000171814
-0.000310109
-0.000209477
2.17038e-05
-0.000450365
0.000250805
-0.00054081
0.00037086
-0.000537812
0.000424549
-0.000538063
0.000452114
-0.000639041
0.000449348
-0.000914178
0.000377647
-0.00140347
0.000206989
-0.00213518
-1.71081e-05
-0.00307837
-0.000242168
-0.00413005
-0.00041523
-0.00510026
-0.000510422
-0.00576804
-0.000515779
-0.00595982
-0.000418851
-0.00566849
-0.000240886
-0.00503401
-3.47025e-05
-0.00423667
0.000143622
-0.00341083
0.000256946
-0.00263131
0.000295718
-0.00193923
0.000271904
-0.00136417
0.000206306
-0.000928719
0.000120867
-0.000642556
3.56326e-05
-0.00051442
-3.25218e-05
-0.000532218
-7.2566e-05
-0.000648258
-8.86067e-05
-0.000826032
-8.52933e-05
-0.00103313
-7.70382e-05
-0.00124394
-7.41617e-05
-0.00143976
-8.15638e-05
-0.00160868
-9.85407e-05
-0.00174472
-0.000121421
-0.00184634
-0.000146251
-0.00191504
-0.000170312
-0.00195409
-0.000192375
-0.00196746
-0.000212286
-0.00195924
-0.000230484
-0.00193319
-0.000247657
-0.00189268
-0.000264548
-0.00184064
-0.000281849
-0.00177955
-0.000300162
-0.00171151
-0.000319979
-0.00163815
-0.00034166
-0.00156077
-0.000365446
-0.00148028
-0.000391456
-0.00139736
-0.0004197
-0.00131251
-0.000450078
-0.00122613
-0.000482388
-0.00113855
-0.000516333
-0.00105005
-0.000551532
-0.000960918
-0.00058753
-0.000871431
-0.000623827
-0.000781907
-0.000659893
-0.000692712
-0.000695205
-0.000604279
-0.000729278
-0.000517092
-0.000761702
-0.000431669
-0.000792168
-0.000348519
-0.00082049
-0.000268101
-0.000846614
-0.000190784
-0.000870606
-0.000116822
-0.00089263
-4.63375e-05
-0.000912913
2.06669e-05
-0.000931715
8.42887e-05
-0.000949296
0.000144702
-0.000965901
0.000202127
-0.000981753
0.000256808
-0.000997051
0.000308994
-0.00101198
0.000358929
-0.00102673
0.000406842
-0.00104151
0.000452933
-0.00105662
0.000497358
-0.00107262
-0.00109082
0.000540148
-0.000246402
-0.000187726
-0.000784591
-0.000383694
-0.00156492
-0.00034238
-0.00247094
-0.000214624
-0.00331821
-0.000114085
-0.00396171
-2.7381e-05
-0.00431957
4.77446e-05
-0.00440291
0.000105049
-0.0043064
0.000154293
-0.00416484
0.000229303
-0.00409527
0.000354973
-0.00414683
0.000503679
-0.00430686
0.000609376
-0.00456464
0.000635424
-0.00495325
0.0005956
-0.00545671
0.000486351
-0.00603018
0.000331306
-0.00658239
0.000136981
-0.0070312
-6.1619e-05
-0.00730685
-0.000240127
-0.00735267
-0.000373027
-0.00714681
-0.000446752
-0.00671486
-0.00046665
-0.00611883
-0.000452405
-0.00543585
-0.000426038
-0.00474014
-0.000399989
-0.00409219
-0.000376046
-0.0035347
-0.000351183
-0.00309479
-0.000319048
-0.00277867
-0.000280483
-0.0025717
-0.000239494
-0.00244301
-0.00020126
-0.00236058
-0.000171034
-0.0022935
-0.000152368
-0.00222468
-0.000145858
-0.0021535
-0.000145341
-0.00208305
-0.000152022
-0.0020216
-0.000159982
-0.00197161
-0.00017142
-0.00193236
-0.000185493
-0.00190203
-0.000200649
-0.00187798
-0.000216422
-0.00185747
-0.000232792
-0.00183802
-0.000249934
-0.00181757
-0.000268109
-0.00179452
-0.000287602
-0.00176767
-0.000308691
-0.00173621
-0.000331625
-0.00169958
-0.000356613
-0.00165742
-0.000383815
-0.00160954
-0.00041333
-0.00155581
-0.000445181
-0.00149621
-0.000479306
-0.00143073
-0.00051555
-0.00135947
-0.000553651
-0.00128257
-0.000593238
-0.00120027
-0.00063383
-0.00111295
-0.000674848
-0.00102114
-0.000715634
-0.000925557
-0.000755479
-0.000827088
-0.000793674
-0.000726812
-0.000829555
-0.000625944
-0.00086257
-0.000525779
-0.000892333
-0.000427603
-0.000918667
-0.00033259
-0.000941628
-0.000241709
-0.000961486
-0.000155657
-0.000978682
-7.48246e-05
-0.000993746
6.84996e-07
-0.00100722
7.1007e-05
-0.00101962
0.000136441
-0.00103134
0.000197386
-0.0010427
0.000254279
-0.00105394
0.00030756
-0.00106526
0.000357642
-0.00107681
0.000404902
-0.00108877
0.00044966
-0.00110138
0.000492158
-0.00111512
-0.00113112
0.000532458
-0.000672481
0.000484755
-0.00217875
0.00112257
-0.00395849
0.00143736
-0.0055394
0.00136629
-0.00664267
0.000989187
-0.00718045
0.000510394
-0.00717167
3.89641e-05
-0.00669019
-0.000376428
-0.00584284
-0.000693054
-0.00474951
-0.000864026
-0.00351695
-0.000877593
-0.00222477
-0.000788499
-0.000937711
-0.000677684
0.000297431
-0.000599718
0.00143939
-0.000546358
0.00242086
-0.000495122
0.00319599
-0.000443817
0.00373482
-0.000401858
0.00405063
-0.000377427
0.00417874
-0.000368237
0.00416086
-0.000355144
0.00402918
-0.000315069
0.00380853
-0.000245999
0.00351251
-0.000156387
0.00313691
-5.0442e-05
0.00266869
6.82366e-05
0.00210198
0.000190664
0.00145074
0.000300056
0.000764263
0.000367426
9.60363e-05
0.000387744
-0.000508172
0.000364714
-0.00101719
0.000307755
-0.00141676
0.000228541
-0.0017077
0.000138571
-0.00190196
4.84034e-05
-0.00201433
-3.29788e-05
-0.0020634
-0.000102952
-0.00206631
-0.000157063
-0.00204032
-0.000197419
-0.00199924
-0.000226566
-0.00195224
-0.000247657
-0.00190487
-0.000263789
-0.00186013
-0.000277528
-0.00181919
-0.000290877
-0.001782
-0.000305299
-0.00174781
-0.000321792
-0.0017155
-0.000341004
-0.00168379
-0.000363333
-0.00165139
-0.000389016
-0.00161703
-0.000418176
-0.00157951
-0.000450847
-0.00153773
-0.000486964
-0.00149067
-0.000526358
-0.00143749
-0.000568739
-0.00137745
-0.000613684
-0.00131006
-0.000660628
-0.00123503
-0.000708866
-0.00115232
-0.00075755
-0.00106224
-0.000805717
-0.000965407
-0.000852313
-0.000862826
-0.000896255
-0.00075588
-0.000936502
-0.000646293
-0.000972157
-0.000536055
-0.00100257
-0.000427273
-0.00102745
-0.000321983
-0.00104692
-0.000221938
-0.00106153
-0.000128438
-0.00107218
-4.22203e-05
-0.00107996
3.65296e-05
-0.00108598
0.000108086
-0.00109117
0.000173037
-0.00109629
0.00023213
-0.00110179
0.000286141
-0.00110796
0.000335803
-0.00111493
0.000381764
-0.00112277
0.000424569
-0.00113158
0.000464657
-0.00114147
0.00050233
-0.00115279
-0.00116643
0.000537643
0.000410119
7.4636e-05
0.00100611
0.000526581
0.00161624
0.000827226
0.00219391
0.000788626
0.00262164
0.000561457
0.00283712
0.000294909
0.00281303
6.30528e-05
0.00255152
-0.000114917
0.0021008
-0.000242331
0.00154793
-0.000311153
0.000986966
-0.000316632
0.000465907
-0.00026744
-2.23276e-05
-0.000189449
-0.000508594
-0.000113452
-0.00100581
-4.91402e-05
-0.00148394
-1.69942e-05
-0.00188672
-4.104e-05
-0.00213986
-0.000148711
-0.00214957
-0.000367725
-0.00185201
-0.000665792
-0.00130665
-0.00090051
-0.000702954
-0.000918761
-0.000232947
-0.000716007
2.90907e-05
-0.000418425
0.000116304
-0.000137655
9.48056e-05
8.9735e-05
2.7161e-05
0.000258309
-6.31703e-05
0.000390388
-0.00016237
0.000466626
-0.000268316
0.00049369
-0.000373877
0.000470276
-0.000478114
0.000411992
-0.000581059
0.000331486
-0.00068011
0.000237622
-0.000770287
0.000138581
-0.000844831
4.15646e-05
-0.000905412
-4.237e-05
-0.000953231
-0.000109244
-0.000989717
-0.000160933
-0.00102139
-0.000194897
-0.00105149
-0.000217548
-0.00107979
-0.000235494
-0.00110764
-0.000249671
-0.0011358
-0.000262723
-0.00116397
-0.00027713
-0.00119106
-0.000294699
-0.0012156
-0.000316467
-0.00123609
-0.000342839
-0.00125124
-0.000373864
-0.00125998
-0.000409441
-0.00126141
-0.000449415
-0.00125479
-0.000493583
-0.00123948
-0.000541673
-0.0012149
-0.000593309
-0.0011806
-0.000647989
-0.00113617
-0.000705057
-0.00108135
-0.000763689
-0.00101603
-0.000822872
-0.000940337
-0.000881406
-0.000854734
-0.000937916
-0.000760093
-0.000990895
-0.000657806
-0.00103879
-0.000549832
-0.00108013
-0.000438688
-0.00111371
-0.000327314
-0.00113882
-0.000218817
-0.00115541
-0.000116095
-0.00116425
-2.14415e-05
-0.00116684
6.37416e-05
-0.00116515
0.00013904
-0.00116127
0.000204904
-0.00115704
0.000262367
-0.00115375
0.000312743
-0.00115217
0.000357366
-0.00115258
0.00039742
-0.00115498
0.000433876
-0.00115923
0.000467487
-0.00116519
0.000498801
-0.00117278
0.000528155
-0.00118215
-0.00119383
0.000555557
0.000100785
-2.61488e-05
0.00109413
-0.000466761
0.00262359
-0.000702232
0.00376506
-0.000352852
0.00412215
0.000204374
0.00381447
0.000602583
0.00302871
0.000848819
0.00189215
0.00102164
0.000497262
0.00115255
-0.00105543
0.00124154
-0.00267219
0.00130012
-0.00426651
0.00132688
-0.00577681
0.00132085
-0.00716917
0.00127891
-0.00841046
0.00119215
-0.00947216
0.00104471
-0.0103293
0.000816112
-0.010961
0.00048294
-0.0113555
2.68248e-05
-0.0115038
-0.000517509
-0.0114104
-0.000993948
-0.0110962
-0.00123296
-0.0105981
-0.00121404
-0.00995617
-0.00106037
-0.00920115
-0.000892674
-0.00835706
-0.000754355
-0.00745845
-0.000640301
-0.00652962
-0.000538449
-0.00561844
-0.000444549
-0.00476391
-0.00036084
-0.00400065
-0.000292992
-0.00334238
-0.000246272
-0.00278572
-0.000225177
-0.00231803
-0.000230063
-0.00192398
-0.000255471
-0.00159138
-0.000291039
-0.00130885
-0.000324901
-0.00107032
-0.000347773
-0.000870525
-0.000360727
-0.000709489
-0.000355932
-0.000591752
-0.000335285
-0.000519787
-0.00030746
-0.000488608
-0.000280849
-0.000488961
-0.00026237
-0.000510034
-0.000256057
-0.000541918
-0.000262815
-0.000577092
-0.000281294
-0.000610766
-0.000309165
-0.000640325
-0.000344305
-0.000664512
-0.000385254
-0.000682729
-0.000431198
-0.000694599
-0.000481712
-0.000699767
-0.000536505
-0.000697818
-0.000595259
-0.000688264
-0.000657544
-0.00067054
-0.000722782
-0.000644027
-0.000790201
-0.000608096
-0.000858802
-0.00056218
-0.000927322
-0.000505888
-0.000994209
-0.000439154
-0.00105763
-0.000362428
-0.00111552
-0.0002769
-0.00116566
-0.000184659
-0.00120596
-8.87632e-05
-0.00123472
6.96219e-06
-0.00125114
9.84125e-05
-0.0012557
0.00018191
-0.00125033
0.000254898
-0.00123813
0.000316318
-0.00122269
0.000366582
-0.0012073
0.000407176
-0.00119434
0.000440106
-0.0011851
0.000467405
-0.00117988
0.00049082
-0.00117839
0.000511682
-0.00118009
0.000530921
-0.00118443
0.000549132
-0.00119099
0.000566609
-0.00119962
-0.00121048
0.000583259
0.000364013
-0.000390162
0.000970992
-0.00107374
0.00161332
-0.00134456
0.00226444
-0.00100397
0.00293581
-0.000466993
0.00361926
-8.08662e-05
0.00428167
0.000186406
0.00488779
0.000415523
0.0054217
0.000618646
0.00587781
0.00078543
0.00627124
0.000906687
0.00662509
0.000973031
0.00697096
0.000974981
0.00734107
0.000908795
0.00774873
0.000784495
0.00816723
0.000626201
0.00852463
0.000458709
0.00871113
0.000296446
0.00859851
0.000139445
0.00810008
-1.90755e-05
0.00728719
-0.000181062
0.00639143
-0.000337204
0.00564998
-0.000472585
0.00516517
-0.000575567
0.00491517
-0.000642672
0.00483532
-0.000674506
0.00486646
-0.000671437
0.00496288
-0.000634872
0.00508456
-0.000566231
0.0051946
-0.000470878
0.0052614
-0.000359797
0.00526247
-0.000247338
0.00518376
-0.000146468
0.0050197
-6.60002e-05
0.00477443
-1.02057e-05
0.00446158
2.18132e-05
0.00410106
3.56181e-05
0.0037143
3.89876e-05
0.00331455
3.90258e-05
0.00291812
4.04945e-05
0.00253865
4.41864e-05
0.00218436
4.6835e-05
0.00186054
4.29696e-05
0.00157039
2.77723e-05
0.0013152
-8.6257e-07
0.00109592
-4.35336e-05
0.000907985
-9.336e-05
0.000749795
-0.000150975
0.000618466
-0.000212977
0.000510801
-0.000277589
0.000423592
-0.000343988
0.000353737
-0.000411858
0.000298368
-0.000481136
0.000254959
-0.00055185
0.000221444
-0.000624028
0.000196254
-0.000697592
0.000178413
-0.00077236
0.000167537
-0.000847926
0.000163792
-0.000923577
0.000167796
-0.000998212
0.000180439
-0.00107027
0.000202607
-0.00113768
0.000234843
-0.00119789
0.000276835
-0.00124795
0.000326952
-0.00128484
0.00038198
-0.00130617
0.000437431
-0.00131115
0.000488466
-0.00130137
0.000531101
-0.00128077
0.000563167
-0.00125476
0.000584585
-0.00122872
0.000596959
-0.00120672
0.000602785
-0.00119092
0.000604661
-0.00118175
0.00060476
-0.00117849
0.000604619
-0.00117995
0.000605179
-0.00118498
0.000606905
-0.00119272
0.000609902
-0.00120262
-0.00121446
0.000613885
0.000159842
-0.000550004
0.0001659
-0.0010798
0.000133234
-0.00131189
0.000579857
-0.00145059
0.00167438
-0.00156152
0.00317059
-0.00157708
0.00478042
-0.00142342
0.00629864
-0.0011027
0.00761615
-0.000698861
0.00870975
-0.000308168
0.00959538
2.10493e-05
0.0102925
0.000275898
0.0108122
0.000455292
0.0111595
0.000561469
0.0113383
0.000605714
0.0113531
0.000611374
0.0112064
0.000605442
0.0108884
0.00061445
0.010389
0.000638881
0.00970722
0.000662672
0.0088722
0.000653959
0.00796022
0.000574775
0.00706663
0.000421006
0.00625429
0.000236774
0.00553662
7.50008e-05
0.00489887
-3.67554e-05
0.00432693
-9.95011e-05
0.00381766
-0.000125597
0.0033745
-0.000123071
0.00299702
-9.3404e-05
0.00267678
-3.95551e-05
0.00238515
4.42918e-05
0.00211421
0.000124472
0.00185496
0.000193256
0.00160143
0.000243323
0.00135482
0.000268423
0.00112358
0.000266853
0.000919673
0.000242895
0.00075457
0.000204129
0.00063689
0.000158174
0.000570785
0.000110292
0.00055502
6.25991e-05
0.000583353
1.46367e-05
0.000644653
-3.35276e-05
0.000725369
-8.15782e-05
0.000814112
-0.000132276
0.000905507
-0.000184755
0.000992882
-0.00023835
0.00107258
-0.000292678
0.00114246
-0.000347462
0.00120105
-0.000402586
0.00124729
-0.000458089
0.00128029
-0.00051414
0.00129946
-0.000571022
0.00130453
-0.000629095
0.00129573
-0.000688797
0.00127388
-0.000750504
0.00124042
-0.000814467
0.00119751
-0.00088067
0.00114798
-0.000948678
0.0010952
-0.00101749
0.00104296
-0.00108545
0.000995143
-0.00115008
0.000955157
-0.00120796
0.000925077
-0.00125476
0.000904744
-0.00128584
0.000891488
-0.0012979
0.00088093
-0.00129081
0.000868584
-0.00126842
0.000851414
-0.00123759
0.000828606
-0.00120591
0.000801334
-0.00117945
0.000771889
-0.00116148
0.000742724
-0.00115259
0.000715792
-0.00115156
0.000692306
-0.00115647
0.000672797
-0.00116547
0.000657304
-0.00117723
0.000645543
-0.00119086
-0.00120585
0.000636927
-0.000398002
-0.000152002
-0.00102912
-0.00044868
-0.00151132
-0.000829698
-0.00168457
-0.00127734
-0.00157781
-0.00166827
-0.00131856
-0.00183632
-0.00105092
-0.00169106
-0.000842098
-0.00131152
-0.000676835
-0.000864125
-0.000517495
-0.000467507
-0.000342731
-0.000153715
-0.000166983
0.000100151
-5.73821e-05
0.00034569
-0.000107525
0.000611612
-0.000381602
0.000879791
-0.000860603
0.00109037
-0.00145491
0.00119975
-0.00206124
0.00122078
-0.0026167
0.00119434
-0.00309313
0.0011391
-0.00348965
0.00105047
-0.00381849
0.000903618
-0.00409576
0.000698279
-0.004331
0.000472011
-0.00452359
0.00026759
-0.00466428
0.000103935
-0.0047398
-2.39801e-05
-0.00473801
-0.000127385
-0.00465168
-0.000209402
-0.00447827
-0.000266812
-0.00421116
-0.000306671
-0.00384736
-0.000319501
-0.00341327
-0.000309619
-0.00293378
-0.000286233
-0.00243193
-0.000258535
-0.00192903
-0.000234474
-0.00143903
-0.00022314
-0.00097753
-0.000218609
-0.000551625
-0.000221776
-0.000161165
-0.000232285
0.000198076
-0.000248949
0.000531155
-0.00027048
0.000841474
-0.000295682
0.0011314
-0.000323452
0.0014025
-0.000352679
0.00165292
-0.000382694
0.00188096
-0.000412796
0.00208504
-0.000442428
0.00226358
-0.000471225
0.00241515
-0.000499027
0.00253842
-0.000525855
0.00263225
-0.000551923
0.00269576
-0.000577649
0.0027284
-0.000603664
0.00273012
-0.00063081
0.00270145
-0.000660126
0.00264374
-0.000692794
0.00255928
-0.000730013
0.00245142
-0.000772804
0.00232448
-0.000821746
0.00218371
-0.000876717
0.002035
-0.000936738
0.00188475
-0.000999829
0.00173939
-0.00106261
0.0016044
-0.00111976
0.00148298
-0.00116441
0.00137537
-0.00119029
0.00127936
-0.0011948
0.00119178
-0.00118085
0.00111013
-0.00115593
0.00103335
-0.00112913
0.000961765
-0.00110786
0.0008964
-0.00109611
0.000838247
-0.00109444
0.000787842
-0.00110116
0.000745168
-0.00111379
0.000709776
-0.00113008
0.000680972
-0.00114842
0.000657951
-0.00116784
-0.00118772
0.000639823
-0.000825836
0.000673834
-0.00246898
0.00119446
-0.00447769
0.00117901
-0.00661795
0.000862922
-0.00868429
0.000398067
-0.0104996
-2.1037e-05
-0.0119227
-0.000267979
-0.0128784
-0.000355831
-0.0133569
-0.000385577
-0.0133966
-0.000427806
-0.0130584
-0.000491942
-0.0124097
-0.000548568
-0.0115093
-0.000554682
-0.0104326
-0.000465055
-0.00926421
-0.000288619
-0.00806756
-0.000106269
-0.00687721
9.4006e-06
-0.00570758
5.11425e-05
-0.00455611
4.28756e-05
-0.00343622
1.92154e-05
-0.00237719
-8.56572e-06
-0.00143302
-4.055e-05
-0.000655881
-7.8858e-05
-6.23129e-05
-0.000121557
0.000370298
-0.000165021
0.000681488
-0.000207256
0.000906775
-0.000249267
0.00106819
-0.0002888
0.00118567
-0.00032688
0.00127798
-0.00035913
0.00135414
-0.000382828
0.00142996
-0.000395324
0.00151668
-0.000396337
0.00161946
-0.000389007
0.00173826
-0.000377342
0.0018695
-0.000365705
0.00200419
-0.000357835
0.00214137
-0.000355787
0.00228026
-0.000360671
0.00242044
-0.000372464
0.00256175
-0.000390261
0.0027039
-0.00041263
0.00284615
-0.000437926
0.00298721
-0.000464514
0.00312544
-0.00049091
0.00325862
-0.000515877
0.00338427
-0.000538439
0.00349974
-0.000557901
0.00360231
-0.000573795
0.00368915
-0.000585865
0.00375736
-0.000594064
0.003804
-0.000598564
0.00382614
-0.000599797
0.00382099
-0.000598512
0.00378604
-0.000595853
0.00371933
-0.000593424
0.00361987
-0.00059333
0.003488
-0.000598138
0.00332585
-0.000610663
0.0031376
-0.000633489
0.00292925
-0.000668366
0.00270824
-0.000715728
0.00248273
-0.000774322
0.00226063
-0.000840506
0.00204836
-0.000907491
0.00184999
-0.000966048
0.00166734
-0.00100764
0.00150091
-0.00102836
0.00135085
-0.00103079
0.00121737
-0.00102245
0.00110055
-0.00101231
0.00100001
-0.00100733
0.000914779
-0.00101088
0.000843329
-0.00102299
0.000783898
-0.00104173
0.000734727
-0.00106462
0.000694231
-0.00108959
0.000661071
-0.00111526
0.000634131
-0.0011409
-0.00116606
0.000612465
0.000793692
-0.000119857
0.00167849
0.00030967
0.00203305
0.000824445
0.00198811
0.000907865
0.00181221
0.000573969
0.00170944
8.17278e-05
0.00177899
-0.000337531
0.00202606
-0.000602901
0.00237772
-0.000737233
0.00273128
-0.000781365
0.00301907
-0.000779738
0.00322812
-0.000757617
0.00338707
-0.000713627
0.00357123
-0.000649215
0.00384036
-0.000557747
0.00419422
-0.000460128
0.00458855
-0.000384936
0.00498784
-0.000348149
0.00535791
-0.000327197
0.00569333
-0.000316196
0.00598164
-0.00029688
0.00621166
-0.000270571
0.00637287
-0.000240064
0.00646177
-0.000210456
0.00648353
-0.000186785
0.00644746
-0.000171188
0.00636125
-0.000163056
0.00623276
-0.00016031
0.00606672
-0.000160837
0.00587085
-0.000163261
0.00565511
-0.000167087
0.00543231
-0.000172528
0.00521589
-0.000179911
0.00501653
-0.000189645
0.00484154
-0.000202353
0.00469447
-0.00021864
0.00457553
-0.00023889
0.00448293
-0.000263191
0.00441343
-0.000291166
0.004363
-0.000322035
0.00432744
-0.0003547
0.00430266
-0.000387851
0.00428484
-0.000420108
0.00427052