/*--------------------------------*- C++ -*----------------------------------*\
| =========                 |                                                 |
| \\      /  F ield         | OpenFOAM: The Open Source CFD Toolbox           |
|  \\    /   O peration     | Version:  2012                                  |
|   \\  /    A nd           | Website:  www.openfoam.com                      |
|    \\/     M anipulation  |                                                 |
\*---------------------------------------------------------------------------*/
FoamFile
{
    version     2.0;
    format      ascii;
    class       volVectorField;
    location    "0.01";
    object      U;
}
// * * * * * * * * * * * * * * * * * * * * * * * * * * * * * * * * * * * * * //

dimensions      [0 1 -1 0 0 0 0];


internalField   nonuniform List<vector> 
42400
(
(-12.1488 10.1787 7.65938e-17)
(-29.7099 23.6775 1.12989e-16)
(-38.9892 32.1701 -1.15141e-16)
(-45.9196 32.5522 0)
(-52.2733 31.392 0)
(-59.2551 28.3973 -2.07777e-19)
(-66.3202 23.5508 0)
(-71.9566 16.0103 2.81138e-19)
(-70.1741 3.10652 0)
(-48.8867 -27.2051 3.03269e-19)
(-8.53056 -79.2588 2.79891e-19)
(10.8563 -100.395 -2.42762e-19)
(-23.5617 -56.2344 -5.77458e-17)
(-67.7435 -7.86739 5.92423e-17)
(-75.7736 6.57465 -1.94894e-19)
(-63.0256 5.54024 0)
(-48.5739 0.779246 0)
(-34.8872 -4.17303 0)
(-22.8498 -8.03987 0)
(-13.4833 -10.4871 0)
(-7.07481 -11.1358 0)
(-3.15017 -10.0292 -1.75825e-19)
(-0.821539 -8.00821 -2.5063e-17)
(0.714049 -6.22389 2.93961e-18)
(2.01593 -5.29197 2.26093e-17)
(3.43325 -5.1463 -3.36777e-20)
(5.05745 -5.51449 -6.84313e-21)
(6.86361 -6.22391 -2.72782e-20)
(8.8176 -7.07598 0)
(10.8213 -7.88693 0)
(12.7794 -8.53875 4.41787e-18)
(14.6423 -8.97594 -4.45017e-18)
(16.3699 -9.21011 -7.06905e-20)
(17.9565 -9.25654 -1.33254e-18)
(19.4001 -9.12111 1.3878e-18)
(20.6809 -8.82555 0)
(21.7614 -8.40296 0)
(22.6131 -7.87659 0)
(23.2172 -7.26951 0)
(23.5664 -6.60464 -6.68313e-19)
(23.6594 -5.90841 6.69697e-19)
(23.5012 -5.21075 -1.02681e-18)
(23.1068 -4.53897 -1.08972e-19)
(22.4978 -3.91884 2.5267e-18)
(21.7028 -3.37052 -1.29678e-18)
(20.754 -2.90758 1.58532e-18)
(19.6845 -2.53457 -3.37001e-18)
(18.5249 -2.24627 1.66709e-18)
(17.3001 -2.02873 1.23265e-19)
(16.0288 -1.86266 -1.83278e-18)
(14.7261 -1.72933 3.58971e-18)
(13.4088 -1.6174 1.43024e-19)
(12.1012 -1.52806 -1.87221e-18)
(10.8387 -1.47564 1.95982e-19)
(9.66562 -1.48189 0)
(8.62618 -1.56556 0)
(7.7532 -1.73235 0)
(7.05832 -1.97025 -1.30134e-19)
(6.5299 -2.25254 -1.15555e-19)
(6.13944 -2.54631 0)
(5.85229 -2.82174 -1.31582e-18)
(5.63717 -3.05814 1.37345e-18)
(5.47084 -3.24538 1.03102e-18)
(5.33843 -3.3819 -1.01195e-18)
(5.23129 -3.47152 0)
(5.14455 -3.52051 0)
(5.07522 -3.53571 6.45573e-19)
(5.02109 -3.52341 -6.31146e-19)
(4.9802 -3.48901 -6.81136e-20)
(4.95072 -3.43695 0)
(4.9309 -3.37086 0)
(4.91916 -3.29366 -4.97163e-20)
(4.91409 -3.20776 -4.4995e-20)
(4.91449 -3.11518 0)
(4.91942 -3.01767 -3.70269e-20)
(4.9281 -2.91692 -2.58202e-19)
(4.94011 -2.81471 2.50461e-19)
(4.95619 -2.71276 5.5486e-20)
(4.97954 -2.61312 1.91736e-19)
(5.00975 -2.53262 1.58187e-19)
(-7.16011 8.37117 0)
(-20.7698 22.294 -8.31864e-17)
(-33.7595 33.573 8.51844e-17)
(-42.3494 41.721 0)
(-46.6333 46.1333 0)
(-46.7636 48.3474 -6.32137e-17)
(-44.5641 49.559 6.46642e-17)
(-40.9485 49.9927 -2.82356e-19)
(-35.6753 49.2633 0)
(-27.9823 45.5726 -3.01831e-19)
(-16.7625 35.3154 -2.76963e-19)
(-2.03136 17.2119 1.27894e-17)
(13.0298 -1.96442 -9.27498e-18)
(24.6831 -13.9711 -3.81108e-18)
(32.6415 -18.533 4.82798e-18)
(37.6345 -19.3307 -4.77405e-18)
(39.5578 -18.4183 0)
(38.6645 -16.1622 -5.32653e-20)
(35.8187 -12.9671 0)
(32.1582 -9.56829 0)
(28.5082 -6.44132 0)
(25.3215 -3.73852 7.46844e-18)
(22.8676 -1.44492 2.19592e-18)
(21.4013 0.407841 -9.67544e-18)
(21.1606 1.73782 0)
(22.1691 2.5095 1.64816e-19)
(24.1494 2.79726 6.57947e-21)
(26.6881 2.77269 2.62575e-20)
(29.3742 2.60169 1.17967e-17)
(31.9021 2.40198 -1.19239e-17)
(34.1294 2.26072 6.65418e-21)
(36.0118 2.21699 -3.74625e-20)
(37.5343 2.27478 6.20186e-18)
(38.6837 2.43459 -6.11161e-18)
(39.4412 2.69787 -3.45976e-18)
(39.7948 3.05801 3.32871e-18)
(39.7401 3.49811 0)
(39.2777 3.99191 1.01691e-19)
(38.4198 4.5073 0)
(37.1901 5.00966 1.73198e-19)
(35.6216 5.46457 -9.01634e-19)
(33.7548 5.83961 1.06076e-18)
(31.6386 6.10343 -8.14093e-20)
(29.328 6.22813 9.33122e-20)
(26.8859 6.1934 -3.84813e-23)
(24.3782 5.99159 1.11187e-19)
(21.8677 5.6322 -1.17205e-19)
(19.4073 5.14298 -1.94507e-18)
(17.0384 4.56659 1.93829e-18)
(14.7936 3.953 0)
(12.7 3.34827 -8.36107e-20)
(10.7846 2.78376 -2.25738e-19)
(9.079 2.26811 -1.50687e-18)
(7.62111 1.78568 1.50951e-18)
(6.44825 1.30522 1.37511e-19)
(5.58213 0.796457 -2.47376e-18)
(5.01416 0.246078 2.6919e-18)
(4.70173 -0.335661 1.30153e-19)
(4.57915 -0.920534 1.15577e-19)
(4.57627 -1.47471 -1.61551e-18)
(4.63441 -1.97006 1.59057e-18)
(4.71366 -2.38973 -7.93142e-20)
(4.79196 -2.72826 -6.32036e-20)
(4.86004 -2.98855 0)
(4.91596 -3.17833 7.43756e-19)
(4.9611 -3.30735 -8.06739e-20)
(4.99786 -3.38552 -8.09721e-19)
(5.0285 -3.42199 0)
(5.0548 -3.42476 1.32567e-19)
(5.078 -3.40062 -5.81832e-20)
(5.09893 -3.35519 -4.27377e-19)
(5.11811 -3.2931 4.66017e-19)
(5.13588 -3.21816 3.95189e-19)
(5.15249 -3.13348 -3.80175e-19)
(5.16816 -3.04168 7.3206e-20)
(5.18313 -2.94499 -2.6307e-19)
(5.19789 -2.84534 1.94838e-19)
(5.21381 -2.74411 -5.54891e-20)
(5.23311 -2.64393 2.48255e-19)
(5.25519 -2.56097 -1.95272e-19)
(-15.4023 14.2749 3.17514e-18)
(-53.3879 43.9385 2.54776e-19)
(-79.5932 70.0527 -1.8856e-19)
(-82.007 74.8022 2.46357e-19)
(-65.5984 67.7014 0)
(-46.6867 58.5669 1.80905e-17)
(-31.9123 52.7638 -3.59123e-17)
(-21.599 50.5729 1.77929e-17)
(-14.0511 50.5998 -1.50135e-17)
(-7.67072 51.3315 1.57466e-18)
(-1.43367 51.4957 1.4427e-17)
(4.89975 50.2893 1.19102e-19)
(10.8703 47.9021 7.54096e-20)
(15.9664 45.2174 -1.08337e-17)
(20.1032 42.7789 1.10293e-17)
(23.3914 40.8321 3.07031e-19)
(25.97 39.5793 9.76967e-18)
(28.0405 39.1183 -3.49391e-19)
(29.8463 39.3555 -1.05759e-17)
(31.5954 39.9812 2.73014e-19)
(33.4646 40.6395 -2.13942e-19)
(35.637 40.9763 -1.79876e-19)
(38.2248 40.779 0)
(41.1569 39.9987 3.32456e-19)
(44.1647 38.7417 -4.97479e-18)
(46.8211 37.1624 7.49061e-18)
(48.6342 35.337 -2.38725e-18)
(49.2159 33.2894 -3.30396e-18)
(48.445 31.0573 3.34483e-18)
(46.5457 28.6899 8.67767e-18)
(44.0443 26.2398 -1.823e-17)
(41.4953 23.7466 -1.1735e-18)
(39.1773 21.2073 1.12158e-17)
(37.0542 18.606 0)
(34.9436 15.9741 0)
(32.6839 13.4032 1.06938e-19)
(30.1949 11.0045 0)
(27.464 8.8669 3.18937e-20)
(24.5194 7.04246 -5.68536e-18)
(21.4121 5.55248 1.03358e-17)
(18.2048 4.39375 -4.81393e-18)
(14.9765 3.54498 0)
(11.8196 2.96163 0)
(8.83975 2.574 -1.71603e-18)
(6.15273 2.29597 1.61408e-18)
(3.86554 2.03806 2.52474e-20)
(2.05341 1.72447 0)
(0.744126 1.30967 0)
(-0.0858218 0.790091 -7.27425e-19)
(-0.505325 0.202365 7.2449e-19)
(-0.61095 -0.39733 8.4376e-20)
(-0.497808 -0.952029 0)
(-0.238948 -1.42463 7.60799e-19)
(0.119558 -1.80584 -6.93396e-19)
(0.55118 -2.10708 1.264e-18)
(1.03639 -2.34955 -1.45067e-18)
(1.55391 -2.5547 1.21858e-18)
(2.07895 -2.73844 -2.59517e-18)
(2.58668 -2.90916 2.45291e-18)
(3.05694 -3.06873 -7.04311e-20)
(3.47695 -3.21479 -1.09014e-18)
(3.84135 -3.34313 -9.25431e-19)
(4.15055 -3.44964 9.72247e-19)
(4.40856 -3.53141 0)
(4.62131 -3.5872 -5.87147e-19)
(4.79532 -3.61727 5.10837e-20)
(4.93695 -3.62305 7.52354e-19)
(5.05193 -3.6067 0)
(5.14514 -3.57079 -1.18175e-19)
(5.22065 -3.51799 -3.66088e-19)
(5.28176 -3.45095 3.68197e-19)
(5.33115 -3.37219 0)
(5.37098 -3.28402 0)
(5.40302 -3.18856 3.96542e-20)
(5.42875 -3.08772 -3.61798e-20)
(5.44945 -2.98329 -1.89642e-19)
(5.46652 -2.87692 3.03156e-19)
(5.48213 -2.77008 0)
(5.49943 -2.66573 -5.03334e-20)
(5.5192 -2.57854 -1.78511e-19)
(-3.59907 2.52479 -9.43695e-17)
(-6.96852 2.71891 1.40556e-16)
(0.296529 2.67549 -7.16094e-17)
(8.56687 1.01113 -6.95392e-17)
(16.5444 3.36762 7.13329e-17)
(22.0628 6.63933 0)
(24.7784 10.3469 -1.32379e-16)
(24.8123 14.362 1.35086e-16)
(23.2096 18.2554 -1.22892e-16)
(21.1786 21.3746 1.25496e-16)
(19.6139 23.2926 -1.09007e-16)
(19.123 23.896 2.12436e-16)
(19.9984 23.2627 -1.97136e-16)
(22.2939 21.7163 1.83175e-16)
(25.9413 19.5939 -1.69889e-16)
(30.8544 17.2676 8.19883e-17)
(36.7401 15.229 6.70345e-17)
(42.8492 14.0577 -1.25151e-16)
(47.9378 14.3534 5.89095e-17)
(50.6852 16.1753 -2.68554e-19)
(50.4504 18.6854 2.51679e-20)
(47.3706 20.4845 3.25949e-17)
(41.9869 20.5695 -3.27979e-17)
(34.8655 18.9301 -1.8444e-19)
(26.5359 16.4034 0)
(17.3898 13.9238 -2.24759e-19)
(7.74065 12.0555 0)
(-1.67872 10.7059 -2.69253e-17)
(-9.1172 8.85881 4.10148e-18)
(-12.4982 5.34998 2.33583e-17)
(-11.552 0.294765 1.53062e-17)
(-8.41069 -4.82386 -1.51244e-17)
(-5.56063 -8.57549 -2.1562e-19)
(-4.01481 -10.5861 8.18405e-20)
(-3.50335 -11.2958 4.35847e-18)
(-3.46907 -11.3003 -4.42319e-18)
(-3.57064 -11.0031 0)
(-3.67885 -10.6029 -9.58038e-19)
(-3.75701 -10.1829 8.25334e-19)
(-3.79307 -9.7756 -1.62043e-19)
(-3.77786 -9.38903 -5.54818e-20)
(-3.69968 -9.01359 0)
(-3.55474 -8.63388 0)
(-3.34291 -8.23442 0)
(-3.06493 -7.80479 -5.10768e-20)
(-2.72658 -7.3452 2.67228e-19)
(-2.33875 -6.86685 -2.92027e-19)
(-1.91626 -6.38878 0)
(-1.4754 -5.93164 0)
(-1.03127 -5.51239 -1.60082e-19)
(-0.59447 -5.1448 1.69568e-19)
(-0.167504 -4.83494 -2.69565e-19)
(0.254237 -4.58299 2.09195e-19)
(0.679005 -4.38574 -3.67176e-21)
(1.1135 -4.23821 3.37323e-19)
(1.559 -4.13475 -4.08528e-19)
(2.01045 -4.06905 7.1964e-19)
(2.45823 -4.03387 -6.88998e-19)
(2.89095 -4.02106 0)
(3.29812 -4.02206 2.43538e-20)
(3.6719 -4.02877 6.37893e-19)
(4.0078 -4.03418 -4.94484e-20)
(4.30443 -4.03288 -1.182e-18)
(4.56278 -4.02113 1.05982e-18)
(4.78533 -3.9967 -4.71994e-19)
(4.97529 -3.95859 -4.58747e-19)
(5.13608 -3.90678 3.42313e-19)
(5.27107 -3.8419 4.07434e-20)
(5.38335 -3.7651 3.84369e-19)
(5.47577 -3.67779 -3.60495e-19)
(5.55092 -3.58156 8.04425e-20)
(5.61112 -3.47806 3.31463e-19)
(5.6585 -3.3689 -2.90329e-19)
(5.69501 -3.25563 0)
(5.72239 -3.1397 2.40415e-19)
(5.74229 -3.02253 -7.07416e-20)
(5.75649 -2.90545 -4.72531e-19)
(5.76747 -2.78959 2.00807e-19)
(5.77841 -2.67779 -1.76984e-19)
(5.79095 -2.58375 1.74461e-19)
(-1.98018 2.80439 1.40898e-18)
(10.9871 -5.87283 0)
(41.928 -22.404 0)
(69.96 -39.246 1.38261e-20)
(87.3466 -47.3709 0)
(93.6128 -48.934 0)
(89.2884 -44.8385 0)
(77.4934 -37.3765 9.37033e-19)
(63.0322 -29.5598 0)
(50.1009 -23.7307 -4.74421e-19)
(41.0306 -20.9926 2.19471e-17)
(36.5617 -21.4727 -4.49134e-17)
(36.6369 -24.9135 2.18496e-17)
(41.0955 -30.8753 0)
(49.7617 -38.9342 2.60094e-19)
(61.9201 -48.4271 -5.4239e-19)
(74.9554 -57.6587 0)
(83.4869 -63.4408 1.38862e-17)
(80.6981 -61.4639 -2.87392e-17)
(62.6913 -49.192 -4.23168e-19)
(32.8534 -29.0399 1.47817e-17)
(0.693609 -7.76981 -1.58722e-19)
(-24.797 8.34696 0)
(-40.1923 17.2376 -9.58234e-18)
(-46.8209 20.2591 1.03259e-17)
(-47.3229 19.6344 -6.37329e-18)
(-43.6775 17.0165 6.67496e-18)
(-37.0535 13.3361 3.86185e-18)
(-28.365 9.11851 -4.10441e-18)
(-18.7864 4.77998 0)
(-9.75052 0.76443 -2.67346e-18)
(-2.39826 -2.5895 2.70093e-18)
(2.82251 -5.17565 -1.20208e-19)
(6.06538 -7.0499 -2.08087e-18)
(7.74874 -8.31599 2.01668e-18)
(8.29882 -9.09493 2.01717e-19)
(8.0694 -9.50551 -1.56107e-19)
(7.3424 -9.64665 -1.49279e-18)
(6.33741 -9.59849 1.50137e-18)
(5.21947 -9.4255 1.27335e-18)
(4.1052 -9.17789 6.36254e-21)
(3.06994 -8.8917 -1.54174e-18)
(2.15752 -8.58985 0)
(1.39026 -8.28565 1.56329e-19)
(0.777007 -7.98678 -9.03574e-19)
(0.318696 -7.69831 2.22027e-18)
(0.0115255 -7.42437 -1.90293e-18)
(-0.152144 -7.16828 8.03896e-19)
(-0.183787 -6.93185 0)
(-0.0983387 -6.71489 7.11029e-20)
(0.0870509 -6.51557 -4.35768e-19)
(0.354329 -6.33126 4.82156e-19)
(0.685698 -6.15936 8.04504e-20)
(1.06445 -5.99797 -1.51454e-19)
(1.47518 -5.84601 1.76144e-19)
(1.90378 -5.70286 -9.23193e-20)
(2.33756 -5.56783 -2.33191e-20)
(2.76551 -5.43985 5.95657e-20)
(3.17856 -5.31737 7.0832e-20)
(3.56968 -5.19848 -9.41417e-20)
(3.93385 -5.08111 0)
(4.26778 -4.96326 2.4906e-20)
(4.56964 -4.84327 2.39891e-19)
(4.83877 -4.71993 -1.84662e-19)
(5.07543 -4.59255 -5.95927e-20)
(5.28063 -4.46096 0)
(5.45595 -4.32542 -2.24457e-19)
(5.60342 -4.1865 2.01879e-19)
(5.72536 -4.04495 3.8821e-20)
(5.8243 -3.90165 2.26184e-20)
(5.90279 -3.75745 -5.79696e-20)
(5.96335 -3.61322 -1.01556e-20)
(6.00839 -3.46976 2.38346e-19)
(6.04019 -3.3278 -2.09653e-19)
(6.06086 -3.18807 2.1595e-20)
(6.07239 -3.0513 0)
(6.07687 -2.9182 2.24306e-19)
(6.07705 -2.7894 -1.70174e-19)
(6.07619 -2.66745 0)
(6.07669 -2.56482 1.45599e-19)
(15.3855 -8.10999 -5.86839e-19)
(42.3051 -20.8195 -6.73651e-17)
(60.8881 -31.7724 6.47327e-17)
(64.9883 -32.6234 -1.29583e-16)
(52.0515 -25.6933 6.47386e-17)
(28.0369 -12.2129 3.72444e-19)
(-0.894074 3.78001 5.55852e-17)
(-28.0598 18.4869 -5.76358e-17)
(-48.4312 29.3359 -2.75048e-19)
(-60.2564 35.6471 2.08243e-19)
(-64.6111 38.131 -4.46295e-17)
(-63.2951 37.5168 -3.90279e-17)
(-57.0489 33.6568 8.67616e-17)
(-45.7387 25.8909 -7.2252e-17)
(-30.489 14.2659 1.37791e-16)
(-15.2778 0.697372 -6.59737e-17)
(-4.89213 -11.5294 0)
(-1.18712 -20.1379 0)
(-2.93689 -24.8187 4.80048e-17)
(-8.35482 -25.7095 -3.53158e-18)
(-15.7582 -22.9367 -4.44569e-17)
(-22.9773 -17.5863 3.57165e-17)
(-27.92 -11.5589 -6.77997e-17)
(-29.5281 -6.43191 3.16781e-17)
(-27.9163 -2.93069 2.48059e-17)
(-23.8694 -1.07061 -2.50687e-18)
(-18.3465 -0.52907 -2.33636e-17)
(-12.2522 -0.915445 4.1131e-19)
(-6.40803 -1.84767 -3.77764e-19)
(-1.54048 -2.96306 6.88196e-19)
(1.78283 -3.94544 0)
(3.3144 -4.62005 1.36851e-17)
(3.25935 -4.95857 -2.66233e-17)
(2.1781 -5.0701 1.28493e-17)
(0.717516 -5.16011 0)
(-0.608684 -5.38754 -9.03755e-18)
(-1.53556 -5.80077 9.08808e-18)
(-2.03331 -6.3465 0)
(-2.20217 -6.92836 0)
(-2.16696 -7.45919 -5.57624e-18)
(-2.02217 -7.88609 5.7151e-18)
(-1.82239 -8.19067 -1.16422e-19)
(-1.59329 -8.37772 0)
(-1.34468 -8.46337 3.41285e-18)
(-1.07917 -8.46721 -5.69672e-19)
(-0.796667 -8.40824 -3.26082e-18)
(-0.496581 -8.30324 -1.66126e-19)
(-0.178705 -8.1663 2.41646e-19)
(0.156453 -8.00872 0)
(0.507682 -7.83909 -1.59675e-18)
(0.87325 -7.66361 2.85141e-18)
(1.25103 -7.48641 -1.37318e-18)
(1.63852 -7.30994 -8.38446e-20)
(2.03281 -7.13533 -8.35615e-19)
(2.4305 -6.96273 1.81543e-19)
(2.82773 -6.79155 1.1416e-18)
(3.22023 -6.62062 -4.02398e-19)
(3.60353 -6.44847 0)
(3.97307 -6.2735 0)
(4.32448 -6.09425 4.0902e-20)
(4.65372 -5.9096 3.23848e-20)
(4.95736 -5.719 0)
(5.23268 -5.52252 1.14902e-19)
(5.47788 -5.3209 -1.15406e-19)
(5.69213 -5.11545 1.20686e-20)
(5.87558 -4.9079 3.07798e-20)
(6.02927 -4.70013 -1.97405e-20)
(6.15496 -4.49403 9.73334e-20)
(6.25494 -4.29128 -9.50506e-20)
(6.33178 -4.09327 -1.39078e-20)
(6.38819 -3.90102 -1.17473e-19)
(6.42683 -3.71523 1.138e-19)
(6.45024 -3.53635 1.26583e-19)
(6.46078 -3.36464 -1.60037e-19)
(6.46063 -3.20024 1.26208e-19)
(6.45183 -3.0433 -1.43482e-19)
(6.43652 -2.89392 1.39479e-19)
(6.41739 -2.75215 -2.68777e-19)
(6.3975 -2.62021 2.78603e-21)
(6.3797 -2.50923 3.19378e-21)
(15.7432 -10.2816 -1.88876e-18)
(31.3535 -20.0905 2.43091e-19)
(26.5216 -23.1397 6.29433e-18)
(16.5104 -20.9825 -1.5586e-17)
(6.34215 -20.6772 9.10576e-18)
(-3.6333 -19.1528 -1.44711e-17)
(-11.9399 -17.1723 -1.31091e-18)
(-16.446 -15.9427 1.6128e-17)
(-16.3658 -16.1772 -1.52887e-17)
(-13.4564 -17.3965 1.60906e-17)
(-10.924 -18.1321 -9.68607e-18)
(-10.9825 -17.5243 9.96981e-18)
(-13.3986 -16.1981 -2.20825e-18)
(-16.2494 -15.4244 2.54712e-18)
(-17.4189 -16.3482 2.91874e-19)
(-15.7181 -19.6719 2.8866e-19)
(-11.2776 -25.2243 2.14705e-17)
(-5.13294 -31.9536 -2.18702e-17)
(1.28077 -38.3943 -6.10428e-19)
(6.30832 -43.1206 3.18341e-19)
(8.61322 -45.0682 3.90785e-17)
(7.86322 -43.875 -3.90678e-17)
(4.89963 -40.0649 0)
(1.20329 -34.7709 -3.29633e-19)
(-1.90157 -29.2043 0)
(-3.82458 -24.1761 0)
(-4.70128 -20.0107 -2.80772e-19)
(-4.89752 -16.6611 -3.07054e-17)
(-4.78771 -14.0456 3.13059e-17)
(-4.62769 -12.0932 2.39278e-17)
(-4.55419 -10.7366 -2.49004e-17)
(-4.56056 -9.86513 5.54432e-19)
(-4.54372 -9.34127 -4.88664e-19)
(-4.39362 -9.03537 0)
(-4.0599 -8.84925 -2.79463e-19)
(-3.56366 -8.72503 0)
(-2.97234 -8.64299 0)
(-2.36437 -8.5969 -2.06161e-19)
(-1.80041 -8.5802 0)
(-1.30928 -8.57991 0)
(-0.895059 -8.58454 5.39136e-18)
(-0.548289 -8.58697 -5.09898e-18)
(-0.253284 -8.58257 0)
(0.00697499 -8.56852 0)
(0.248182 -8.54347 0)
(0.483611 -8.5071 -1.78391e-19)
(0.723766 -8.45975 1.66071e-19)
(0.976409 -8.40207 2.175e-18)
(1.24675 -8.33477 -2.31179e-18)
(1.53774 -8.25837 1.82231e-18)
(1.8504 -8.17306 -2.01466e-18)
(2.18412 -8.07861 1.79194e-19)
(2.53691 -7.97437 8.51193e-20)
(2.90564 -7.85928 0)
(3.28618 -7.73194 0)
(3.67357 -7.59075 -6.85837e-19)
(4.06215 -7.43402 3.35537e-20)
(4.44578 -7.26021 6.76897e-19)
(4.81807 -7.06816 -4.8491e-19)
(5.17264 -6.85731 5.01525e-19)
(5.50349 -6.62794 6.18625e-19)
(5.80537 -6.38135 -1.205e-19)
(6.07405 -6.11988 -8.78642e-19)
(6.30672 -5.84692 3.97039e-19)
(6.50208 -5.56662 2.20442e-20)
(6.66043 -5.28359 9.91605e-21)
(6.78353 -5.00248 8.98733e-20)
(6.87428 -4.72748 -1.28769e-19)
(6.93633 -4.46199 3.99667e-20)
(6.97367 -4.20847 -8.71445e-21)
(6.99022 -3.96836 -5.42025e-20)
(6.98965 -3.74226 5.66743e-20)
(6.97519 -3.5301 0)
(6.94964 -3.33145 1.48516e-20)
(6.91543 -3.14569 0)
(6.87467 -2.97218 -1.02232e-19)
(6.82947 -2.81024 -3.27293e-21)
(6.78234 -2.65927 9.92873e-20)
(6.73595 -2.52102 -7.66728e-20)
(6.69321 -2.405 -1.97385e-20)
(2.1807 -2.62981 1.49396e-17)
(3.70854 -12.2786 -2.24445e-17)
(0.447703 -15.968 -2.6362e-20)
(-7.4717 -24.379 -1.40159e-17)
(-9.1825 -30.4649 1.43245e-17)
(-7.56635 -35.9711 -5.91987e-18)
(-3.94698 -39.3787 6.79859e-18)
(-0.315519 -39.9179 -5.7094e-19)
(0.707775 -36.7907 -1.04126e-17)
(-2.88018 -28.9941 1.07287e-17)
(-10.5356 -17.1 0)
(-18.4283 -4.4878 -2.00296e-19)
(-22.1361 4.86948 1.37672e-19)
(-20.5623 10.3358 0)
(-16.0806 13.9879 0)
(-11.3273 17.0954 0)
(-7.2914 19.5856 0)
(-3.97454 21.1756 -1.65151e-19)
(-1.11894 21.7667 0)
(1.47984 21.3823 -2.99668e-18)
(3.926 20.1843 2.38578e-18)
(6.18839 18.3857 2.02154e-18)
(8.14706 16.2216 -2.39674e-18)
(9.69554 13.8853 -6.88013e-19)
(10.7336 11.4857 8.53856e-19)
(11.1176 9.0521 -8.37704e-19)
(10.6982 6.54556 1.13102e-18)
(9.51056 3.97298 -1.71196e-18)
(7.69536 1.40401 -4.63156e-19)
(5.5644 -0.993179 1.8671e-18)
(3.49149 -3.12264 0)
(1.7409 -4.94233 -2.72426e-20)
(0.448012 -6.43759 -3.99404e-21)
(-0.376767 -7.60635 0)
(-0.802667 -8.46241 2.80656e-19)
(-0.929129 -9.03305 0)
(-0.855369 -9.35699 0)
(-0.662937 -9.48488 4.70702e-18)
(-0.412488 -9.47182 -8.73732e-18)
(-0.143999 -9.37188 4.29096e-18)
(0.122449 -9.22886 3.67607e-18)
(0.380032 -9.07259 -3.74841e-18)
(0.628475 -8.92142 -6.3072e-20)
(0.871213 -8.78557 0)
(1.11361 -8.66945 2.84071e-18)
(1.36155 -8.57366 -2.53703e-18)
(1.62054 -8.4964 0)
(1.89518 -8.43456 0)
(2.18892 -8.38432 -1.83503e-18)
(2.50396 -8.34141 2.03529e-18)
(2.84119 -8.30133 1.8322e-18)
(3.20014 -8.2594 -1.71265e-18)
(3.579 -8.21082 -1.43379e-18)
(3.97463 -8.15074 2.55525e-18)
(4.38256 -8.07442 -1.20652e-18)
(4.79716 -7.97732 -2.52812e-19)
(5.21171 -7.85529 0)
(5.6187 -7.70479 1.09177e-19)
(6.01005 -7.52314 -5.58816e-19)
(6.37753 -7.30882 1.14148e-18)
(6.7132 -7.06176 -5.51867e-19)
(7.00998 -6.78363 0)
(7.26221 -6.47805 -3.61543e-20)
(7.46622 -6.15052 0)
(7.62077 -5.80823 -2.20454e-20)
(7.72718 -5.45944 -2.58417e-20)
(7.78922 -5.11269 -3.91751e-20)
(7.81254 -4.77578 -1.53839e-19)
(7.80389 -4.45501 1.30143e-19)
(7.7702 -4.15461 -1.31325e-20)
(7.71786 -3.87671 -1.74071e-20)
(7.65226 -3.6216 1.64131e-20)
(7.57763 -3.38829 3.0834e-20)
(7.49716 -3.1751 -2.9981e-20)
(7.41325 -2.98014 6.07068e-20)
(7.32772 -2.80159 -4.95937e-20)
(7.24222 -2.63776 -6.74032e-20)
(7.15867 -2.48727 6.53311e-20)
(7.07898 -2.3513 -2.07484e-20)
(7.00559 -2.23752 2.03724e-20)
(-38.8718 18.8609 1.49049e-17)
(-101.726 57.8906 1.45054e-17)
(-134.63 71.7255 -2.34485e-17)
(-121.692 71.9917 1.00572e-17)
(-85.6588 55.5466 -1.49223e-18)
(-44.5704 37.1736 6.85914e-20)
(-8.34761 20.2917 -1.81217e-17)
(20.5098 5.4534 4.20047e-17)
(41.5234 -7.21379 4.38314e-18)
(54.4023 -16.8317 -2.84202e-17)
(59.4336 -22.4372 6.64497e-19)
(57.9363 -24.3884 3.45553e-17)
(52.3314 -24.3888 -3.53381e-17)
(45.1895 -23.7966 3.42257e-17)
(37.9407 -23.0034 -3.49079e-17)
(30.9995 -22.2526 -3.08467e-17)
(24.7746 -21.6263 3.13716e-17)
(19.7948 -20.9729 1.67974e-19)
(16.405 -19.8834 0)
(14.3596 -17.7877 2.20093e-17)
(12.4394 -14.3095 -2.20552e-17)
(9.36068 -9.71239 -2.90681e-19)
(4.88041 -4.83415 -1.55073e-17)
(-0.497466 -0.438283 1.58929e-17)
(-6.366 3.26937 2.24924e-20)
(-12.4605 6.42737 0)
(-18.1529 9.05352 1.09245e-19)
(-22.4258 10.819 1.81775e-19)
(-24.5152 11.3964 8.5429e-18)
(-24.3014 10.775 -8.7333e-18)
(-22.1768 9.18612 -5.69722e-18)
(-18.851 7.05697 5.71839e-18)
(-15 4.69751 -1.11803e-19)
(-11.132 2.34389 3.20929e-18)
(-7.60527 0.189472 -5.61984e-18)
(-4.6346 -1.62569 2.50044e-18)
(-2.30398 -3.04622 1.32523e-18)
(-0.592539 -4.09096 -1.38174e-18)
(0.590263 -4.81667 -8.12862e-20)
(1.35999 -5.30209 1.20905e-20)
(1.83106 -5.62619 6.26515e-20)
(2.10902 -5.84841 -5.73121e-19)
(2.27995 -6.0132 -1.7258e-19)
(2.40528 -6.15451 8.10421e-19)
(2.52584 -6.29284 -1.27426e-18)
(2.66677 -6.43668 1.15086e-18)
(2.84181 -6.5867 0)
(3.05723 -6.73951 1.47578e-18)
(3.31482 -6.89035 -1.49989e-18)
(3.61381 -7.03444 1.32282e-18)
(3.95189 -7.16733 -1.07212e-19)
(4.32554 -7.28486 -2.65683e-20)
(4.73014 -7.38296 -4.10272e-20)
(5.1599 -7.45749 -5.35059e-20)
(5.60786 -7.50419 -1.24106e-18)
(6.0659 -7.51867 6.06178e-20)
(6.52478 -7.4965 0)
(6.97432 -7.43337 -1.01079e-18)
(7.40354 -7.32541 7.92448e-19)
(7.80113 -7.16966 0)
(8.15587 -6.96455 -6.94511e-19)
(8.45747 -6.7106 5.18875e-19)
(8.69738 -6.41097 0)
(8.86984 -6.07198 -5.28083e-20)
(8.97288 -5.70316 0)
(9.00889 -5.3168 -4.05224e-19)
(8.98472 -4.92667 7.62438e-19)
(8.9108 -4.54631 -3.19927e-19)
(8.79961 -4.18714 2.00752e-20)
(8.66374 -3.85697 1.31292e-20)
(8.51419 -3.55959 -7.16121e-20)
(8.3594 -3.29515 6.64072e-20)
(8.20512 -3.06119 -4.74744e-21)
(8.0547 -2.85401 -1.99771e-21)
(7.90987 -2.66964 -4.11641e-21)
(7.77145 -2.50449 -5.33657e-21)
(7.63993 -2.35551 -3.80139e-20)
(7.51599 -2.22036 -4.5519e-21)
(7.40031 -2.0995 4.11592e-20)
(7.29419 -1.99874 6.83945e-21)
(-1.48669 0.130761 0)
(1.30759 1.5204 2.06645e-19)
(7.64675 6.48226 1.03567e-19)
(9.22402 12.3943 6.60569e-17)
(4.82192 19.2199 -1.30434e-16)
(-3.35031 23.3732 1.24517e-16)
(-13.0397 24.5709 -6.13374e-17)
(-22.7703 23.5244 0)
(-31.9121 20.4453 -6.25357e-19)
(-40.0162 15.7587 5.08463e-17)
(-46.6939 9.96634 -5.25315e-17)
(-51.7387 3.63057 -4.53444e-17)
(-55.1642 -2.94855 8.84605e-17)
(-56.9454 -9.70029 -4.54658e-18)
(-56.7523 -16.6793 -5.26004e-18)
(-53.7214 -24.0368 -3.4351e-17)
(-46.54 -32.0838 -6.06193e-20)
(-33.6008 -41.5104 1.64828e-17)
(-13.7109 -52.9038 -1.68387e-17)
(10.7592 -64.6224 -2.31634e-19)
(30.9106 -72.3184 6.13662e-20)
(37.4545 -72.8984 4.19903e-19)
(30.5542 -67.4657 -1.84064e-18)
(18.427 -59.3825 -1.71083e-19)
(8.02513 -51.2072 2.06512e-18)
(1.1934 -43.9023 4.73114e-20)
(-2.91506 -37.4933 -3.85468e-19)
(-5.26466 -31.7595 -3.56044e-19)
(-6.40503 -26.6228 1.73494e-18)
(-6.67199 -22.0978 -1.12705e-18)
(-6.33357 -18.2437 0)
(-5.59912 -15.0295 3.37266e-18)
(-4.5474 -12.4813 -6.20629e-18)
(-3.21547 -10.5454 2.91453e-18)
(-1.69448 -9.10409 -2.02625e-18)
(-0.132498 -8.02067 2.13557e-18)
(1.3127 -7.17047 4.79014e-20)
(2.51852 -6.45742 0)
(3.42468 -5.82358 -2.52278e-20)
(4.03062 -5.25089 3.58255e-19)
(4.36992 -4.75782 -4.16118e-19)
(4.49584 -4.37848 3.09454e-20)
(4.47724 -4.13364 -2.18858e-20)
(4.3891 -4.02044 0)
(4.29878 -4.01923 0)
(4.25548 -4.10288 8.95132e-19)
(4.28595 -4.24407 -9.35201e-19)
(4.39928 -4.42023 -7.76244e-20)
(4.59292 -4.6153 -1.2461e-18)
(4.85949 -4.8189 2.61282e-18)
(5.19018 -5.02437 -1.22811e-18)
(5.57596 -5.22671 0)
(6.00746 -5.42122 1.43375e-18)
(6.47485 -5.60296 -1.34126e-18)
(6.96761 -5.76646 0)
(7.4745 -5.90574 1.28763e-18)
(7.98347 -6.01431 -1.19908e-18)
(8.48163 -6.08529 1.04301e-18)
(8.9552 -6.11161 -8.99055e-19)
(9.38968 -6.08642 0)
(9.77027 -6.00376 1.91714e-19)
(10.0825 -5.85934 7.62468e-20)
(10.3135 -5.65172 -5.18835e-19)
(10.4531 -5.38362 1.38091e-19)
(10.4965 -5.06294 4.15245e-19)
(10.4454 -4.70328 0)
(10.3096 -4.32293 2.57308e-20)
(10.106 -3.94246 0)
(9.85632 -3.58113 0)
(9.58299 -3.2534 -1.54119e-19)
(9.30531 -2.96702 1.50242e-19)
(9.03712 -2.72315 5.7953e-20)
(8.78624 -2.51799 -2.02799e-20)
(8.55561 -2.3452 -3.92809e-20)
(8.34496 -2.19794 -8.88392e-21)
(8.15253 -2.0702 8.62023e-21)
(7.97632 -1.95726 2.34987e-21)
(7.81479 -1.85581 1.14203e-20)
(7.6667 -1.76553 -2.77828e-20)
(7.5315 -1.69059 6.45635e-21)
(33.6798 -12.2944 6.24164e-17)
(97.3747 -32.6611 -4.65576e-17)
(118.647 -39.8119 -4.33178e-17)
(80.8542 -20.5887 4.44566e-17)
(27.8684 3.4471 -9.89005e-20)
(-4.13098 19.7101 -9.48575e-20)
(-18.7661 28.9564 0)
(-25.7694 34.98 3.3745e-17)
(-29.1276 39.186 -3.47733e-17)
(-30.1219 41.9881 0)
(-29.3018 43.657 -2.80138e-17)
(-26.9477 44.5064 5.48154e-17)
(-23.2731 44.7771 -2.3481e-18)
(-18.4194 44.6183 -4.78952e-17)
(-12.4267 44.1448 2.31617e-17)
(-5.4075 43.4059 -9.18156e-20)
(2.28704 42.2924 3.87174e-19)
(10.0669 40.5179 0)
(17.3513 37.6794 1.34662e-17)
(23.6114 33.489 -1.36739e-17)
(28.2985 28.0831 1.23353e-19)
(31.0517 22.2789 6.7356e-18)
(32.0508 17.2787 -6.85912e-18)
(31.9483 13.8674 3.12363e-18)
(31.3824 12.0712 -3.19266e-18)
(30.6236 11.5061 -4.6148e-20)
(29.6027 11.7441 8.97763e-19)
(28.1625 12.5432 -2.61437e-19)
(26.2664 13.7106 -1.06075e-18)
(24.0839 15.0198 1.04394e-21)
(21.91 16.1933 3.66675e-19)
(20.0345 16.979 2.16813e-19)
(18.6239 17.2134 -2.68199e-19)
(17.6785 16.8592 0)
(17.0409 15.9872 -4.59038e-20)
(16.447 14.7517 -4.70735e-20)
(15.6379 13.3431 0)
(14.4698 11.928 -2.12942e-18)
(12.9295 10.6033 2.19074e-18)
(11.1051 9.4041 4.40559e-20)
(9.16146 8.33105 0)
(7.30786 7.35013 -3.07361e-20)
(5.74874 6.40666 -1.40644e-18)
(4.62685 5.45848 1.41909e-18)
(3.98433 4.49488 0)
(3.76944 3.53475 2.62569e-19)
(3.87994 2.60654 -2.12651e-19)
(4.20107 1.73563 0)
(4.64813 0.943532 0)
(5.16659 0.236315 -6.45743e-20)
(5.72613 -0.389672 -7.19402e-20)
(6.31037 -0.943382 0)
(6.90956 -1.4349 1.16804e-18)
(7.5162 -1.87368 -1.2374e-18)
(8.12315 -2.26732 -1.29057e-18)
(8.72275 -2.62104 9.57022e-20)
(9.30669 -2.93749 2.45681e-18)
(9.86547 -3.21639 -2.32521e-18)
(10.3881 -3.45463 -5.053e-20)
(10.8617 -3.64658 8.9905e-19)
(11.2717 -3.7847 -1.0261e-19)
(11.602 -3.8602 0)
(11.8359 -3.86489 0)
(11.9576 -3.7933 4.75236e-19)
(11.9555 -3.64529 -5.1762e-19)
(11.8257 -3.42891 0)
(11.577 -3.16143 3.0257e-20)
(11.2319 -2.86784 0)
(10.8238 -2.57585 1.17208e-19)
(10.3903 -2.30941 -1.14367e-19)
(9.96437 -2.08374 1.68456e-20)
(9.56939 -1.90378 9.68137e-20)
(9.21678 -1.76592 -8.31575e-20)
(8.90833 -1.66173 7.22523e-21)
(8.63978 -1.58157 0)
(8.40456 -1.51705 0)
(8.19624 -1.46191 0)
(8.00982 -1.41219 -1.92463e-20)
(7.84144 -1.36712 1.52367e-21)
(7.68817 -1.3299 2.45134e-20)
(15.9817 -4.96296 4.17943e-17)
(33.1008 -9.06863 6.05299e-17)
(38.6849 -12.9323 -6.19286e-17)
(38.3051 -10.6815 5.80125e-17)
(34.9535 -6.09668 -5.92056e-17)
(30.5931 1.99577 2.23451e-20)
(23.5663 12.772 2.26699e-20)
(14.0506 24.6826 0)
(3.89129 35.9138 3.32456e-19)
(-5.42805 45.4303 0)
(-12.9316 53.0128 4.18146e-20)
(-17.7445 58.5756 -4.09435e-17)
(-19.0517 61.918 4.18592e-17)
(-16.5908 62.9536 3.25109e-17)
(-11.244 62.0194 -3.32677e-17)
(-4.85038 59.8218 2.50888e-17)
(0.887093 57.0146 -2.57279e-17)
(5.25184 53.8906 0)
(8.55938 50.3907 0)
(11.5672 46.269 0)
(14.8093 41.2729 -1.2174e-17)
(18.2649 35.4958 2.17197e-17)
(21.4972 29.5396 -2.48195e-18)
(23.8804 24.1147 -1.3034e-17)
(24.9987 19.673 5.76828e-18)
(24.7404 16.2686 0)
(23.2289 13.7355 1.12751e-19)
(20.6858 11.9185 0)
(17.33 10.7503 -3.63145e-18)
(13.3565 10.1749 3.53339e-18)
(9.03946 10.0399 -7.43133e-20)
(4.72281 10.1076 0)
(0.725571 10.1717 2.86941e-18)
(-2.67533 10.0892 -5.28397e-18)
(-5.24265 9.74212 2.44065e-18)
(-6.82616 9.06463 -1.43746e-18)
(-7.42787 8.09678 2.54473e-18)
(-7.21943 6.97227 -1.10426e-18)
(-6.47762 5.85055 0)
(-5.46967 4.85982 0)
(-4.37411 4.07267 0)
(-3.26769 3.50793 4.63312e-19)
(-2.16086 3.14457 -1.33592e-18)
(-1.04252 2.93729 8.8358e-19)
(0.0850809 2.831 0)
(1.21196 2.77437 -9.76415e-19)
(2.32053 2.73809 9.6621e-19)
(3.38869 2.703 1.13099e-18)
(4.40446 2.65513 1.46101e-20)
(5.36113 2.58507 8.11971e-20)
(6.2566 2.48719 6.73587e-20)
(7.0916 2.35797 -1.34033e-18)
(7.86827 2.19427 0)
(8.58967 1.99346 0)
(9.25952 1.75465 -1.29135e-18)
(9.88147 1.47831 1.35334e-18)
(10.4582 1.16658 0)
(10.9912 0.824868 0)
(11.4792 0.461825 6.25477e-20)
(11.918 0.0893689 1.22993e-19)
(12.2991 -0.277446 0)
(12.6097 -0.620797 0)
(12.8326 -0.920955 -7.02682e-20)
(12.9467 -1.15792 -5.71365e-20)
(12.9292 -1.31484 4.17899e-19)
(12.7624 -1.38315 -6.37157e-19)
(12.4432 -1.36764 3.60163e-20)
(11.9912 -1.28798 3.51539e-19)
(11.449 -1.17438 -2.68207e-19)
(10.8717 -1.05852 1.84065e-19)
(10.3118 -0.964448 -4.2706e-20)
(9.80653 -0.903738 -5.69322e-20)
(9.37343 -0.876092 7.29457e-20)
(9.01273 -0.87367 -7.03092e-21)
(8.71429 -0.88614 -1.14456e-19)
(8.46442 -0.904342 6.10761e-20)
(8.25054 -0.921847 0)
(8.06315 -0.935058 1.13869e-20)
(7.89556 -0.943573 0)
(7.74253 -0.950567 -4.05337e-20)
(24.9951 -9.21109 0)
(54.1677 -19.864 -2.33734e-19)
(67.17 -27.7522 2.32929e-19)
(77.0823 -32.3492 6.1632e-17)
(87.3828 -36.2703 -1.24246e-16)
(89.6958 -36.0662 6.30329e-17)
(77.537 -30.2103 -2.25674e-20)
(52.1721 -20.6466 0)
(21.6642 -10.4891 0)
(-6.00009 -1.6325 0)
(-27.1555 5.4215 -4.17051e-20)
(-41.9844 10.7892 2.33452e-19)
(-52.0165 14.6305 0)
(-58.6168 16.8935 -2.2736e-19)
(-62.6445 17.3908 -2.97731e-19)
(-64.6623 16.1443 -3.52983e-17)
(-65.2795 13.5876 3.57635e-17)
(-65.3685 10.4975 2.45281e-19)
(-65.7067 7.65571 0)
(-65.9846 5.31841 -1.6143e-19)
(-64.362 3.03245 -2.73494e-20)
(-58.8009 0.0514687 -4.18981e-18)
(-49.3757 -3.86027 2.63247e-18)
(-38.5786 -8.2386 1.63438e-18)
(-29.0782 -12.2268 -9.48789e-20)
(-21.981 -15.2412 -8.22866e-21)
(-16.9483 -17.2378 -4.21405e-18)
(-13.2206 -18.3976 4.10827e-18)
(-10.354 -18.8278 5.65143e-20)
(-8.29084 -18.5971 1.41465e-19)
(-7.0073 -17.7564 1.38609e-19)
(-6.31692 -16.3576 -4.46096e-18)
(-5.9383 -14.542 4.49939e-18)
(-5.58325 -12.4908 1.37517e-19)