/*--------------------------------*- C++ -*----------------------------------*\
| =========                 |                                                 |
| \\      /  F ield         | OpenFOAM: The Open Source CFD Toolbox           |
|  \\    /   O peration     | Version:  2012                                  |
|   \\  /    A nd           | Website:  www.openfoam.com                      |
|    \\/     M anipulation  |                                                 |
\*---------------------------------------------------------------------------*/
FoamFile
{
    version     2.0;
    format      ascii;
    class       volScalarField;
    location    "0.74";
    object      p;
}
// * * * * * * * * * * * * * * * * * * * * * * * * * * * * * * * * * * * * * //

dimensions      [0 2 -2 0 0 0 0];


internalField   nonuniform List<scalar> 
42400
(
-15155.8
-14682.3
-14078.3
-13352
-12481.9
-11444
-10180.1
-8703.6
-7127.59
-5603.82
-4248.64
-3119.6
-2229.35
-1562.62
-1088.55
-770.091
-570.63
-460.374
-416.771
-422.598
-460.048
-511.41
-564.219
-612.803
-652.739
-678.641
-689.537
-688.5
-678.793
-661.05
-634.986
-599.074
-552.741
-497.049
-434.646
-369.107
-304.533
-244.4
-190.926
-145.324
-107.373
-76.2501
-50.8231
-29.9652
-12.6672
1.87246
14.2158
24.7016
33.4897
40.6368
46.1791
50.1934
52.8214
54.2572
54.7162
54.4069
53.5151
52.1988
50.5879
48.785
46.8662
44.8824
42.8634
40.8228
38.7642
36.6866
34.589
32.4735
30.3463
28.2171
26.0975
23.9991
21.9325
19.9063
17.9286
16.0068
14.1488
12.3549
10.6115
8.96339
-4254.51
-4401.97
-4648.58
-4968.49
-5343.21
-5709.43
-6027.34
-6274.61
-6440.76
-6512.89
-6476.55
-6325.23
-6067.73
-5726.79
-5324.96
-4876.2
-4393.52
-3897.48
-3412.66
-2958.53
-2544.97
-2171.24
-1827.92
-1502.78
-1188.37
-887.666
-612.485
-378.681
-196.766
-66.9245
19.1342
72.4044
103.41
120.352
128.59
131.189
129.869
125.752
119.666
112.786
105.595
98.5621
92.1317
86.5721
82.0288
78.5182
75.9382
74.084
72.6835
71.4502
70.1381
68.5834
66.7224
64.5791
62.2277
59.7511
57.215
54.6623
52.1199
49.6054
47.1301
44.6999
42.3154
39.9733
37.6682
35.3943
33.1479
30.9275
28.7346
26.5728
24.4471
22.3634
20.3275
18.3453
16.4231
14.5674
12.785
11.0812
9.4668
7.99169
4000.93
4033.73
4107.14
4246.51
4439.28
4688.43
4946.72
5151.11
5249.32
5208.36
5027.24
4753.3
4450.34
4145.88
3839.31
3535.62
3240.69
2952.56
2667.82
2387.87
2120.2
1875.56
1661.86
1480.12
1327.34
1198.59
1089.06
994.532
911.458
837.057
769.168
706.141
646.792
590.338
536.448
485.195
436.583
390.731
347.969
308.41
272.179
239.421
210.207
184.517
162.252
143.246
127.266
114.006
103.104
94.17
86.8065
80.6383
75.3386
70.6519
66.3992
62.4657
58.7812
55.3038
52.0094
48.884
45.9167
43.096
40.408
37.8369
35.3663
32.9816
30.6708
28.4255
26.2408
24.1145
22.047
20.0404
18.0975
16.2219
14.417
12.6864
11.033
9.4587
7.96873
6.57613
12676.4
12525.6
12278.5
11885.2
11348.2
10814.9
10285
9686.32
8919.82
7914.56
6764.67
5756.05
5096.96
4700.13
4395.73
4156.27
3999.19
3889.05
3781.89
3656.09
3509.68
3352.33
3194.39
3031.85
2849
2633.62
2386.81
2121.58
1855.37
1602.97
1373.35
1170.11
993.469
841.956
713.108
604.018
512.056
434.809
370.102
315.962
270.632
232.604
200.621
173.659
150.912
131.767
115.772
102.574
91.8582
83.2811
76.4418
70.9023
66.2475
62.1498
58.4009
54.8987
51.6071
48.515
45.6113
42.8778
40.2904
37.8239
35.455
33.1648
30.9388
28.7672
26.6443
24.5679
22.5383
20.5576
18.629
16.7566
14.9442
13.1959
11.5153
9.90587
8.37057
6.91162
5.53361
4.23983
-39.0547
387.927
938.199
1442.14
1924.54
2434.66
3022.68
3614.28
4092.61
4380.74
4472.83
4420.54
4278.92
4071.86
3811.51
3511
3184.25
2849.02
2520.12
2201.49
1897.87
1624.16
1397.43
1227.37
1105.6
1008.68
912.631
805.564
689.529
573.747
467.471
376.207
301.455
242.163
196.147
160.991
134.489
114.736
100.149
89.4473
81.6112
75.8459
71.541
68.236
65.591
63.3625
61.383
59.5429
57.7735
56.0312
54.285
52.5101
50.6862
48.8004
46.8482
44.8339
42.7672
40.6616
38.5312
36.3897
34.2489
32.1202
30.0114
27.9292
25.8788
23.8644
21.8897
19.9583
18.0735
16.2387
14.4576
12.7336
11.0702
9.47047
7.93731
6.47311
5.07969
3.75813
2.51178
1.33402
-5203.73
-5398.59
-5555.61
-5574.43
-5512.69
-5419.66
-5364.36
-5391.09
-5529.08
-5782.61
-6122.42
-6500.91
-6875.62
-7204.95
-7424.63
-7463.26
-7313.5
-7044.02
-6718.79
-6351.16
-5940.31
-5491.04
-5002.96
-4477.2
-3932.8
-3401.06
-2908.39
-2468.22
-2083.15
-1750.32
-1464.37
-1219.07
-1008.64
-828.231
-674.13
-543.277
-432.984
-340.758
-264.261
-201.321
-149.958
-108.393
-75.0473
-48.5375
-27.6631
-11.3956
1.13685
10.6638
17.7874
22.9977
26.688
29.1711
30.6951
31.4572
31.6161
31.3003
30.6144
29.6431
28.4545
27.103
25.6316
24.0743
22.458
20.8043
19.1306
17.4513
15.7787
14.123
12.4931
10.8968
9.34091
7.83124
6.37279
4.96977
3.62558
2.34289
1.12362
-0.0310036
-1.11802
-2.1507
-11733.8
-11541.2
-11324.3
-11075.7
-10812.2
-10573.9
-10351.5
-10119.5
-9852.46
-9525.49
-9116.73
-8615.16
-8039.24
-7457.66
-6934.41
-6441.54
-5924.93
-5419.17
-4981.65
-4598.09
-4223.97
-3843.36
-3459.16
-3074.89
-2697.6
-2335.81
-1997.69
-1688.29
-1409.56
-1163.63
-952.949
-778.243
-636.543
-522.005
-428.272
-349.894
-283.533
-227.119
-179.286
-139.041
-105.526
-77.9088
-55.3786
-37.1646
-22.5662
-10.9679
-1.84268
5.25282
10.6873
14.7647
17.7344
19.8003
21.1289
21.8562
22.0941
21.9346
21.4541
20.716
19.7737
18.6719
17.4481
16.1338
14.7555
13.3354
11.8921
10.4411
8.99526
7.56549
6.1608
4.78876
3.45573
2.16702
0.927011
-0.260774
-1.39355
-2.4692
-3.48626
-4.44368
-5.33879
-6.19146
5176.51
5169.79
5175.12
5221.8
5309.71
5451.29
5640.27
5852.74
6056.76
6233.62
6379.5
6484.85
6516.2
6430.55
6224.96
5951.97
5662.78
5364.83
5045.53
4697.5
4317.39
3909.67
3488.45
3068.23
2659.66
2267.42
1897.08
1560
1273.38
1047.09
877.068
748.024
642.069
546.45
456.274
372.376
297.692
234.068
182.231
141.176
109.179
84.5816
65.942
52.028
41.7947
34.369
29.0372
25.2292
22.5008
20.5129
19.0125
17.815
16.7887
15.843
14.9176
13.975
12.9939
11.9647
10.8859
9.76114
8.59722
7.40295
6.18794
4.96209
3.7349
2.51528
1.3114
0.130563
-1.02081
-2.13721
-3.21397
-4.24721
-5.23375
-6.17114
-7.05755
-7.8917
-8.67277
-9.39996
-10.0713
-10.7146
13753.3
13446.7
13009.5
12389.6
11539.2
10609.5
9687.59
8833.11
8059.84
7348.39
6679.1
6041.75
5430.57
4840.07
4263.94
3702.27
3167.85
2680.1
2252.89
1890.89
1594.58
1362.29
1184.38
1040.69
909.064
771.672
619.69
463.428
323.831
223.158
168.52
146.512
134.61
117.34
92.8111
66.9362
45.843
32.4402
25.2698
21.6855
19.8663
18.7285
17.7857
16.8724
15.9392
14.9722
13.9724
12.9495
11.9154
10.8797
9.84667
8.81577
7.78337
6.7446
5.695
4.63169
3.55382
2.46275
1.3618
0.255798
-0.849399
-1.94743
-3.0323
-4.09682
-5.13567
-6.14368
-7.11639
-8.0501
-8.9418
-9.78914
-10.5904
-11.3443
-12.0503
-12.7078
-13.317
-13.878
-14.3913
-14.8569
-15.2744
-15.6787
-12372.8
-12029.1
-11645.5
-11228.4
-10732
-10116.2
-9363.08
-8514.79
-7646.91
-6825.67
-6089.42
-5450.62
-4901.24
-4417.49
-3969.46
-3532.67
-3094.99
-2655.67
-2220.04
-1790.93
-1367.2
-951.1
-554.906
-202.123
82.0002
280.284
392.071
431.757
423.533
390.197
345.253
293.978
239.442
185.705
136.705
94.8277
61.1567
35.7992
18.447
7.95324
2.28612
-0.323034
-1.05209
-0.736485
-0.00819427
0.693011
1.12536
1.20665
0.951043
0.414031
-0.340939
-1.25699
-2.28742
-3.39462
-4.54833
-5.72382
-6.90067
-8.06219
-9.1949
-10.2882
-11.3341
-12.3272
-13.2634
-14.1409
-14.9586
-15.7167
-16.416
-17.0578
-17.6438
-18.1758
-18.6559
-19.0861
-19.4685
-19.805
-20.0976
-20.3483
-20.5586
-20.7295
-20.8619
-20.9964
3560.97
3338.54
3010.57
2567.86
2000.8
1372.5
709.134
24.4017
-665.384
-1333.37
-1942.17
-2451.65
-2831.62
-3070.73
-3176.33
-3167.01
-3065.51
-2894.93
-2677.27
-2433.2
-2181.54
-1934.81
-1701.71
-1487.11
-1293.54
-1121.95
-970.329
-832.348
-699.501
-566.157
-433.331
-308.152
-199.591
-114.033
-53.4238
-15.6575
4.0096
11.2537
11.6267
9.88585
7.48963
5.28676
3.6233
2.40565
1.39451
0.359528
-0.851257
-2.2985
-3.9732
-5.82582
-7.78925
-9.79436
-11.7784
-13.6925
-15.4959
-17.1663
-18.6904
-20.0631
-21.2858
-22.3641
-23.3064
-24.1222
-24.8221
-25.4162
-25.9145
-26.3262
-26.6599
-26.9233
-27.1235
-27.2668
-27.3588
-27.4046
-27.4085
-27.3746
-27.3063
-27.2067
-27.0782
-26.9221
-26.7407
-26.5773
4113.62
4073.36
4094.56
4237
4454.32
4692.79
4882.75
4984.85
4978.29
4850.11
4603.27
4260.63
3854.51
3414.63
2967.43
2540.35
2156.86
1827.64
1549.24
1308.02
1086.31
868.015
647.273
430.931
233.576
69.2701
-53.7719
-134.1
-176.302
-187.975
-177.963
-154.974
-126.454
-97.8107
-72.3568
-51.7803
-36.5456
-25.9946
-18.8707
-14.5202
-11.579
-9.59574
-8.6441
-8.79023
-9.97701
-12.003
-14.5849
-17.4412
-20.344
-23.1333
-25.7114
-28.0255
-30.0339
-31.7851
-33.2702
-34.5109
-35.5325
-36.3583
-37.0092
-37.505
-37.8626
-38.0971
-38.2225
-38.2511
-38.1945
-38.0631
-37.8665
-37.6132
-37.311
-36.9671
-36.5876
-36.1781
-35.7433
-35.2875
-34.8142
-34.3264
-33.8266
-33.3158
-32.7962
-32.3114
2010.33
1840.62
1579.43
1246.65
868.59
532.132
250.087
2.92126
-229.139
-453.166
-659.668
-830.306
-946.981
-996.908
-975.545
-888.742
-752.06
-588.366
-420.241
-262.632
-121.652
0.446328
100.312
173.519
218.078
237.238
236.704
222.985
202.307
178.998
155.703
133.601
113.051
93.9027
75.8563
59.0888
43.7183
29.7511
16.8504
5.03636
-5.54392
-14.8002
-22.7244
-29.3739
-34.8504
-39.2856
-42.831
-45.6465
-47.8846
-49.6748
-51.1157
-52.2738
-53.1904
-53.8923
-54.3946
-54.7087
-54.8466
-54.8209
-54.6455
-54.3357
-53.9072
-53.3756
-52.7562
-52.0631
-51.3095
-50.5073
-49.6668
-48.7973
-47.9065
-47.0012
-46.0871
-45.1691
-44.2511
-43.3364
-42.4277
-41.527
-40.6359
-39.7541
-38.8835
-38.0646
-13784.9
-13069.3
-12155.6
-11102.9
-9809.56
-8344.77
-6789.89
-5294.87
-4001.02
-2980.46
-2247.28
-1793.92
-1600.06
-1619.62
-1778.37
-1990.73
-2190.75
-2349.16
-2458.64
-2509.89
-2487.63
-2382.31
-2199.1
-1957.78
-1685.54
-1408.57
-1146.64
-911.328
-708.049
-537.881
-399.292
-289.24
-204.22
-140.709
-95.3337
-65.149
-47.0777
-38.2431
-36.103
-38.4769
-43.561
-49.9335
-56.5498
-62.7156
-68.0391
-72.364
-75.6935
-78.1206
-79.7729
-80.778
-81.2479
-81.2751
-80.9358
-80.2942
-79.4059
-78.3198
-77.0784
-75.7181
-74.2685
-72.7543
-71.1954
-69.6078
-68.0045
-66.3958
-64.7903
-63.1946
-61.6143
-60.0539
-58.5171
-57.0067
-55.5251
-54.0742
-52.6552
-51.2693
-49.917
-48.5987
-47.3143
-46.062
-44.8422
-43.6901
7126.35
6795.07
6338.07
5710
4852.97
3845.07
2757.78
1668.16
638.637
-289.677
-1086.23
-1722.07
-2173.38
-2436.4
-2535.12
-2509.79
-2403.32
-2246.57
-2059.15
-1855.69
-1648.61
-1447.78
-1259.69
-1087.47
-932.642
-795.454
-675.824
-573.614
-486.762
-413.963
-354.136
-306.073
-268.329
-239.277
-217.243
-200.701
-188.387
-179.284
-172.52
-167.295
-162.902
-158.773
-154.541
-150.041
-145.271
-140.337
-135.386
-130.564
-125.979
-121.69
-117.709
-114.014
-110.561
-107.304
-104.201
-101.23
-98.3431
-95.5361
-92.7969
-90.1178
-87.4953
-84.9281
-82.4167
-79.9623
-77.5666
-75.2309
-72.9566
-70.7447
-68.5961
-66.511
-64.4894
-62.531
-60.6351
-58.8007
-57.0268
-55.3119
-53.6547
-52.0516
-50.5018
-49.033
1526.62
1926.65
2559.89
3348.24
4212.18
5030.84
5746.67
6307.39
6674.93
6837.77
6807.18
6608.56
6273.14
5832.73
5319.01
4762.05
4188.38
3619.04
3070.24
2553.98
2080.21
1656.71
1288.06
974.415
711.524
492.966
311.585
160.823
34.4618
-70.8655
-157.352
-226.629
-279.637
-316.615
-337.591
-343.355
-336.178
-319.736
-298.278
-275.545
-254.06
-235.011
-218.613
-204.596
-192.519
-182.013
-172.781
-164.602
-157.307
-150.756
-144.826
-139.405
-134.393
-129.706
-125.278
-121.058
-117.01
-113.111
-109.343
-105.696
-102.164
-98.7425
-95.4292
-92.2226
-89.1213
-86.1241
-83.2294
-80.4358
-77.7412
-75.1435
-72.6405
-70.2296
-67.9083
-65.6739
-63.5236
-61.4547
-59.4642
-57.5474
-55.7021
-53.9476
7992.93
7559.05
6986.92
6264.32
5280.58
4189.72
3116.59
2182.68
1450.06
900.778
475.434
126.434
-158.032
-368.506
-499.689
-559.684
-565.079
-532.99
-477.516
-409.012
-334.812
-260.724
-191.827
-132.619
-86.702
-55.73
-38.634
-33.2662
-36.6771
-46.2188
-59.8248
-76.034
-93.7803
-112.237
-130.74
-148.638
-165.17
-179.521
-190.955
-199.117
-204.057
-206.089
-205.664
-203.277
-199.412
-194.504
-188.92
-182.951
-176.813
-170.658
-164.59
-158.672
-152.941
-147.416
-142.101
-136.994
-132.086
-127.366
-122.823
-118.448
-114.231
-110.166
-106.246
-102.468
-98.8271
-95.32
-91.9432
-88.6934
-85.5672
-82.5611
-79.6715
-76.8948
-74.2274
-71.6655
-69.2055
-66.8436
-64.5761
-62.3975
-60.3044
-58.3076
-10108.8
-9683.92
-9123.21
-8495.29
-7799.42
-7138.6
-6563.63
-6087.93
-5683.84
-5310.81
-4955.76
-4630.49
-4338.02
-4064.39
-3798.62
-3539.02
-3286.03
-3039.5
-2799.2
-2565.62
-2340.33
-2125.31
-1921.95
-1731.28
-1553.45
-1387.91
-1234.47
-1092.83
-963.084
-845.677
-740.912
-648.656
-568.354
-499.185
-439.832
-389.578
-347.704
-313.408
-285.82
-264.008
-247.007
-233.834
-223.517
-215.17
-208.056
-201.632
-195.553
-189.643
-183.833
-178.119
-172.516
-167.042
-161.701
-156.492
-151.406
-146.433
-141.564
-136.795
-132.124
-127.554
-123.089
-118.737
-114.505
-110.399
-106.424
-102.583
-98.8786
-95.3102
-91.8765
-88.5752
-85.403
-82.3564
-79.4316
-76.6245
-73.9309
-71.3465
-68.8674
-66.4874
-64.2022
-62.0148
-3513.66
-3365.16
-3150.91
-2879.25
-2540.6
-2204.62
-1905.26
-1662.89
-1484.64
-1367.81
-1303.04
-1274.2
-1256.91
-1231.17
-1190.29
-1137.67
-1079.79
-1022.15
-968.504
-921.133
-880.936
-846.994
-816.626
-786.114
-752.778
-715.258
-673.674
-629.903
-586.942
-547.822
-514.49
-487.265
-465.041
-445.9
-427.766
-408.923
-388.335
-365.748
-341.566
-316.598
-291.784
-268.063
-246.332
-227.347
-211.56
-199.051
-189.528
-182.423
-177.066
-172.824
-169.189
-165.79
-162.388
-158.847
-155.103
-151.146
-146.994
-142.687
-138.27
-133.793
-129.303
-124.842
-120.446
-116.144
-111.959
-107.903
-103.985
-100.21
-96.5781
-93.0871
-89.7336
-86.5138
-83.4231
-80.4568
-77.6102
-74.8785
-72.2573
-69.7403
-67.3223
-65.0001
4442.26
4289.07
4093.33
3844.17
3525.01
3169.19
2794.11
2412.35
2030.77
1651.59
1282.15
938.492
638.046
389.314
190.044
32.714
-90.4626
-185.698
-257.727
-310.422
-347.251
-370.611
-381.722
-381.99
-372.462
-353.889
-327.356
-294.543
-257.944
-220.474
-184.87
-153.2
-126.278
-104.668
-88.7173
-78.5194
-74.0682
-74.9233
-80.3174
-89.5004
-101.468
-115.026
-128.97
-142.23
-153.625
-162.65
-169.264
-173.505
-175.61
-175.921
-174.796
-172.567
-169.515
-165.867
-161.794
-157.426
-152.854
-148.151
-143.372
-138.568
-133.781
-129.054
-124.42
-119.908
-115.539
-111.325
-107.272
-103.38
-99.646
-96.0638
-92.6274
-89.33
-86.1651
-83.1265
-80.2083
-77.4053
-74.7125
-72.1233
-69.6318
-67.2307
-2508.46
-2492.54
-2469.49
-2419.93
-2350.9
-2230.27
-2024.19
-1708.69
-1311.65
-922.431
-631.777
-463.318
-379.676
-335.963
-301.651
-263.483
-223.389
-187.948
-159.699
-141.694
-137.883
-138.017
-116.52
-60.9877
11.2108
72.1736
105.723
112.637
100.163
76.0004
45.9471
14.355
-15.6745
-42.268
-64.5548
-82.4414
-96.4911
-107.667
-117.075
-125.755
-134.535
-143.943
-154.182
-165.176
-176.609
-187.989
-198.707
-208.067
-215.341
-219.915
-221.42
-219.465
-213.849
-204.537
-192.091
-176.37
-158.066
-138.545
-118.599
-98.9886
-80.4532
-63.5869
-48.738
-35.9593
-25.0396
-15.6113
-7.30584
0.100591
6.62596
12.1332
16.4551
19.5182
21.401
22.3112
22.5161
22.2702
21.7681
21.1282
20.4034
19.6072
5951.24
5864.54
5726.72
5504.53
5199.36
4846.66
4480.31
4129.58
3812.7
3531.66
3273.79
3022.47
2767.98
2508.17
2247.29
1993.64
1754.85
1533.7
1327.64
1132.48
945.884
768.604
603.585
451.058
308.407
178.312
65.4868
-29.5426
-109.478
-174.842
-223.972
-256.8
-275.674
-284.091
-285.434
-282.511
-277.673
-272.668
-268.604
-266.073
-265.323
-266.286
-268.562
-271.667
-275.107
-278.218
-280.244
-280.474
-278.231
-272.787
-263.614
-250.519
-233.671
-213.497
-190.442
-165.922
-140.758
-115.667
-91.4003
-68.6292
-47.9526
-29.8443
-14.5821
-2.22248
7.3749
14.5363
19.751
23.5207
26.1946
27.9171
28.7122
28.6225
27.7956
26.4739
24.9281
23.3896
22.0081
20.8399
19.8633
19.013
-5517.32
-5316.69
-5055.31
-4761.9
-4420.52
-4074.2
-3732.93
-3402.56
-3085.74
-2782.17
-2491.4
-2214.08
-1950.85
-1704.78
-1478.88
-1275.33
-1094.68
-934.841
-792.047
-662.548
-542.389
-428.902
-322.879
-228.497
-149.617
-85.8882
-35.9142
0.0801544
21.225
27.8994
21.5551
4.81764
-19.5145
-48.9147
-80.8877
-112.794
-142.328
-167.878
-188.548
-204.082
-214.751
-221.132
-223.723
-222.755
-218.496
-211.439
-202.065
-190.7
-177.645
-163.297
-148.136
-132.4
-115.977
-98.9956
-81.6898
-63.8598
-46.0573
-29.0081
-13.34
0.432409
11.9774
21.1576
28.0336
32.8301
35.8963
37.6131
38.3834
38.465
38.0443
37.1734
35.8246
33.9986
31.7897
29.3824
26.9926
24.8028
22.9236
21.3853
20.1488
19.1375
1646.8
1605.78
1576.89
1561.4
1559.38
1553.43
1531.17
1482.01
1395.91
1262.69
1073.36
823.341
523.399
213.485
-46.0418
-217.895
-320.248
-401.572
-494.342
-604.078
-724.037
-844.999
-956.214
-1046.82
-1108.75
-1138.3
-1134.78
-1100.33
-1039.75
-959.973
-868.446
-772.46
-677.934
-588.984
-508.146
-436.712
-375.086
-322.994
-279.793
-244.652
-216.446
-193.966
-176.071
-161.697
-149.912
-139.952
-131.207
-123.204
-115.581
-108.061
-100.412
-92.4201
-83.8992
-74.7143
-64.7805
-54.09
-42.7575
-30.9966
-19.1074
-7.46352
3.51246
13.3934
21.8254
28.5991
33.6924
37.2066
39.3186
40.0813
39.7059
38.4682
36.5706
34.2557
31.762
29.2845
26.9638
24.8879
23.0972
21.5908
20.3325
19.2772
4311.57
4265.15
4196.56
4078.62
3900.8
3666.41
3382.15
3052.94
2684.03
2276.32
1825.19
1326.24
801.864
326.05
-11.9031
-189.461
-262.88
-290.241
-291.796
-276.005
-256.453
-243.541
-239.667
-243.083
-251.438
-262.488
-274.248
-284.824
-292.631
-296.555
-296.031
-291.138
-282.298
-270.128
-255.475
-239.086
-221.672
-203.951
-186.557
-170.009
-154.684
-140.816
-128.493
-117.679
-108.244
-100.001
-92.7401
-86.2441
-80.2747
-74.6193
-69.0704
-63.4351
-57.5452
-51.2653
-44.5063
-37.238
-29.497
-21.3962
-13.1233
-4.92743
2.90565
10.0871
16.3633
21.5456
25.5275
28.2871
29.8722
30.6692
30.8197
30.3792
29.5167
28.3533
26.9952
25.5434
24.0856
22.6899
21.4023
20.2454
19.2185
18.3233
-10895.5
-10032.7
-8952.48
-7918.1
-6890.64
-5962.17
-5129.51
-4408.98
-3817.71
-3367.12
-3065.39
-2902.34
-2828.32
-2763.17
-2645.88
-2474.19
-2284.84
-2101.93
-1917.76
-1714.93
-1490.24
-1260.42
-1048.99
-869.328
-721.892
-601.554
-502.385
-419.742
-350.566
-292.999
-245.816
-207.826
-177.782
-154.381
-136.178
-121.931
-110.614
-101.4
-93.6672
-86.9824
-81.0695
-75.7551
-70.9243
-66.49
-62.3782
-58.525
-54.8749
-51.3692
-47.9397
-44.5192
-41.0726
-37.5055
-33.76
-29.7928
-25.5765
-21.1076
-16.4121
-11.5487
-6.60893
-1.71153
3.00706
7.40762
11.3658
14.7874
17.617
19.8402
21.475
22.5746
23.2012
23.3655
23.1945
22.7561
22.1169
21.3426
20.4924
19.6172
18.7568
17.9371
17.1691
16.4855
-477.078
-624.445
-849.692
-1157.17
-1546.56
-1939.22
-2279.5
-2545.5
-2742.21
-2885.71
-2988.14
-3054.81
-3084.3
-3070.67
-3006.66
-2886.11
-2702.39
-2448.67
-2119.35
-1714.58
-1256.23
-796.934
-402.045
-111.54
75.782
185.136
242.132
264.326
263.162
246.904
221.764
192.275
161.594
131.808
104.218
79.5632
58.1781
40.1124
25.2201
13.2582
3.90697
-3.19444
-8.41367
-12.1
-14.5659
-16.0786
-16.8542
-17.0594
-16.8194
-16.2199
-15.2926
-14.1162
-12.7302
-11.1677
-9.44789
-7.58039
-5.58793
-3.4702
-1.23894
1.08005
3.44242
5.78737
8.04514
10.147
12.034
13.6629
15.0077
16.0567
16.8103
17.3479
17.6222
17.6681
17.5228
17.2225
16.8055
16.3095
15.7687
15.2082
14.6442
14.1398
9781.77
9585.67
9393.8
9254.09
9107.73
9001.3
8892.57
8725.45
8470.56
8129.26
7716.48
7249.87
6745.54
6214.96
5665.42
5102.71
4533.7
3966.78
3411.82
2879.51
2381.31
1929.23
1533.06
1197.35
921.089
699.553
525.881
392.566
292.173
217.512
162.479
121.877
91.6804
68.92
51.4673
37.8774
27.1551
18.6138
11.7999
6.41023
2.21723
-0.96545
-3.29858
-4.92167
-5.95573
-6.50485
-6.65773
-6.48947
-6.06505
-5.44341
-4.68168
-3.84036
-2.97421
-2.13068
-1.4156
-0.757332
-0.113375
0.563255
1.33208
2.24801
3.33867
4.59106
5.95419
7.35418
8.71385
9.96791
11.0708
11.9982
12.7359
13.2575
13.5846
13.7387
13.7326
13.5888
13.3339
12.9966
12.6051
12.18
11.7373
11.3634
9392.05
9234.09
8934.5
8406.96
7641.83
6808.03
6014.7
5299.3
4662.11
4100.92
3613
3182.41
2776.37
2356.14
1899.65
1416.93
944.268
524.883
189.955
-49.3371
-200.319
-281.365
-313.257
-314.011
-296.713
-269.705
-238.291
-205.728
-174.05
-144.523
-117.948
-94.8087
-75.3255
-59.5132
-47.2005
-38.0548
-31.6042
-27.2925
-24.5689
-22.7676
-21.4809
-20.3718
-19.2301
-17.9645
-16.5658
-15.0709
-13.5335
-12.0037
-10.5181
-9.09711
-7.74781
-6.4681
-5.25539
-4.10674
-2.95681
-1.90944
-0.944038
-0.0501035
0.797767
1.63216
2.48996
3.40599
4.39857
5.4554
6.52971
7.55501
8.4698
9.22838
9.80898
10.2224
10.4391
10.5743
10.5408
10.3675
10.092
9.74508
9.35718
8.95041
8.54474
8.23728
-18155.6
-17772.4
-17323
-16803.1
-16160.9
-15401.2
-14527
-13552.4
-12478.3
-11280
-9936
-8465.72
-6956.09
-5534.33
-4309.35
-3321.73
-2549.99
-1948.29
-1473.95
-1097.55
-799.169
-564.251
-380.906
-239.068
-130.272
-47.9491
13.1062
56.3601
83.7996
96.685
96.1549
83.8656
62.5862
35.7544
7.07664
-19.9395
-42.428
-58.4639
-67.8436
-71.0292
-69.1528
-63.7231
-56.2661
-48.0757
-40.0929
-32.8969
-26.7632
-21.7477
-17.7703
-14.6826
-12.3152
-10.5041
-9.10306
-7.98727
-7.04748
-6.17152
-5.28814
-4.44505
-3.37129
-2.02694
-0.429356
1.35736
3.21567
4.9963
6.55904
7.81291
8.72209
9.29225
9.55944
9.58057
9.42975
9.05068
8.59138
7.99256
7.367
6.74259
6.14696
5.60432
5.13995
4.83797
1037.61
1258.05
1580.7
1936.55
2325.38
2612.94
2743.83
2706.28
2522.73
2240.11
1917.26
1609.28
1351.42
1150.36
990.776
848.542
702.866
544.33
374.461
200.939
33.1983
-119.215
-248.452
-348.969
-417.329
-452.143
-454.572
-430.48
-389.259
-340.155
-288.999
-237.608
-186.221
-135.244
-86.0836
-41.0403
-2.62265
27.3819
48.3318
59.8197
63.0128
60.2874
53.8477
45.3998
36.2581
27.3314
19.1683
12.0459
6.05154
1.15554
-2.73665
-5.74204
-7.97133
-9.50961
-10.4096
-10.6983
-10.3801
-9.31289
-7.69907
-5.60514
-3.15956
-0.559647
1.9678
4.21517
6.03768
7.3706
8.21682
8.62208
8.65208
8.37654
7.86009
7.15373
6.31179
5.46723
4.54937
3.65187
2.83115
2.13481
1.61718
1.34144
11029.9
10903.2
10746.4
10507.4
10161.6
9714.63
9167.28
8530.08
7827.31
7095.59
6376.89
5701.2
5073.45
4478.32
3895.39
3310.89
2720.64
2130.03
1552.7
1005.2
504.051
65.2492
-297.618
-574.479
-759.403
-852.608
-864.66
-817.417
-738.175
-649.811
-564.397
-485.573
-413.684
-348.574
-290.378
-239.525
-196.281
-160.536
-131.255
-107.71
-88.9699
-74.4611
-63.4513
-55.0688
-48.5628
-43.3429
-38.9602
-35.0453
-31.5073
-28.1969
-25.0874
-22.1885
-19.5065
-17.0258
-14.6995
-12.4541
-10.2076
-7.8822
-5.37127
-2.75604
-0.103309
2.47524
4.83017
6.81533
8.32419
9.30925
9.78086
9.79088
9.41115
8.71643
7.77582
6.6518
5.40063
4.08197
2.7794
1.53138
0.410601
-0.50653
-1.13905
-1.41555
-13075.8
-12786.3
-12422
-11931.2
-11261.5
-10419.8
-9464.46
-8456.85
-7421.9
-6355.12
-5259.67
-4168.21
-3132.74
-2200.8
-1401.78
-747.696
-237.565
139.364
398.03
554.615
627.016
635.391
600.85
542.774
476.05
409.978
346.923
284.036
217.046
145.484
72.8304
3.92937
-57.4269
-108.981
-149.414
-178.116
-195.087
-200.781
-196.651
-184.131
-166.086
-144.968
-123.009
-101.983
-83.0183
-66.6376
-52.9015
-41.5827
-32.3268
-24.7563
-18.5329
-13.3768
-9.05964
-5.3948
-2.22705
0.572544
3.11178
5.46471
7.58654
9.54058
11.2987
12.8009
13.9858
14.8009
15.2146
15.2226
14.8466
14.1271
13.1132
11.8557
10.4035
8.80466
7.11483
5.3762
3.65541
2.01492
0.530811
-0.70088
-1.63322
-2.01519
7707.94
7332.21
6872.42
6328.37
5598.67
4755.18
3810.91
2786.94
1729.73
709.479
-198.354
-938.408
-1488.52
-1859.74
-2086.57
-2211.79
-2270.05
-2279.62
-2245.74
-2167.42
-2043.31
-1877.54
-1679.7
-1462.92
-1241.99
-1030.56
-838.767
-672.396
-533.075
-419.277
-327.762
-254.778
-196.956
-151.478
-115.996
-88.6516
-67.8112
-52.0373
-40.3574
-32.1967
-26.5659
-22.8805
-20.7909
-19.4496
-18.0802
-16.1716
-13.5216
-10.1869
-6.37868
-2.36156
1.61882
5.37482
8.78886
11.8068
14.4217
16.6554
18.5414
20.1125
21.3921
22.3952
23.1239
23.5722
23.7306
23.5931
23.1609
22.4452
21.4659
20.249
18.8238
17.22
15.4664
13.5931
11.627
9.61768
7.60782
5.65352
3.79834
2.16173
0.635949
-0.260433
-1760.07
-1581.61
-1283.85
-886.255
-450.227
-41.4886
334.352
681.785
997.519
1272.96
1501.01
1677.34
1797.41
1856.22
1849.66
1777.73
1647.29
1472.17
1270.28
1059.12
851.73
658.762
485.782
334.6
206.746
102.158
20.1194
-40.485
-81.4347
-105.346
-115.481
-115.27
-108.01
-96.6764
-83.6869
-70.7379
-58.8288
-48.3608
-39.3478
-31.6168
-24.9742
-19.347
-14.1055
-8.94311
-3.74087
1.48364
6.61998
11.5204
16.0439
20.0758
23.5379
26.3944
28.6527
30.3576
31.5781
32.393
32.8772
33.0939
33.0922
32.9062
32.5568
32.0547
31.4033
30.6037
29.6563
28.5623
27.3231
25.9412
24.4214
22.7701
20.9951
19.1061
17.1167
15.048
12.9249
10.7894
8.6692
6.6515
4.70805
3.11423
1812.69
2085.23
2401.25
2585.13
2628.89
2527.5
2365.95
2203.62
2058.68
1923.87
1785.37
1633.54
1469.66
1305.77
1159.88
1050.67
993.671
997.897
1061.69
1170.58
1300.03
1417.6
1492.83
1505.95
1452.02
1340.92
1191.26
1023.51
854.978
697.509
557.527
437.505
337.493
255.793
189.934
137.829
97.5348
67.2046
45.2415
30.2753
21.0727
16.5598
15.7049
17.4923
21.1178
25.8248
31.028
36.0889
40.5225
44.0378
46.516
47.9802
48.5519
48.4052
47.7275
46.6908
45.4361
44.0684
42.6585
41.2491
39.8609
38.4995
37.1596
35.83
34.4956
33.1397
31.7442
30.291
28.7623
27.1402
25.4079
23.5503
21.5568
19.424
17.1647
14.7952
12.3949
9.95374
7.77536
5.57486
5075.9
4895.38
4693.91
4487.68
4233.14
4034.52
3915.77
3873.79
3870.7
3837.49
3708.93
3444.12
3029.21
2472.25
1800.84
1059.51
303.37
-410.432
-1032.06
-1524.18
-1862.47
-2036.14
-2051.25
-1932.84
-1720.77
-1458.97
-1185.02
-924.786
-692.768
-494.949
-331.961
-201.456
-100.064
-23.5744
32.4698
71.8575
98.004
113.923
122.123
124.64
123.178
119.124
113.589
107.324
100.835
94.4645
88.308
82.5234
77.2005
72.3746
68.0539
64.2226
60.8409
57.8511
55.1866
52.783
50.5861
48.5544
46.658
44.8755
43.1903
41.588
40.0544
38.5739
37.129
35.6999
34.264
32.7963
31.2689
29.6508
27.9094
26.0113
23.927
21.6354
19.1343
16.4402
13.6335
10.7506
8.18008
5.49675
-13552.4
-13175.4
-12670.2
-12066.9
-11436.8
-10855.7
-10288.2
-9623.65
-8776.18
-7749.48
-6603.31
-5399.22
-4181.25
-2992.82
-1897.1
-970.461
-269.81
197.345
464.975
584.97
605.697
566.255
497.431
422.596
355.984
301.681
257.271
218.99
185.228
156.963
135.831
122.132
114.943
112.489
112.853
114.432
116.174
117.42
117.828
117.223
115.479
112.641
108.865
104.59
100.073
95.5102
91.0375
86.7213
82.5862
78.632
74.8483
71.2274
67.7677
64.4723
61.3472
58.3986
55.6311
53.0461
50.6405
48.4058
46.328
44.3886
42.5651
40.8328
39.1654
37.5359
35.9165
34.2783
32.5901
30.8188
28.9286
26.8836
24.6501
22.2028
19.5311
16.649
13.5969
10.47
7.35861
4.25738
3502.38
3505.53
3483.75
3355.86
3055.63
2614.82
2176.23
1879.57
1754.15
1751.86
1820.77
1927.29
2052.34
2185.17
2313.63
2418.94
2479.6
2479.09
2409.59
2271.02
2070.97
1827.99
1571.08
1327.55
1112.99
933.671
789.177
672.713
575.55
490.837
416.044
351.075
295.868
249.609
211.349
179.925
154.173
133.288
116.547
103.35
93.162
85.4438
79.711
75.5488
72.5977
70.5424
69.0863
67.9758
67.0023
66.0056
64.8761
63.5525
62.015
60.2766
58.3733
56.3547
54.2749
52.1861
50.1318
48.1429
46.2362
44.4141
42.6666
40.9747
39.314
37.6581
35.9814
34.2607
32.4756
30.608
28.6415
26.5605
24.3514
22.0041
19.5165
16.9003
14.1891
11.4278
8.64439
6.07343
14518.3
14234.6
13895
13432.7
12710.9
11790.2
10706.5
9585.8
8577.87
7724.24
6960.81
6217.38
5467.08
4709.9
3955.14
3217.03
2511.55
1856.5
1266.77
751.84
323.72
6.16244
-184.145
-267.769
-288.743
-276.228
-240.751
-192.074
-143.51
-104.655
-78.4828
-64.0083
-58.2474
-57.6926
-59.3486
-60.925
-60.6396
-57.663
-51.8624
-43.6523
-33.8089
-23.1677
-12.3501
-1.76035
8.30008
17.6015
25.9757
33.3021
39.5011
44.534
48.4074
51.1741
52.9279
53.7928
53.9092
53.4226
52.4737
51.1906
49.6837
48.0403
46.3237
44.5728
42.806
41.0258
39.2249
37.3924
35.5177
33.5945
31.6212
29.601
27.5399
25.4455
23.3255
21.1878
19.042
16.902
14.7881
12.7294
10.7816
8.9177
17.9107
15.2653
12.5211
9.78504
7.16124
4.70199
2.46651
0.500486
-1.19383
-2.64586
-3.87776
-4.87104
-5.56711
-5.90816
-5.89762
-5.63727
-5.29998
-5.05226
-4.99782
-5.17723
-5.59712
-6.25408
-7.14193
-8.2502
-9.56024
-11.0399
-12.6452
-14.3229
-15.9998
-17.58
-18.9793
-20.1345
-20.9927
-21.5163
-21.6868
-21.5049
-20.9829
-20.1574
-19.0847
-17.8381
-16.4991
-15.1435
-13.8295
-12.591
-11.4387
-10.3672
-9.36464
-8.42063
-7.5314
-6.70099
-5.93882
-5.25543
-4.65845
-4.15042
-3.72877
-3.38716
-3.11733
-2.9106
-2.75888
-2.65513
-2.59349
-2.56923
-2.57858
-2.61858
-2.68691
-2.78188
-2.90223
-3.04697
-3.21492
-3.40428
-3.6122
-3.83467
-4.06675
-4.30313
-4.53861
-4.76839
-4.98792
-5.19261
-5.37746
-5.53699
-5.66533
-5.75662
-5.80547
-5.80738
-5.75931
-5.66058
-5.51341
-5.32132
-5.08968
-4.82517
-4.53544
-4.22853
-3.91233
-3.59416
-3.28038
-2.97621
-2.68562
-2.41136
-2.15509
-1.91761
-1.69898
-1.49875
-1.31607
-1.14991
-0.999095
-0.8625
-0.739033
-0.627669
-0.527443
-0.437463
-0.356921
-0.285103
-0.221367
-0.165117
-0.115787
-0.0728343
-0.0357414
-0.00400591
0.0228726
0.0453978
0.064071
0.0793846
0.0918288
0.101906
0.11014
0.117069
0.123223
0.129117
0.135242
0.142082
0.150099
0.159708
0.171246
0.184942
0.200911
0.219157
0.239557
0.261844
0.285587
0.310186
0.33489
0.35883
0.381058
0.400594
0.416485
0.427889
0.434173
0.435
0.430398
0.420757
0.406866
0.389899
0.371315
0.352785
0.336075
0.322913
0.314845
0.313123
0.318618
0.331786
0.352671
0.380948
0.415978
0.456897
0.50269
0.552277
0.604569
0.658517
0.713137
0.767525
0.820867
0.872437
0.921597
0.96779
1.01054
1.04943
1.0841
1.11427
1.13969
1.16013
1.1754
1.18531
1.18969
1.18833
1.18102
1.16752
1.14753
1.12072
1.08665
1.04482
0.994654
0.935483
0.866782
0.787494
0.697715
0.594825
0.482195
0.350205
0.217692
0.0470592
17.5462
15.2095
12.6821
10.06
7.53513
5.10393
2.84031
0.805373
-0.988628
-2.56723
-3.94903
-5.1014
-5.93278
-6.33866
-6.28328
-5.86464
-5.29508
-4.79723
-4.51681
-4.50741
-4.76764
-5.28089
-6.03067
-7.00065
-8.16989
-9.50465
-10.9611
-12.5065
-14.0936
-15.6123
-16.9795
-18.1275
-18.9991
-19.5593
-19.7954
-19.6985
-19.2866
-18.5904
-17.6608
-16.5639
-15.3722
-14.153
-12.9585
-11.8196
-10.7479
-9.74151
-8.79376
-7.8996
-7.05955
-6.27998
-5.57054
-4.94045
-4.39544
-3.93638