/*--------------------------------*- C++ -*----------------------------------*\
| =========                 |                                                 |
| \\      /  F ield         | OpenFOAM: The Open Source CFD Toolbox           |
|  \\    /   O peration     | Version:  2012                                  |
|   \\  /    A nd           | Website:  www.openfoam.com                      |
|    \\/     M anipulation  |                                                 |
\*---------------------------------------------------------------------------*/
FoamFile
{
    version     2.0;
    format      ascii;
    class       surfaceScalarField;
    location    "0.47";
    object      phi;
}
// * * * * * * * * * * * * * * * * * * * * * * * * * * * * * * * * * * * * * //

dimensions      [0 3 -1 0 0 0 0];
oriented        oriented;


internalField   nonuniform List<scalar> 
84340
(
0.000262588
-0.000440825
0.000178237
0.000201608
-0.000589008
0.000649989
-0.000513854
-0.000376783
0.00109225
-0.00156872
-0.000314456
0.00136932
-0.00245834
-0.000511444
0.00140107
-0.00278515
-0.000801254
0.00112806
-0.00237802
-0.00103958
0.000632457
-0.00133304
-0.0011787
0.000133713
0.000122426
-0.00123767
-0.000217788
0.00180686
-0.00126014
-0.000424294
0.00361267
-0.00126557
-0.000540237
0.00546957
-0.00125294
-0.000603968
0.00733321
-0.00121988
-0.000643749
0.00918191
-0.00116195
-0.000686751
0.010976
-0.00107262
-0.000721504
0.012685
-0.000946413
-0.000762525
0.0142685
-0.000781563
-0.000801939
0.0156766
-0.000580207
-0.000827876
0.0168579
-0.00035086
-0.000830463
0.0177734
-0.000107547
-0.000807995
0.0184031
0.000136746
-0.000766458
0.0187487
0.000373257
-0.000718852
0.0188211
0.000600353
-0.000672681
0.0186215
0.000821611
-0.000622063
0.0181337
0.00104082
-0.000552975
0.0173264
0.00125752
-0.0004502
0.0161632
0.00146477
-0.000301601
0.0146226
0.00165057
-0.000110021
0.0127418
0.00178769
9.31842e-05
0.0106241
0.00185975
0.000257881
0.00846362
0.00181195
0.000348561
0.00648452
0.00161648
0.000362626
0.00484453
0.00131685
0.000323136
0.00359023
0.00102048
0.000233824
0.00266255
0.000802743
0.000124944
0.00197067
0.000671587
2.02888e-05
0.00144431
0.000598333
-7.19703e-05
0.00103698
0.000553327
-0.000145998
0.000718205
0.000519199
-0.000200424
0.000466272
0.000488664
-0.000236731
0.000264538
0.000459515
-0.000257781
9.98458e-05
0.000431495
-0.000266803
-3.81728e-05
0.000404866
-0.000266848
-0.00015751
0.000379882
-0.000260544
-0.000264093
0.000356612
-0.000250029
-0.000362088
0.000334929
-0.000236933
-0.000454246
0.000314533
-0.000222375
-0.000542275
0.000295003
-0.000206973
-0.000627209
0.000275856
-0.000190922
-0.000709685
0.000256593
-0.000174116
-0.000790127
0.00023673
-0.000156287
-0.000868803
0.000215811
-0.000137135
-0.00094584
0.000193402
-0.000116365
-0.0010212
0.000169074
-9.37109e-05
-0.00109469
0.000142395
-6.89029e-05
-0.00116595
0.000112921
-4.16661e-05
-0.00123443
8.01927e-05
-1.1714e-05
-0.00129974
4.37474e-05
2.15692e-05
-0.00136029
2.95963e-06
5.75862e-05
-0.00141586
-4.19249e-05
9.74943e-05
-0.00146535
-9.18395e-05
0.000141325
-0.00150761
-0.000147007
0.000189269
-0.00154146
-0.000207614
0.000241464
-0.00156564
-0.000273769
0.00029795
-0.00157883
-0.000345453
0.000358645
-0.00157967
-0.00042247
0.00042331
-0.00156678
-0.000504407
0.000491516
-0.00153882
-0.000590581
0.000562619
-0.00149457
-0.00067998
0.000635726
-0.00143304
-0.000771221
0.000709691
-0.00135364
-0.000862518
0.000783126
-0.00125639
-0.000951699
0.000854447
-0.00114207
-0.0010363
0.000921976
-0.00101246
-0.00111372
0.000984099
-0.000870422
-0.00118152
0.00103949
-0.000719984
-0.00123784
0.0010874
-0.00056614
-0.00128181
0.00112796
-0.000414458
-0.00131411
0.00116243
-0.000269758
-0.0013378
0.0011931
-0.00135856
0.00122112
-0.000132317
-0.000363628
-7.71966e-05
-0.000763395
-0.000189242
-0.000757841
-0.000382337
-0.00031578
-0.000756517
0.000386239
-0.00121346
0.0011542
-0.00156921
0.00182121
-0.0017066
0.00230157
-0.00165905
0.00258432
-0.00152042
0.00267848
-0.0013543
0.00259616
-0.00118326
0.00235587
-0.00101264
0.00198263
-0.000846639
0.00150919
-0.000688516
0.000970929
-0.000534359
0.000396191
-0.000371675
-0.000200244
-0.000185129
-0.000814987
3.45358e-05
-0.00144453
0.000278685
-0.00207846
0.00052638
-0.00269858
0.000756864
-0.00328025
0.000954929
-0.00380328
0.00112338
-0.00423639
0.00125472
-0.00454797
0.00135241
-0.0047087
0.00141825
-0.00471432
0.00147038
-0.00458031
0.00151656
-0.00433692
0.00154431
-0.00399676
0.00151959
-0.00358342
0.00139861
-0.00313297
0.00116602
-0.00268983
0.000873712
-0.00228141
0.000612056
-0.00191931
0.000440642
-0.00160742
0.000359697
-0.00134679
0.00033771
-0.00113641
0.000342947
-0.000972931
0.000355715
-0.000851356
0.000367089
-0.000765901
0.000374061
-0.000710586
0.000376179
-0.000679693
0.000373973
-0.000668097
0.000368285
-0.000671413
0.000359928
-0.000686049
0.000349565
-0.000709188
0.000337672
-0.00073872
0.000324534
-0.000773128
0.000310263
-0.000811359
0.000294823
-0.000852685
0.000278056
-0.000896573
0.000259699
-0.000942576
0.000239405
-0.000990257
0.000216754
-0.00103914
0.000191274
-0.00108867
0.000162452
-0.00113824
0.00012976
-0.00118715
9.26587e-05
-0.00123478
5.05947e-05
-0.00127948
2.77012e-06
-0.00132128
-5.00354e-05
-0.0013588
-0.00010949
-0.00139088
-0.000175535
-0.00141627
-0.000248375
-0.0014336
-0.000328119
-0.00144135
-0.000414721
-0.00143783
-0.000507925
-0.00142123
-0.000607186
-0.00138964
-0.000711569
-0.00134122
-0.000819639
-0.00127437
-0.000929372
-0.00118796
-0.0010381
-0.00108169
-0.00114257
-0.000956296
-0.00123911
-0.000813874
-0.00132395
-0.000657924
-0.00139379
-0.000493309
-0.00144642
-0.00032583
-0.00148159
-0.000161196
-0.00150243
-0.00151733
-2.42434e-06
-0.000577704
0.000500507
-0.0013314
0.000564453
-0.00175289
3.91579e-05
-0.00188066
-0.000628745
-0.00192878
-0.00116535
-0.00204399
-0.001454
-0.00227807
-0.00147252
-0.00262564
-0.00131149
-0.00305966
-0.0010864
-0.00354349
-0.000870464
-0.00403184
-0.00069492
-0.00446561
-0.000578867
-0.00476864
-0.000543609
-0.00485745
-0.000599711
-0.00466638
-0.000725423
-0.00420829
-0.000829767
-0.00362666
-0.000766759
-0.0031745
-0.000417628
-0.00307182
0.000176011
-0.00334487
0.000799432
-0.00383421
0.0012462
-0.00435399
0.0014747
-0.00477771
0.0015471
-0.00507301
0.00155002
-0.0052246
0.001504
-0.005221
0.00141465
-0.00504337
0.00129275
-0.00467819
0.00115138
-0.00413637
0.00100248
-0.00347462
0.000857838
-0.00280281
0.000726805
-0.00224894
0.000612158
-0.00188711
0.000511876
-0.00170338
0.00042833
-0.00162544
0.000362704
-0.00158278
0.000317034
-0.00154082
0.000295751
-0.00148973
0.000291861
-0.0014277
0.000293685
-0.00135472
0.000294105
-0.0012786
0.000297941
-0.00120321
0.000300793
-0.00113103
0.000301786
-0.00106372
0.000300984
-0.00100274
0.000298941
-0.000949248
0.000296075
-0.000904133
0.000292558
-0.000867935
0.000288337
-0.000840842
0.000283172
-0.000822711
0.000276692
-0.000813106
0.000268452
-0.000811374
0.000257967
-0.000816704
0.000244736
-0.000828201
0.000228251
-0.000844925
0.000207998
-0.000865937
0.000183464
-0.000890314
0.000154137
-0.000917167
0.000119512
-0.000945672
7.9099e-05
-0.000975227
3.23252e-05
-0.00100425
-2.10135e-05
-0.00103237
-8.13696e-05
-0.00105864
-0.000149267
-0.00108204
-0.000224973
-0.00110139
-0.000308767
-0.00111527
-0.000400841
-0.00112196
-0.000501241
-0.00111939
-0.00060975
-0.00110522
-0.000725742
-0.00107688
-0.000847986
-0.0010318
-0.000974452
-0.000967729
-0.00110217
-0.000883124
-0.00122718
-0.000777549
-0.00134468
-0.000652091
-0.00144941
-0.000509576
-0.00153631
-0.000354584
-0.00160141
-0.000193103
-0.00164307
-3.22035e-05
-0.00166333
-0.00167096
0.000121424
0.000725195
-0.000224689
0.0016978
-0.000408154
0.00231026
-0.000573296
0.00245242
-0.000770913
0.00221252
-0.00092545
0.0017535
-0.00099498
0.00124389
-0.000962904
0.00077293
-0.00084053
0.000341046
-0.000654516
-9.58918e-05
-0.000433526
-0.000584734
-0.000206077
-0.00115542
-8.18392e-06
-0.00180724
0.000108219
-0.00250303
9.60776e-05
-0.00316229
-6.61626e-05
-0.0036853
-0.000306764
-0.00399727
-0.00045479
-0.00408624
-0.000328653
-0.00401298
0.000102755
-0.00387832
0.000664769
-0.00376503
0.00113291
-0.00370591
0.00141559
-0.00370675
0.00154794
-0.00374069
0.00158395
-0.00378518
0.00154849
-0.00382295
0.00145242
-0.00383827
0.00130807
-0.00381641
0.00112952
-0.00374748
0.000933548
-0.00363287
0.000743231
-0.00346661
0.000560541
-0.00324937
0.000394919
-0.00299025
0.000252754
-0.00271294
0.000151019
-0.00244272
9.24865e-05
-0.00219153
6.58417e-05
-0.00195846
6.26864e-05
-0.00174183
7.52232e-05
-0.0015446
9.64596e-05
-0.00137142
0.000120924
-0.00121844
0.000144961
-0.00108484
0.000167188
-0.000968739
0.000185687
-0.000863701
0.000195946
-0.00077052
0.000205761
-0.000689672
0.000215226
-0.000620873
0.000223758
-0.000563744
0.000231207
-0.000517761
0.000237188
-0.000482192
0.000241123
-0.000456097
0.000242357
-0.000438387
0.000240256
-0.000427913
0.000234262
-0.000423553
0.000223892
-0.00042428
0.000208725
-0.000429191
0.000188376
-0.000437529
0.000162474
-0.000448666
0.000130649
-0.000462098
9.25313e-05
-0.000477522
4.77489e-05
-0.000494342
-4.19365e-06
-0.000512313
-6.33989e-05
-0.000531062
-0.000130518
-0.00055009
-0.000205945
-0.000568692
-0.000290164
-0.000585847
-0.000383687
-0.000600103
-0.000486985
-0.000609507
-0.000600347
-0.000611592
-0.000723657
-0.000603482
-0.000856095
-0.000582113
-0.000995821
-0.000544561
-0.00113972
-0.000488243
-0.0012835
-0.000411587
-0.00142134
-0.000314677
-0.00154631
-0.00019926
-0.00165172
-6.90604e-05
-0.00173161
7.01753e-05
-0.00178231
0.000211446
-0.0018046
-0.00180554
0.000346031
-6.31356e-05
-0.000161553
-0.000148775
-0.000322515
-0.000269544
-0.000452528
-0.000403263
-0.000637193
-0.000496228
-0.000832484
-0.000558592
-0.000932617
-0.000650003
-0.000871493
-0.000850889
-0.000639643
-0.00122226
-0.000283143
-0.00180051
0.000144718
-0.00259182
0.000585238
-0.00358303
0.000983022
-0.0047576
0.00128279
-0.00606855
0.00140703
-0.00743716
0.00130245
-0.00871661
0.000972678
-0.00968493
0.000513528
-0.0101004
8.68453e-05
-0.00982744
-0.000170228
-0.00893863
-0.000224038
-0.00766919
-0.000136533
-0.00626061
7.00721e-06
-0.00486376
0.000151097
-0.00355011
0.000270296
-0.002357
0.000355387
-0.0013078
0.000403214
-0.000415913
0.000416178
0.000313379
0.000400231
0.000883136
0.000363791
0.00130925
0.000317116
0.00159977
0.000270023
0.00175235
0.00024234
0.00176694
0.000238165
0.00166526
0.000252697
0.00147442
0.000283329
0.00123199
0.000308274
0.000971619
0.000323053
0.000722134
0.000324709
0.000503895
0.000314699
0.000327079
0.000297739
0.000191664
0.000280377
9.85838e-05
0.000260268
4.03787e-05
0.000243892
5.08965e-06
0.000231236
-1.16366e-05
0.000222488
-1.39705e-05
0.00021756
-6.26286e-06
0.000216051
7.72354e-06
0.000217221
2.49333e-05
0.000219979
4.30734e-05
0.000222984
6.06004e-05
0.00022483
7.66245e-05
0.000224232
9.07507e-05
0.000220136
0.000102899
0.000211743
0.000113143
0.000198481
0.000121585
0.000179933
0.000128283
0.000155776
0.000133205
0.000125726
0.000136223
8.95143e-05
0.000136624
4.73483e-05
0.000135053
-2.62135e-06
0.000130882
-5.92281e-05
0.000123849
-0.000123485
0.000113913
-0.000196008
0.000101322
-0.000277573
8.67599e-05
-0.000369124
7.14746e-05
-0.0004717
5.73709e-05
-0.000586244
4.69722e-05
-0.000713259
4.32448e-05
-0.000852368
4.92843e-05
-0.00100186
6.79227e-05
-0.00115836
0.000101004
-0.00131658
0.00014955
-0.00146988
0.00021411
-0.00161087
0.000293676
-0.00173129
0.000385603
-0.00182354
0.000485563
-0.00188227
0.000587572
-0.00190661
-0.00190251
0.000684538
-9.04675e-05
-7.10855e-05
-0.000120033
-0.000292949
4.17906e-05
-0.000614351
0.000330857
-0.00092626
0.000644826
-0.00114645
0.000960858
-0.00124865
0.00130448
-0.00121511
0.0017096
-0.00104476
0.00219237
-0.000765918
0.00275632
-0.000419233
0.00337618
-3.46211e-05
0.00398218
0.000377025
0.00446137
0.000803601
0.00466074
0.00120766
0.00445376
0.00150943
0.00380999
0.00161645
0.0028271
0.00149642
0.00170022
0.00121372
0.000649853
0.000880137
-0.000155595
0.00058141
-0.000643532
0.000351405
-0.000826792
0.000190268
-0.000762078
8.63825e-05
-0.000518196
2.64139e-05
-0.000161794
-1.0146e-06
0.000246892
-5.47247e-06
0.000657494
5.57594e-06
0.00102896
2.87612e-05
0.00133111
6.16464e-05
0.00154578
0.000102441
0.00166612
0.00014969
0.00170711
0.000201347
0.00169149
0.000253781
0.00164218
0.000302006
0.00158474
0.000340768
0.00152733
0.00036569
0.00147526
0.000375123
0.00142916
0.000370809
0.00138658
0.000357275
0.00134425
0.000340066
0.00130093
0.000323702
0.00125074
0.000310458
0.00119393
0.000300695
0.00113165
0.000293518
0.00106635
0.000287786
0.00100119
0.000282717
0.000939332
0.000277912
0.00088342
0.000273134
0.000835346
0.000268053
0.000796197
0.000262133
0.000766359
0.000254667
0.00074568
0.00024491
0.000733619
0.000232196
0.00072935
0.000216013
0.000731826
0.000196005
0.000739828
0.00017193
0.000751992
0.000143612
0.000766843
0.000110875
0.000782817
7.3539e-05
0.000798816
3.13491e-05
0.000812412
-1.62185e-05
0.000822744
-6.95603e-05
0.000828736
-0.000129478
0.000829721
-0.000196994
0.000825599
-0.000273451
0.000816999
-0.000360524
0.0008054
-0.0004601
0.000793126
-0.00057397
0.000783149
-0.000703282
0.000778641
-0.00084786
0.000782368
-0.00100559
0.000796098
-0.00117209
0.000820473
-0.00134095
0.000854885
-0.0015043
0.000897604
-0.00165359
0.000946547
-0.00178023
0.000999226
-0.00187622
0.00105252
-0.00193556
0.00110234
-0.00195643
-0.00194656
0.00114639
-0.000164869
9.37837e-05
-0.000641542
0.000183724
-0.00144045
0.000184558
-0.00254435
0.000177641
-0.00387371
0.000182901
-0.00525308
0.000130721
-0.00648628
1.80927e-05
-0.00742035
-0.000110691
-0.00797233
-0.000213945
-0.00811995
-0.000271612
-0.00788456
-0.000270006
-0.0073212
-0.000186341
-0.00649781
-1.97853e-05
-0.00553409
0.000243934
-0.00459166
0.000567006
-0.00382536
0.000850146
-0.00332372
0.000994785
-0.00307718
0.000967183
-0.00300505
0.000808012
-0.00301931
0.000595662
-0.00304541
0.000377512
-0.00305912
0.000203979
-0.00305413
8.13875e-05
-0.00302858
8.61746e-07
-0.00298114
-4.84508e-05
-0.00291143
-7.51818e-05
-0.00281757
-8.82892e-05
-0.00269223
-9.65748e-05
-0.00254081
-8.97723e-05
-0.00236389
-7.44781e-05
-0.00216031
-5.38881e-05
-0.0019283
-3.06643e-05
-0.00166785
-6.67583e-06
-0.00138235
1.6515e-05
-0.00107918
3.75924e-05
-0.000769573
5.60855e-05
-0.000466961
7.25109e-05
-0.000184252
8.81005e-05
6.87144e-05
0.000104308
0.000286648
0.000122133
0.000468633
0.000141717
0.000616734
0.000162358
0.000734641
0.000182788
0.000826481
0.000201679
0.0008963
0.000217967
0.000948034
0.000230984
0.000985562
0.000240384
0.00101272
0.000245975
0.00103322
0.000247557
0.00105049
0.000244857
0.00106758
0.000237582
0.00108696
0.000225526
0.00111048
0.000208675
0.00113924
0.000187254
0.00117357
0.000161677
0.00121302
0.000132478
0.0012567
9.99389e-05
0.00130302
6.45532e-05
0.00134993
2.66341e-05
0.00139521
-1.39348e-05
0.00143656
-5.75708e-05
0.00147209
-0.000105091
0.00150026
-0.000157644
0.00152019
-0.000216927
0.00153189
-0.000285151
0.0015364
-0.000365033
0.00153588
-0.000459581
0.00153347
-0.000571557
0.00153281
-0.000702622
0.0015373
-0.000852352
0.0015492
-0.00101748
0.00156889
-0.00119179
0.00159468
-0.00136674
0.00162318
-0.0015328
0.00165024
-0.00168066
0.00167199
-0.00180198
0.00168535
-0.00188958
0.00168811
-0.00193832
0.00167804
-0.00194636
-0.00192607
0.00165755
-0.000266276
0.00036006
-0.00101793
0.000935373
-0.00230115
0.00146779
-0.00390357
0.00178006
-0.00545882
0.00173815
-0.00667512
0.00134703
-0.00746666
0.000809635
-0.00794236
0.000365004
-0.00823536
7.90524e-05
-0.00840695
-0.000100017
-0.00846179
-0.000215166
-0.00836372
-0.000284411
-0.00804661
-0.000336898
-0.00743164
-0.000371037
-0.0064813
-0.000383328
-0.0052442
-0.000386964
-0.00384184
-0.000407573
-0.00240888
-0.00046577
-0.00104383
-0.000557042
0.000201611
-0.000649778
0.00128856
-0.000709435
0.00221264
-0.000720104
0.00297948
-0.000685452
0.00359697
-0.000616627
0.00407494
-0.000526427
0.00442869
-0.000428929
0.00467115
-0.000330744
0.00480821
-0.000233637
0.00486063
-0.000142194
0.00484374
-5.75851e-05
0.00476967
2.01764e-05
0.00464801
9.0998e-05
0.00448623
0.0001551
0.00429145
0.000211299
0.00407059
0.000258451
0.00383109
0.000295589
0.00358128
0.000322314
0.00332951
0.000339877
0.00308352
0.00035029
0.00284977
0.000355884
0.00263261
0.00035888
0.00243398
0.000360986
0.00225366
0.000363108
0.00209004
0.000365296
0.00194114
0.00036687
0.00180547
0.000366656
0.00168266
0.000363192
0.00157365
0.00035498
0.0014805
0.000340713
0.00140584
0.000319517
0.00135232
0.000291102
0.00132209
0.000255754
0.00131651
0.000214256
0.00133543
0.000168336
0.00137702
0.000120086
0.00143645
7.30419e-05
0.00151438
2.20156e-05
0.00160565
-2.67186e-05
0.00170429
-7.20062e-05
0.00180489
-0.000114538
0.00190225
-0.000154933
0.0019918
-0.000194642
0.0020701
-0.000235942
0.00213514
-0.000281968
0.0021866
-0.000336607
0.00222583
-0.000404267
0.00225563
-0.000489384
0.00227965
-0.000595571
0.00230151
-0.000724488
0.00232388
-0.000874722
0.00234755
-0.00104115
0.00237099
-0.00121522
0.00239049
-0.00138624
0.00240104
-0.00154335
0.00239765
-0.00167727
0.00237651
-0.00178084
0.00233558
-0.00184865
0.00227475
-0.00187749
0.00219514
-0.00186675
-0.00183297
0.00210205
0.000423283
-6.32233e-05
0.000971123
0.000387533
0.0011646
0.00127431
0.000822803
0.00212186
-5.24092e-05
0.00261336
-0.00126209
0.00255671
-0.00243757
0.00198511
-0.00327316
0.0012006
-0.00369743
0.000503326
-0.00381689
1.94374e-05
-0.00376575
-0.000266304
-0.00364104
-0.000409127
-0.00352406
-0.000453875
-0.00343363
-0.000461471
-0.00335715
-0.000459805
-0.00328254
-0.000461573
-0.00321927
-0.000470837
-0.00319811
-0.000486932
-0.00324604
-0.000509111
-0.00335694
-0.000538883
-0.00348368
-0.000582699
-0.00357199
-0.000631787
-0.0035822
-0.000675245
-0.0034786
-0.000720227
-0.00324869
-0.000756333
-0.00289719
-0.000780437
-0.00243743
-0.000790499
-0.00188832
-0.000782749
-0.00127615
-0.000754364
-0.000629956
-0.000703776
2.18412e-05
-0.000631621
0.000656373
-0.000543534
0.00124121
-0.000429734
0.00175434
-0.00030183
0.00217906
-0.000166268
0.00249717
-2.25245e-05
0.00271675
0.000102739
0.00284451
0.000212114
0.00288987
0.000304934
0.00286521
0.000380539
0.0027844
0.000439691
0.0026614
0.000483985
0.00250931
0.000515201
0.00233982
0.00053478
0.00216314
0.00054355
0.00198814
0.000541657
0.00182247
0.000528867
0.00167269
0.000504755
0.00154444
0.00046897
0.00144216
0.000421792
0.00136906
0.000364208
0.00132798
0.000296826
0.0013231
0.000219138
0.00135833
0.000133105
0.00141955
5.88697e-05
0.00150596
-1.3365e-05
0.00161565
-8.76792e-05
0.00174591
-0.000156976
0.0018921
-0.000218194
0.00204757
-0.000270012
0.00220527
-0.000312629
0.00235855
-0.000347924
0.00250192
-0.000379317
0.00263178
-0.000411827
0.00274644
-0.000451269
0.00284596
-0.000503786
0.00293149
-0.000574915
0.00300438
-0.00066846
0.00306522
-0.000785331
0.00311316
-0.000922657
0.00314559
-0.00107359
0.00315852
-0.00122815
0.00314742
-0.00137514
0.0031086
-0.00150453
0.00304027
-0.00160893
0.00294298
-0.00168355
0.00281948
-0.00172515
0.00267451
-0.00173252
0.00251537
-0.00170762
-0.0016673
0.00234971
-0.000202412
0.000139189
-0.000340726
0.000525847
-0.000335531
0.00126911
-0.000493129
0.00227946
-0.000985433
0.00310566
-0.00171959
0.00329087
-0.00241314
0.00267866
-0.00279971
0.00158717
-0.00277683
0.00048044
-0.00239331
-0.000364081
-0.00176196
-0.000897654
-0.0010068
-0.00116428
-0.000216574
-0.0012441
0.000532682
-0.00121073
0.00121603
-0.00114316
0.00180978
-0.00105532
0.00228048
-0.000941535
0.00259836
-0.000804812
0.00275449
-0.000665235
0.00276436
-0.000548752
0.00265361
-0.000471955
0.00246729
-0.000445463
0.00225904
-0.000466999
0.00206372
-0.000524903
0.00190864
-0.000601257
0.00180618
-0.000677978
0.0017569
-0.000741219
0.00175613
-0.000781979
0.00179773
-0.000795957
0.00187542
-0.000781466
0.00198188
-0.000738085
0.00210515
-0.000666804
0.00224526
-0.000569844
0.00239571
-0.000452282
0.00254644
-0.000317001
0.00268303
-0.000159109
0.00278687
-1.10581e-06
0.00284994
0.000149048
0.00286873
0.000286146
0.00284405
0.000405213
0.00278069
0.000503055
0.00268632
0.000578346
0.00257029
0.000631236
0.00244239
0.000662683
0.00231194
0.000673992
0.00218705
0.000666548
0.00207414
0.000641783
0.00197776
0.000601132
0.00190065
0.000546077
0.00184601
0.000476439
0.00181534
0.00039487
0.00180626
0.000305907
0.001813
0.000212405
0.00184289
0.00010321
0.00190452
-2.7619e-06
0.0019974
-0.000106244
0.00211289
-0.000203166
0.0022461
-0.000290193
0.00239266
-0.000364748
0.00254802
-0.000425374
0.00270775
-0.000472361
0.00286779
-0.000507959
0.00302476
-0.000536287
0.00317572
-0.000562788
0.00331803
-0.000593578
0.00344891
-0.000634664
0.00356494
-0.000690954
0.00366172
-0.000765231
0.00373365
-0.00085727
0.00377439
-0.000963397
0.00377763
-0.00107682
0.00373844
-0.00118896
0.0036548
-0.00129151
0.00352854
-0.00137826
0.00336499
-0.00144538
0.00317176
-0.00149032
0.00295782
-0.00151121
0.00273372
-0.00150842
0.00251287
-0.00148678
-0.00145973
0.00230531
0.000163233
-2.40438e-05
0.0007595
-7.04197e-05
0.00205627
-2.76541e-05
0.0040405
0.000295227
0.00644352
0.000702634
0.00892174
0.000812647
0.0110677
0.000532671
0.0126237
3.1182e-05
0.0135932
-0.00048904
0.0141435
-0.000914378
0.0144553
-0.00120941
0.0146775
-0.0013865
0.0149209
-0.00148751
0.0153243
-0.00161416
0.0159213
-0.00174018
0.0165614
-0.00169544
0.0170277
-0.00140781
0.0171333
-0.000910373
0.0168003
-0.000332205
0.0160631
0.000188352
0.0150286
0.000562598
0.0138358
0.000747365
0.0126322
0.000736545
0.0115386
0.00056871
0.0106156
0.000321716
0.00985966
7.79983e-05
0.00922963
-0.000111191
0.00867881
-0.000231154
0.00817252
-0.000289668
0.00769135
-0.000300298
0.00722796
-0.000274692
0.00678232
-0.000221162
0.00635514
-0.000142665
0.00596459
-6.17366e-05
0.00562421
2.33816e-05
0.00534956
0.000115543
0.00513608
0.000212372
0.00497961
0.000305524
0.0048756
0.000390159
0.00481821
0.000462599
0.00480056
0.000520704
0.00481548
0.00056343
0.0048562
0.00059051
0.00491659
0.000602293
0.00499094
0.000599644
0.00507375
0.000583739
0.00515966
0.000555876
0.00524342
0.000517368
0.00532002
0.000469476
0.00538298
0.000413484
0.00542703
0.000350816
0.00544987
0.000283064
0.00545024
0.000212035
0.00541101
0.000142447
0.00534002
6.82305e-05
0.00524901
-1.52403e-05
0.00513421
-8.83671e-05
0.00500152
-0.000157497
0.00485906
-0.00022229
0.00471608
-0.000282401
0.00458191
-0.000338184
0.00446437
-0.000390421
0.00436834
-0.000440256
0.00429504
-0.00048949
0.0042419
-0.000540443
0.00420288
-0.000595639
0.00416913
-0.000657209
0.00413002
-0.000726122
0.0040743
-0.000801542
0.00399164
-0.000880738
0.00387463
-0.00095981
0.00372061
-0.00103494
0.00353243
-0.00110332
0.00331708
-0.00116292
0.00308326
-0.00121156
0.00283981
-0.00124688
0.0025965
-0.00126789
0.00236529
-0.00127721
0.00215968
-0.00128117
-0.00128775
0.00198769
-0.000474727
0.000450683
-0.00118447
0.000639327
-0.00171579
0.000503666
-0.00183978
0.000419214
-0.00158855
0.000451408
-0.00126163
0.000485726
-0.0011572
0.000428241
-0.00138343
0.000257412
-0.00187184
-6.35162e-07
-0.00247283
-0.000313386
-0.00301521
-0.000667037
-0.00332408
-0.00107762
-0.00324021
-0.00157138
-0.00274384
-0.00211053
-0.0019366
-0.00254743
-0.00095461
-0.00267742
4.96307e-06
-0.00236738
0.000740866
-0.00164628
0.00111841
-0.000709751
0.00110953
0.000197233
0.000782792
0.000889336
0.000268502
0.00126165
-0.000281204
0.00128625
-0.000741646
0.00102915
-0.00105495
0.000635017
-0.00122942
0.000252474
-0.00130576
-3.48543e-05
-0.00132174
-0.000215171
-0.00129893
-0.000312481
-0.00124453
-0.000354701
-0.00115763
-0.000361586
-0.00103286
-0.000345935
-0.000863188
-0.000312339
-0.000658533
-0.000266392
-0.000423018
-0.000212133
-0.000155051
-0.000152424
0.000146014
-8.86932e-05
0.000473569
-2.20312e-05
0.0008255
3.82279e-05
0.00119592
9.21799e-05
0.00158135
0.000135277
0.00197063
0.000174143
0.00235372
0.000207421
0.00272234
0.000233671
0.00306944
0.000252549
0.00338932
0.000263859
0.00367765
0.000267541
0.00393122
0.000263805
0.0041479
0.000252791
0.00432658
0.000234802
0.00446708
0.000210316
0.00457012
0.000180023
0.00463744
0.00014472
0.00467463
0.000105256
0.00468077
6.20955e-05
0.00464868
1.68478e-05
0.0045878
-2.74937e-05
0.0045056
-7.52934e-05
0.00440676
-0.000123445
0.00429595
-0.000171596
0.00417762
-0.000219848
0.00405548
-0.000268285
0.00393262
-0.000317398
0.0038111
-0.000367966
0.00369151
-0.000420851
0.00357264
-0.000476775
0.00345156
-0.000536122
0.00332451
-0.000599074
0.00318831
-0.000665342
0.00304149
-0.000733918
0.00288504
-0.000803361
0.00272184
-0.000871741
0.00255505
-0.000936536
0.00238698
-0.000994844
0.00221978
-0.00104436
0.00205771
-0.00108481
0.00190838
-0.00111857
0.00178087
-0.0011497
0.00168164
-0.00118193
-0.00121701
0.0016109
0.00106273
-0.000612044
0.00265456
-0.000952506
0.0041036
-0.000945373
0.00535978
-0.000836965
0.00648432
-0.000673137
0.00746795
-0.000497898
0.00827285
-0.000376666
0.00887886
-0.000348592
0.00929104
-0.000412814
0.0095225
-0.000544844
0.00957426
-0.000718804
0.00941174
-0.000915106
0.00894519
-0.00110482
0.00806023
-0.00122557
0.00670938
-0.00119657
0.00498426
-0.000952303
0.00309407
-0.00047719
0.00127485
0.000172943
-0.00026833
0.000833426
-0.00144121
0.00137011
-0.0022414
0.00168952
-0.00272106
0.00174132
-0.00296434
0.00152954
-0.0030719
0.00113671
-0.00313515
0.000698261
-0.00320918
0.000326503
-0.00330638
6.23438e-05
-0.00341256
-0.000108987
-0.00350666
-0.000218378
-0.00357154
-0.000289818
-0.00359647
-0.000336663
-0.00357683
-0.00036557
-0.00350951
-0.000379657
-0.00339503
-0.000380876
-0.00323615
-0.000371017
-0.0030367
-0.000351868
-0.0028003
-0.000325093
-0.00252984
-0.000292489
-0.00223568
-0.000255934
-0.00192659
-0.000216913
-0.00161452
-0.00017679
-0.00130175
-0.00013863
-0.000992109
-0.000102219
-0.000688129
-7.0309e-05
-0.000394947
-4.06326e-05
-0.000117265
-1.38235e-05
0.000145416
4.8603e-06
0.00039045
1.87704e-05
0.000616111
2.71308e-05
0.000821321
2.95917e-05
0.00100545
2.61892e-05
0.00116829
1.71817e-05
0.00131032
2.68795e-06
0.00143186
-1.62867e-05
0.00153344
-3.94791e-05
0.00161706
-6.67708e-05
0.00168278
-9.32197e-05
0.00172909
-0.000121597
0.00175691
-0.000151263
0.00176758
-0.000182274
0.00176305
-0.000215312
0.00174628
-0.000251515
0.00172111
-0.000292234
0.00169188
-0.000338732
0.00166285
-0.000391826
0.00163766
-0.000451583
0.00161877
-0.000517232
0.001607
-0.000587299
0.00160143
-0.000659779
0.00159977
-0.000732255
0.00159842
-0.000802016
0.00159306
-0.000866379
0.0015799
-0.000923377
0.00155765
-0.000972588
0.00152873
-0.00101545
0.0014986
-0.00105467
0.00147288
-0.00109284
0.00145448
-0.00113131
0.00144261
-0.00117006
-0.00120839
0.00143399
-0.000514693
-9.73513e-05
-0.00106839
-0.000398808
-0.00147162
-0.00054214
-0.0020884
-0.000220188
-0.00309089
0.000329352
-0.00438726
0.000798471
-0.0058367
0.00107277
-0.00737074
0.00118545
-0.00897085
0.00118729
-0.0106305
0.00111484
-0.0123413
0.000991991
-0.0140931
0.000836653
-0.0158696
0.000671709
-0.017622
0.000526829
-0.0192452
0.000426636
-0.020583
0.000385497
-0.0214496
0.00038938
-0.0216737
0.000397022
-0.0211899
0.000349644
-0.020045
0.000225191
-0.0183892
3.3793e-05
-0.0164522
-0.000195755
-0.0144805
-0.000442148
-0.0126727
-0.00067112
-0.0111324
-0.000842018
-0.00986923
-0.000936644
-0.00884026
-0.000966627
-0.00799316
-0.000956081
-0.00728542
-0.000926122
-0.00668594
-0.000889291
-0.00617198
-0.000850628
-0.00572682
-0.000810728
-0.0053378
-0.000768682
-0.00499481
-0.000723859
-0.00468941
-0.000676417
-0.0044142
-0.000627086
-0.00416241
-0.000576875
-0.00392801
-0.000526889
-0.00370585
-0.000478097
-0.00349149
-0.000431277
-0.00328126
-0.000387018
-0.00307394
-0.000345948
-0.00286768
-0.00030848
-0.00266289
-0.000275095
-0.00245771
-0.000245821
-0.00225053
-0.000221003
-0.00204474
-0.000200925
-0.00184032
-0.000185651
-0.00163799
-0.000175195
-0.00143906
-0.000169346
-0.00124461
-0.000168258
-0.00105581
-0.000171622
-0.000873956
-0.000179162
-0.000699661
-0.000190581
-0.000533493
-0.000205648
-0.000376128
-0.000224136
-0.000223658
-0.000245689
-7.49696e-05
-0.000270285
7.18264e-05
-0.000298059
0.000218791
-0.00032924
0.000367616
-0.000364137
0.000519148
-0.000403048
0.000673058
-0.000446144
0.000827649
-0.000493323
0.000979905
-0.000544083
0.00112577
-0.000597448
0.00126052
-0.000651983
0.00137915
-0.000705933
0.00147685
-0.000757474
0.00154968
-0.000805085
0.00159563
-0.000847971
0.00161565
-0.000886394
0.00161398
-0.000921705
0.00159726
-0.000955873
0.00157241
-0.000990594
0.00154431
-0.00102657
0.00151496
-0.0010635
0.00148434
-0.00110069
0.00145199
-0.00113771
-0.00117438
0.00141798
-0.000350336
0.000252985
-0.000924076
0.000174932
-0.00140421
-6.20059e-05
-0.00165415
2.97511e-05
-0.00165808
0.000333284
-0.00143447
0.00057486
-0.00105963
0.000697934
-0.000646664
0.000772487
-0.000285609
0.000826236
-2.4196e-05
0.000853423
0.000150219
0.000817577
0.000302491
0.000684381
0.000526477
0.000447723
0.000892479
0.000160827
0.00138537
-6.62538e-05
0.0019134
-0.000142537
0.00238835
-8.55644e-05
0.00278065
4.72031e-06
0.00306629
6.40009e-05
0.00321093
8.05565e-05
0.00318423
6.04892e-05
0.00298078
7.69766e-06
0.00260672
-6.80911e-05
0.00209222
-0.000156614
0.0014949
-0.000244706
0.000881066
-0.000322807
0.000305042
-0.000390603
-0.000211872
-0.000439167
-0.000659238
-0.000478755
-0.0010367
-0.000511826
-0.00134979
-0.000537538
-0.00160654
-0.000553983
-0.0018157
-0.000559519
-0.00198573
-0.000553828
-0.00212407
-0.000538083
-0.00223648
-0.000514672
-0.00232679
-0.000486561
-0.00239702
-0.000456659
-0.00244783
-0.000427292
-0.00247898
-0.00040013
-0.00248978
-0.000376215
-0.00247973
-0.000356002
-0.00244865
-0.000339555
-0.00239697
-0.000326777
-0.00232525
-0.000317542
-0.00223448
-0.000311772
-0.00212603
-0.000309374
-0.00200143
-0.000310244
-0.00186239
-0.000314242
-0.00171056
-0.000321178
-0.00154797
-0.000330847
-0.0013766
-0.000342986
-0.00119845
-0.00035732
-0.00101544
-0.000373587
-0.00082953
-0.000391558
-0.000642594
-0.000411072
-0.000456186
-0.000432098
-0.000271724
-0.000454747
-9.05264e-05