/*--------------------------------*- C++ -*----------------------------------*\
| =========                 |                                                 |
| \\      /  F ield         | OpenFOAM: The Open Source CFD Toolbox           |
|  \\    /   O peration     | Version:  2012                                  |
|   \\  /    A nd           | Website:  www.openfoam.com                      |
|    \\/     M anipulation  |                                                 |
\*---------------------------------------------------------------------------*/
FoamFile
{
    version     2.0;
    format      ascii;
    class       volVectorField;
    location    "0.47";
    object      U;
}
// * * * * * * * * * * * * * * * * * * * * * * * * * * * * * * * * * * * * * //

dimensions      [0 1 -1 0 0 0 0];


internalField   nonuniform List<vector> 
42400
(
(6.44706 -3.70095 -1.17985e-16)
(5.47544 -1.67975 -1.74029e-16)
(-3.07011 2.82727 1.78057e-16)
(-4.29303 -2.30268 0)
(3.01249 -16.5188 0)
(12.6551 -29.8784 1.15247e-19)
(20.0713 -36.6772 0)
(24.7229 -36.1559 -1.02886e-19)
(28.2409 -30.8725 0)
(31.8629 -23.5117 -1.00003e-19)
(35.8742 -15.461 -1.04581e-19)
(40.087 -7.16594 1.13226e-19)
(44.0446 1.48539 1.05126e-16)
(47.2439 10.732 -1.0709e-16)
(49.3353 20.6845 1.56887e-19)
(50.1603 31.2813 0)
(49.8029 42.1924 0)
(48.5397 52.8793 0)
(46.7721 62.6546 0)
(44.8849 70.8227 0)
(43.1974 76.8659 0)
(41.7568 80.7053 3.18369e-19)
(40.3592 82.6143 3.72165e-17)
(38.7719 82.9265 -8.75226e-18)
(37.0159 81.6795 -2.90456e-17)
(35.4715 78.4836 1.2426e-19)
(34.5885 72.7383 7.74218e-20)
(34.2479 64.0729 -7.41239e-20)
(33.5068 53.1485 0)
(31.2461 41.6667 0)
(27.1565 31.346 1.2419e-17)
(21.9687 23.0905 -1.25625e-17)
(16.5913 17.1062 4.9801e-20)
(11.6443 13.1847 -1.07871e-17)
(7.40361 10.8377 1.07986e-17)
(3.93979 9.44971 0)
(1.23075 8.53079 0)
(-0.795413 7.78508 0)
(-2.2368 7.08209 0)
(-3.20665 6.38116 -5.20036e-18)
(-3.81814 5.68059 5.21894e-18)
(-4.17275 4.99107 -4.21863e-18)
(-4.3537 4.32383 6.2504e-19)
(-4.42447 3.6865 7.08801e-18)
(-4.43019 3.08234 -3.27463e-18)
(-4.4005 2.51114 2.67019e-18)
(-4.35282 1.97033 -5.25274e-18)
(-4.29576 1.45594 2.41502e-18)
(-4.23229 0.963393 1.34097e-19)
(-4.16238 0.488106 -1.81998e-18)
(-4.08474 0.0258777 3.40455e-18)
(-3.99779 -0.426857 -2.30802e-20)
(-3.89983 -0.872972 -1.52356e-18)
(-3.78889 -1.31477 1.26394e-19)
(-3.66272 -1.75401 0)
(-3.51878 -2.192 0)
(-3.35435 -2.62964 0)
(-3.16645 -3.0673 -4.17179e-20)
(-2.95153 -3.50419 -2.49597e-20)
(-2.70721 -3.93927 0)
(-2.43192 -4.37142 -8.88297e-20)
(-2.1237 -4.7984 7.29524e-20)
(-1.78131 -5.21712 -2.09529e-19)
(-1.40435 -5.62378 2.05617e-19)
(-0.993317 -6.01375 0)
(-0.549678 -6.38152 0)
(-0.0760638 -6.72063 -4.79318e-19)
(0.423588 -7.02376 4.68509e-19)
(0.943872 -7.2828 8.51685e-20)
(1.47778 -7.48912 0)
(2.01663 -7.63408 0)
(2.55023 -7.70971 6.41184e-20)
(3.06716 -7.7097 5.37013e-20)
(3.55551 -7.63067 0)
(4.00377 -7.47364 3.09663e-20)
(4.40223 -7.24561 4.09011e-20)
(4.74579 -6.95974 -3.96605e-20)
(5.03796 -6.63427 1.63054e-21)
(5.28913 -6.29775 1.40002e-19)
(5.49454 -6.00103 2.42281e-19)
(10.0102 -9.91945 0)
(7.53643 -12.468 1.46143e-16)
(-7.29935 1.31858 -1.50176e-16)
(-17.2364 9.73734 0)
(-11.2812 9.0497 0)
(1.68202 2.92762 1.32806e-16)
(14.4638 -3.40622 -1.35764e-16)
(23.8525 -7.86567 1.03529e-19)
(29.734 -10.5592 0)
(32.877 -12.1142 1.0072e-19)
(33.9369 -13.0553 1.05319e-19)
(33.3589 -13.7038 -8.10776e-17)
(31.4781 -14.1849 1.20853e-17)
(28.5414 -14.4844 7.31075e-17)
(24.718 -14.4724 5.17147e-17)
(20.0871 -13.951 -5.184e-17)
(14.6127 -12.7616 0)
(8.18898 -10.7823 6.75059e-19)
(0.858758 -8.06164 0)
(-7.08929 -4.84124 0)
(-15.3592 -1.28361 0)
(-23.5865 2.40216 -7.90298e-18)
(-31.4825 6.07247 2.23456e-18)
(-38.9048 9.78646 5.28845e-18)
(-45.9086 13.8444 0)
(-52.763 18.649 -3.00207e-19)
(-59.6957 24.397 -7.66623e-20)
(-66.3833 30.7524 7.34453e-20)
(-71.6387 36.6058 7.61739e-18)
(-73.3807 40.1057 -7.73086e-18)
(-69.3976 39.2813 -1.96142e-19)
(-59.2839 33.4847 -1.77077e-19)
(-45.9048 24.5954 8.25159e-18)
(-33.435 15.9828 -8.22633e-18)
(-24.3309 9.97241 -3.87024e-18)
(-18.6209 6.75267 3.83951e-18)
(-15.2067 5.33589 0)
(-13.0498 4.75425 1.40777e-19)
(-11.5312 4.45773 0)
(-10.3566 4.21478 2.64675e-19)
(-9.39909 3.94892 -2.59913e-18)
(-8.6006 3.64376 2.85929e-18)
(-7.92899 3.30398 -2.23131e-19)
(-7.36182 2.94029 2.10995e-19)
(-6.88073 2.56325 -9.18074e-21)
(-6.46963 2.18109 1.81905e-19)
(-6.1143 1.79914 -1.66128e-19)
(-5.80227 1.42009 -2.10146e-18)
(-5.52288 1.04456 2.10832e-18)
(-5.26714 0.671691 0)
(-5.02751 0.299756 -8.6012e-20)
(-4.79749 -0.0734388 -1.78973e-19)
(-4.57132 -0.450213 -9.0417e-19)
(-4.34366 -0.832782 9.20324e-19)
(-4.10944 -1.22309 6.6258e-20)
(-3.86382 -1.62269 -9.11225e-19)
(-3.60228 -2.03269 9.68168e-19)
(-3.32074 -2.45371 4.171e-20)
(-3.01539 -2.88553 2.49533e-20)
(-2.68229 -3.32695 1.66601e-19)
(-2.31912 -3.77695 -1.63981e-19)
(-1.92453 -4.23372 1.43898e-20)
(-1.49695 -4.6939 5.90407e-20)
(-1.03578 -5.15356 0)
(-0.541334 -5.60783 -7.21785e-19)
(-0.0148587 -6.05072 -6.27782e-20)
(0.541297 -6.47493 1.04061e-18)
(1.12344 -6.8717 0)
(1.72619 -7.23069 -2.29511e-19)
(2.34217 -7.54016 1.35931e-19)
(2.96165 -7.78725 7.27486e-19)
(3.57251 -7.95881 -7.72537e-19)
(4.16045 -8.04253 -5.77483e-19)
(4.70977 -8.02871 5.87699e-19)
(5.20464 -7.91225 -9.24612e-20)
(5.63116 -7.69446 1.92401e-19)
(5.98111 -7.38352 -1.28396e-19)
(6.25518 -6.99615 -1.63023e-21)
(6.4605 -6.57121 7.06184e-20)
(6.6108 -6.19008 -7.48918e-20)
(-8.69054 6.00872 -6.24998e-17)
(-4.38866 -5.61684 2.13436e-21)
(28.6691 -32.6061 6.45757e-19)
(68.3437 -70.9488 -8.82307e-22)
(102.866 -98.7305 0)
(119.594 -111.909 -1.60024e-16)
(116.127 -109.451 3.17112e-16)
(99.5215 -97.5832 -1.56859e-16)
(78.7272 -83.1908 1.39589e-16)
(58.7657 -69.8571 -1.10084e-17)
(41.0143 -58.4445 -1.34556e-16)
(25.5939 -48.7943 -8.14926e-19)
(12.7031 -40.6267 -7.36104e-19)
(2.60576 -33.527 9.18615e-17)
(-4.92718 -26.8128 -9.37851e-17)
(-10.6747 -19.5254 -7.45432e-19)
(-15.9424 -11.2174 -6.32603e-17)
(-21.9812 -2.44228 7.99169e-18)
(-29.1416 5.3556 5.58046e-17)
(-36.534 10.7465 5.06302e-19)
(-42.9658 13.4817 -4.65234e-19)
(-47.669 14.276 -4.23689e-19)
(-50.2823 13.7927 0)
(-50.7229 12.261 1.05955e-19)
(-49.0669 9.74789 2.38002e-17)
(-45.5741 6.55106 -4.70557e-17)
(-40.7821 3.24496 2.36845e-17)
(-35.2609 0.437273 -2.36531e-17)
(-29.5 -1.45272 2.39446e-17)
(-24.0199 -2.23812 2.4131e-17)
(-19.3635 -2.05266 -4.66724e-17)
(-15.8753 -1.37323 1.6545e-18)
(-13.5243 -0.742419 2.16123e-17)
(-12.0305 -0.416575 0)
(-11.1108 -0.328975 0)
(-10.5495 -0.305694 1.50448e-19)
(-10.2016 -0.237635 0)
(-9.93523 -0.108978 2.84626e-20)
(-9.66007 0.0530868 -6.87928e-18)
(-9.33908 0.225012 1.27579e-17)
(-8.96757 0.381976 -6.13603e-18)
(-8.56047 0.508274 0)
(-8.1324 0.599922 0)
(-7.69717 0.657784 -3.25871e-18)
(-7.2673 0.684717 3.06727e-18)
(-6.85196 0.682488 1.11614e-19)
(-6.45708 0.651761 0)
(-6.08565 0.59256 0)
(-5.73799 0.504574 -1.51476e-18)
(-5.41213 0.387398 1.50683e-18)
(-5.10431 0.240685 8.60108e-20)
(-4.80946 0.0642059 0)
(-4.52169 -0.142132 6.40054e-19)
(-4.23477 -0.378278 -5.93535e-19)
(-3.94253 -0.644018 4.02692e-19)
(-3.63911 -0.938943 -5.24217e-19)
(-3.31921 -1.26242 -1.75675e-19)
(-2.97826 -1.61359 5.71501e-19)
(-2.61254 -1.99136 -1.08003e-18)
(-2.2191 -2.39436 -2.23613e-19)
(-1.795 -2.8203 8.6411e-19)
(-1.33854 -3.26634 1.21607e-18)
(-0.849229 -3.73016 -1.25353e-18)
(-0.326734 -4.20829 0)
(0.228732 -4.6964 1.34508e-18)
(0.816313 -5.18903 5.58928e-20)
(1.43434 -5.67927 -1.85719e-18)
(2.07996 -6.15823 0)
(2.74852 -6.61469 3.57369e-19)
(3.43285 -7.03481 1.16496e-18)
(4.12253 -7.40223 -1.08293e-18)
(4.80339 -7.69873 0)
(5.4576 -7.90547 0)
(6.06439 -8.00521 -7.85049e-20)
(6.6018 -7.98483 6.14747e-20)
(7.0499 -7.83841 2.55635e-19)
(7.39525 -7.56899 -4.53735e-19)
(7.63609 -7.1907 0)
(7.77769 -6.74423 4.79028e-21)
(7.81228 -6.34 -5.76168e-20)
(-2.78562 6.40474 1.23832e-16)
(5.43884 5.46613 -1.83082e-16)
(25.8887 -5.54678 9.23411e-17)
(44.6066 -17.3596 8.74782e-17)
(54.7337 -25.7841 -8.98075e-17)
(58.1129 -30.4502 0)
(56.5308 -32.2184 1.53727e-16)
(52.259 -32.1941 -1.56014e-16)
(47.1096 -31.2567 1.2766e-16)
(42.1373 -30.2595 -1.30331e-16)
(38.0963 -30.1083 9.50749e-17)
(35.8679 -31.7665 -1.76642e-16)
(36.5448 -36.1283 1.4033e-16)
(40.8787 -43.5114 -1.04423e-16)
(47.7858 -52.6597 6.83708e-17)
(52.5643 -59.6725 -2.57148e-17)
(47.504 -58.7851 5.58086e-18)
(27.449 -45.8727 -1.84842e-17)
(-3.44246 -23.2198 1.41332e-17)
(-32.9873 0.37736 -4.97871e-19)
(-51.6043 16.3001 8.9984e-19)
(-59.0517 22.7796 2.04072e-17)
(-60.0706 23.4936 -2.07632e-17)
(-58.2222 21.952 -3.39065e-19)
(-54.9016 19.3812 0)
(-50.5548 16.052 -2.70711e-19)
(-45.4148 12.2242 0)
(-39.7037 8.18705 -4.47389e-18)
(-33.7147 4.21264 1.8194e-18)
(-27.8277 0.554221 2.04374e-18)
(-22.4056 -2.54623 9.53696e-19)
(-17.6844 -4.90485 -6.0316e-19)
(-13.7741 -6.44794 -6.65907e-19)
(-10.7345 -7.21 -2.64826e-19)
(-8.58777 -7.30052 1.87347e-18)
(-7.24732 -6.86356 -1.74112e-18)
(-6.52824 -6.05622 0)
(-6.19905 -5.044 -2.2431e-18)
(-6.06434 -3.9881 2.08194e-18)
(-5.99751 -3.00652 -2.56116e-19)
(-5.9211 -2.15962 -3.797e-20)
(-5.80332 -1.46168 0)
(-5.64439 -0.90039 0)
(-5.45216 -0.446452 0)
(-5.23927 -0.0755485 -8.69488e-21)
(-5.02207 0.224233 -9.9365e-19)
(-4.81044 0.461051 8.80199e-19)
(-4.60723 0.640226 0)
(-4.41077 0.764258 0)
(-4.21677 0.834369 -3.078e-19)
(-4.01969 0.851761 3.25221e-19)
(-3.8137 0.818182 -3.34661e-20)
(-3.59333 0.735952 4.93081e-20)
(-3.35371 0.607716 6.73873e-20)
(-3.09066 0.436148 -2.71176e-19)
(-2.80071 0.223748 3.61414e-19)
(-2.4811 -0.0272491 -1.1502e-18)
(-2.12973 -0.314858 1.02697e-18)
(-1.74522 -0.637314 0)
(-1.32678 -0.993022 -1.2621e-19)
(-0.873935 -1.38022 -1.84415e-18)
(-0.386637 -1.79706 -8.04618e-21)
(0.134759 -2.2417 4.12329e-18)
(0.689856 -2.71211 -3.97906e-18)
(1.27842 -3.20567 1.77206e-18)
(1.90032 -3.71891 2.14635e-18)
(2.55524 -4.24692 -1.57742e-18)
(3.24212 -4.78259 -2.89547e-19)
(3.95809 -5.31575 -1.88707e-18)
(4.69711 -5.83251 1.905e-18)
(5.44849 -6.31501 -4.27841e-19)
(6.19587 -6.74181 -1.70443e-18)
(6.91757 -7.08898 1.44449e-18)
(7.58652 -7.3315 0)
(8.17172 -7.44695 -8.59631e-19)
(8.64478 -7.42082 3.33708e-19)
(8.98427 -7.24756 1.25357e-18)
(9.18251 -6.93486 -4.46638e-19)
(9.23965 -6.52753 1.52076e-19)
(9.14992 -6.14634 -1.50307e-19)
(6.04355 -3.87854 1.82785e-17)
(5.88389 -5.89811 0)
(2.48977 -2.33448 0)
(0.9511 -3.19744 5.0403e-19)
(3.44923 -5.12356 0)
(4.42566 -6.17806 0)
(1.54245 -4.68937 0)
(-5.49376 -0.595293 -7.38582e-19)
(-15.7587 4.93216 0)
(-27.8328 10.6432 -2.45488e-19)
(-40.3313 15.3899 1.02254e-16)
(-51.6754 18.0634 -2.1007e-16)
(-59.8907 17.3948 1.09117e-16)
(-62.7332 12.0636 0)
(-58.5055 1.37812 -5.68992e-19)
(-47.6598 -13.6383 2.45705e-20)
(-33.8309 -29.5317 0)
(-22.487 -41.3807 9.493e-17)
(-17.3747 -45.389 -1.84954e-16)
(-18.1604 -41.2944 8.11236e-18)
(-21.6344 -32.2023 8.08313e-17)
(-24.7713 -21.8792 3.84438e-19)
(-26.2467 -12.6088 0)
(-25.8686 -5.10426 -5.46153e-17)
(-23.8695 0.568094 5.67733e-17)
(-20.5952 4.5462 -4.65113e-17)
(-16.4772 7.05085 4.76978e-17)
(-11.9362 8.3323 3.94335e-17)
(-7.35432 8.6748 -3.96152e-17)
(-3.08642 8.39309 0)
(0.526141 7.79989 -2.80005e-17)
(3.1804 7.12181 2.83021e-17)
(4.70255 6.45479 3.27475e-19)
(5.14015 5.80335 -1.58472e-17)
(4.73795 5.13816 1.62574e-17)
(3.81959 4.44749 2.66763e-19)
(2.67958 3.76482 -3.4042e-19)
(1.52399 3.14509 -5.58926e-18)
(0.472532 2.6319 5.62175e-18)
(-0.414309 2.23907 3.14409e-18)
(-1.11549 1.955 -6.63505e-19)
(-1.63166 1.76595 -2.92397e-18)
(-1.98441 1.65888 0)
(-2.21776 1.61196 1.85022e-19)
(-2.37329 1.60966 -1.1225e-18)
(-2.47769 1.64752 2.54906e-18)
(-2.54794 1.71736 -2.14305e-18)
(-2.59222 1.80493 9.10268e-19)
(-2.6108 1.89394 0)
(-2.59939 1.96888 8.49371e-20)
(-2.55232 2.01709 -7.96048e-19)
(-2.4646 2.02987 8.51172e-19)
(-2.33291 2.00241 9.51576e-20)
(-2.15567 1.93298 -8.53468e-19)
(-1.93278 1.82189 6.98108e-19)
(-1.66508 1.67051 -1.03547e-18)
(-1.35402 1.48047 -1.3133e-18)
(-1.00133 1.25337 2.25819e-18)
(-0.609025 0.990335 -2.38751e-18)
(-0.179547 0.691754 2.47816e-18)
(0.285364 0.358938 0)
(0.784627 -0.00719676 -1.39618e-19)
(1.31675 -0.406832 -2.64343e-18)
(1.8811 -0.840011 2.29991e-18)
(2.47829 -1.30642 6.58574e-19)
(3.11006 -1.80511 0)
(3.77896 -2.33374 2.67909e-18)
(4.48729 -2.88761 -2.27821e-18)
(5.23536 -3.45842 -2.77517e-19)
(6.01907 -4.03328 -3.08572e-19)
(6.82736 -4.59445 5.29173e-19)
(7.63978 -5.12069 -4.09028e-20)
(8.42852 -5.58518 -1.86239e-18)
(9.16144 -5.95565 1.58631e-18)
(9.79829 -6.20728 -1.64654e-19)
(10.2982 -6.32137 0)
(10.6312 -6.28279 -7.9076e-19)
(10.7814 -6.09118 6.11868e-19)
(10.7463 -5.78302 0)
(10.5131 -5.47682 -8.97391e-20)
(7.03444 -5.2884 1.55354e-19)
(19.9281 -13.9648 2.40612e-17)
(35.6799 -23.3919 -2.34676e-17)
(52.7024 -32.9538 4.68523e-17)
(66.5139 -39.8019 -2.35662e-17)
(71.7994 -41.3354 -3.14707e-19)
(65.866 -35.7499 -2.03529e-17)
(49.5242 -23.1758 2.0954e-17)
(26.4959 -5.92045 3.01763e-19)
(1.3921 13.1851 5.424e-19)
(-22.2397 31.768 1.1916e-17)
(-41.9711 47.9851 4.70317e-18)
(-55.855 60.0478 -1.69003e-17)
(-62.16 66.0884 1.94855e-18)
(-59.9456 64.7119 4.08778e-18)
(-50.1436 56.0147 -5.07911e-18)
(-36.0459 42.2301 0)
(-22.1937 27.0982 0)
(-12.0824 14.1739 2.69022e-17)
(-6.67262 5.34328 3.15507e-18)
(-4.89057 0.614646 -2.93729e-17)
(-5.08107 -0.98757 3.18015e-17)
(-6.0123 -0.564597 -6.4394e-17)
(-6.99034 1.03003 3.18734e-17)
(-7.70322 3.2029 3.06298e-17)
(-8.02754 5.54261 -1.34057e-18)
(-7.98978 7.75163 -3.13038e-17)
(-7.70361 9.65967 1.14e-19)
(-7.32336 11.1873 -1.33687e-19)
(-7.01015 12.311 2.99523e-19)
(-6.89031 13.0512 0)
(-7.01007 13.4595 2.08411e-17)
(-7.30798 13.6075 -4.04127e-17)
(-7.64239 13.5456 1.95497e-17)
(-7.83159 13.294 0)
(-7.71351 12.8497 -1.44908e-17)
(-7.21523 12.1987 1.45318e-17)
(-6.37581 11.3653 0)
(-5.33034 10.4236 0)
(-4.25408 9.46716 -7.75918e-18)
(-3.29217 8.57789 7.98618e-18)
(-2.52686 7.79685 -8.30135e-20)
(-1.97559 7.12413 0)
(-1.6097 6.54549 3.7588e-18)
(-1.38712 6.04564 -7.73393e-19)
(-1.26884 5.6133 -3.45719e-18)
(-1.22221 5.24229 -1.77643e-19)
(-1.21978 4.92792 2.60188e-19)
(-1.23664 4.6636 0)
(-1.24961 4.43986 -1.86993e-18)
(-1.23848 4.2455 3.48821e-18)
(-1.18764 4.0695 -1.77483e-18)
(-1.08696 3.90237 -1.51791e-19)
(-0.931529 3.73667 -1.6591e-18)
(-0.720617 3.56678 1.5346e-19)
(-0.456342 3.38826 2.96413e-18)
(-0.142466 3.19728 -1.11097e-18)
(0.216417 2.99023 0)
(0.615635 2.76352 0)
(1.05108 2.51393 1.98439e-19)
(1.51848 2.23726 1.98226e-19)
(2.01477 1.92899 0)
(2.5391 1.58607 2.91824e-18)
(3.09217 1.20534 -2.85958e-18)
(3.67699 0.783945 -3.42173e-18)
(4.29914 0.32007 -4.0068e-19)
(4.96607 -0.186244 2.6044e-18)
(5.6853 -0.731858 -2.84723e-18)
(6.4612 -1.3091 2.7812e-18)
(7.29107 -1.90472 -2.34348e-20)
(8.16146 -2.49976 2.06061e-18)
(9.04629 -3.07055 -2.02588e-18)
(9.90741 -3.59044 -1.61836e-18)
(10.6992 -4.03298 2.01107e-18)
(11.3742 -4.37462 -1.1136e-18)
(11.8854 -4.59412 1.24064e-18)
(12.1948 -4.67576 -7.27766e-19)
(12.2811 -4.61464 1.19652e-18)
(12.1446 -4.43296 -1.84269e-19)
(11.7763 -4.25482 -1.71295e-19)
(2.81039 -2.59612 -1.07102e-17)
(13.8137 -9.51782 -1.55175e-19)
(27.9195 -22.5394 1.66075e-17)
(38.1674 -33.4541 -3.37545e-17)
(40.2261 -42.2304 1.73137e-17)
(38.5044 -49.415 -1.76489e-17)
(35.6033 -55.42 -6.24947e-19)
(32.1933 -59.549 1.9e-17)
(28.0042 -61.1379 -2.11997e-17)
(22.6045 -59.7167 2.08572e-17)
(15.0354 -54.7979 -2.38561e-17)
(3.76838 -45.6985 2.41895e-17)
(-12.5726 -31.9511 -2.65971e-17)
(-33.4768 -14.4002 2.68873e-17)
(-54.9813 3.82811 -2.10888e-19)
(-70.878 18.1356 -1.84242e-19)
(-76.95 25.3062 -5.449e-17)
(-73.7094 25.4272 5.54722e-17)
(-64.7521 20.9567 2.08216e-19)
(-53.7188 14.6103 -2.58377e-19)
(-42.9464 8.24514 -4.22822e-17)
(-33.6045 2.78565 4.24431e-17)
(-26.1047 -1.49136 0)
(-20.3856 -4.63929 2.02063e-19)
(-16.1568 -6.8127 0)
(-13.1021 -8.17204 0)
(-10.9607 -8.87728 1.57823e-19)
(-9.53848 -9.02942 1.184e-17)
(-8.65148 -8.70021 -1.21045e-17)
(-8.16437 -8.00317 -5.19121e-18)
(-7.95083 -7.03074 4.94716e-18)
(-7.87892 -5.85107 3.39527e-19)
(-7.82359 -4.53188 -3.46603e-19)
(-7.6816 -3.14369 0)
(-7.38685 -1.75643 8.37598e-22)
(-6.92346 -0.431972 0)
(-6.32943 0.783598 0)
(-5.67832 1.86465 -5.51531e-20)
(-5.0477 2.80229 0)
(-4.49267 3.59817 0)
(-4.03406 4.25793 5.21166e-18)
(-3.66291 4.78695 -4.8795e-18)
(-3.35532 5.19099 0)
(-3.08551 5.47786 0)
(-2.83442 5.65845 0)
(-2.59197 5.74745 -1.49835e-19)
(-2.35423 5.76221 1.77498e-19)
(-2.11909 5.72051 2.52501e-18)
(-1.88292 5.63847 -2.67366e-18)
(-1.63941 5.5292 2.29631e-18)
(-1.38052 5.40274 -2.53282e-18)
(-1.09825 5.26646 2.3903e-19)
(-0.786499 5.12578 1.20296e-19)
(-0.442167 4.9845 0)
(-0.065324 4.84485 0)
(0.341612 4.70706 -1.54353e-18)
(0.775405 4.56933 -1.87018e-19)
(1.23072 4.42896 1.71055e-18)
(1.70201 4.28129 -1.68543e-18)
(2.18521 4.11986 1.6704e-18)
(2.67802 3.93703 3.11284e-18)
(3.18017 3.72506 2.94725e-20)
(3.69433 3.47635 -6.28379e-18)
(4.22663 3.18359 3.19626e-18)
(4.78704 2.84033 1.94162e-19)
(5.38932 2.44171 3.83091e-19)
(6.04958 1.98565 3.04166e-18)
(6.78278 1.47452 -5.91022e-18)
(7.59732 0.916856 2.86824e-18)
(8.48875 0.328439 3.30662e-19)
(9.43518 -0.268258 2.41413e-18)
(10.3966 -0.846538 -2.62591e-18)
(11.3197 -1.37932 0)
(12.1452 -1.84291 -2.1278e-19)
(12.8168 -2.21878 0)
(13.2867 -2.49318 9.93675e-19)
(13.5182 -2.6561 -2.46328e-19)
(13.4917 -2.70458 -6.95713e-19)
(13.2145 -2.64547 1.91322e-19)
(12.7076 -2.60808 -1.35776e-19)
(-13.2192 6.31199 -9.48577e-18)
(-33.9371 15.0404 1.42596e-17)
(-51.7191 18.3797 2.70093e-19)
(-65.8326 17.4059 1.57351e-17)
(-74.2155 12.6992 -1.6082e-17)
(-72.8962 4.35689 1.46953e-17)
(-64.0229 -5.90491 -2.79169e-17)
(-52.2392 -15.6506 1.34953e-17)
(-40.9387 -23.6246 -1.04389e-17)
(-31.2258 -29.8136 1.07997e-17)
(-22.9225 -34.6513 0)
(-15.5164 -38.3717 3.55061e-19)
(-8.73669 -40.7947 -2.05877e-19)
(-2.91789 -41.2811 0)
(1.44811 -39.2148 0)
(4.84362 -34.8739 0)
(8.89145 -29.5988 0)
(14.9881 -24.899 1.85094e-19)
(22.895 -21.3236 0)
(30.7207 -18.277 -6.85699e-18)
(36.3297 -14.9198 7.48127e-18)
(38.8597 -10.9699 1.01559e-17)
(38.8349 -6.66072 -1.00911e-17)
(37.191 -2.3425 -4.44577e-18)
(34.6268 1.69652 4.48799e-18)
(31.5856 5.28008 8.10977e-19)
(28.3722 8.31514 -9.80712e-19)
(25.2107 10.758 4.38317e-18)
(22.2563 12.6241 9.3992e-19)
(19.5597 13.9692 -5.21462e-18)
(17.1227 14.8621 0)
(14.9506 15.3712 -1.84208e-20)
(13.0067 15.5422 -3.87927e-20)
(11.2685 15.4297 0)
(9.72121 15.0815 -8.38583e-22)
(8.34888 14.5472 0)
(7.13079 13.8788 0)
(6.04085 13.1311 -2.25493e-18)
(5.05312 12.3579 3.8489e-18)
(4.14836 11.6034 -1.57131e-18)
(3.31672 10.8971 -2.4271e-19)
(2.55613 10.2523 2.61909e-19)
(1.86928 9.66777 -1.19936e-21)
(1.26027 9.13324 0)
(0.732755 8.63543 1.33617e-18)
(0.28984 8.16269 -1.14808e-18)
(-0.0649679 7.70786 0)
(-0.326778 7.26902 0)
(-0.489329 6.84892 -1.71782e-18)
(-0.546285 6.45366 1.89612e-18)
(-0.4937 6.09116 2.10488e-18)
(-0.332266 5.7699 -1.98446e-18)
(-0.0686447 5.49797 -1.99442e-18)
(0.283493 5.28225 3.7147e-18)
(0.703738 5.12608 -1.83871e-18)
(1.1725 5.02353 -4.47862e-19)
(1.67444 4.97023 0)
(2.19678 4.96198 2.14733e-19)
(2.72434 4.98399 -1.48259e-18)
(3.24606 5.01783 3.11653e-18)
(3.75694 5.04481 -1.63163e-18)
(4.25745 5.0458 0)
(4.75417 5.00293 -1.99289e-19)
(5.25984 4.90042 0)
(5.7935 4.72567 -1.93747e-19)
(6.3793 4.47007 -1.74396e-19)
(7.04319 4.12996 -3.39073e-19)
(7.80654 3.70808 -2.78319e-18)
(8.67757 3.21491 2.40671e-18)
(9.6433 2.66937 -2.92667e-19)
(10.6654 2.09754 -2.25848e-18)
(11.6833 1.52925 2.71391e-18)
(12.6241 0.993182 -1.73015e-18)
(13.4165 0.512186 1.68267e-18)
(14.0023 0.101218 -1.27747e-18)
(14.3414 -0.231285 1.00128e-18)
(14.4098 -0.480046 5.9504e-19)
(14.2014 -0.644485 -5.76934e-19)
(13.7335 -0.721494 7.71094e-20)
(13.0806 -0.822831 -3.4009e-20)
(-12.171 7.41579 3.9059e-17)
(-45.5471 29.0455 5.44458e-17)
(-85.3785 46.8958 -1.08196e-16)
(-103.06 56.8745 1.02496e-16)
(-91.9502 48.1777 -5.0236e-17)
(-57.4991 26.1478 -2.26884e-19)
(-19.3593 -0.035896 3.46994e-17)
(5.62988 -19.1342 -6.61828e-17)
(16.8877 -28.2257 4.00311e-18)
(20.8659 -31.0312 2.80715e-17)
(21.0702 -30.7902 2.45646e-21)
(18.8944 -28.9991 -2.09813e-17)
(15.6868 -26.8322 2.14191e-17)
(12.6228 -24.8904 -1.87097e-17)
(10.3882 -23.2582 1.90622e-17)
(9.16351 -21.9791 1.75539e-17)
(8.75126 -21.1569 -1.78518e-17)
(8.71674 -20.8128 -1.91535e-19)
(8.64081 -20.8401 0)
(8.29794 -21.0519 -1.45743e-17)
(7.67507 -21.295 1.48456e-17)
(6.8202 -21.4035 -6.90396e-20)
(5.75395 -21.11 1.19815e-17)
(4.5599 -20.205 -1.20891e-17)
(3.36911 -18.6495 -2.50849e-19)
(2.28219 -16.5246 0)
(1.36145 -13.9193 7.09118e-20)
(0.596482 -10.9283 -2.2834e-21)
(-0.0593092 -7.64848 -1.00932e-17)
(-0.656704 -4.20573 1.01123e-17)
(-1.22095 -0.725831 5.84654e-18)
(-1.74752 2.67298 -5.96574e-18)
(-2.2452 5.84302 -1.33231e-19)
(-2.68757 8.65903 -1.60386e-18)
(-3.05759 11.0183 2.74627e-18)
(-3.34564 12.842 -9.71197e-19)
(-3.54472 14.111 -5.93967e-20)
(-3.66972 14.8699 -6.92302e-20)
(-3.7447 15.1871 -6.13408e-20)
(-3.80351 15.1365 8.44388e-20)
(-3.87661 14.8007 -1.84697e-20)
(-3.98077 14.261 5.01652e-19)
(-4.11589 13.5857 -1.71675e-19)
(-4.26454 12.8271 -3.2997e-19)
(-4.39597 12.021 -1.87944e-19)
(-4.47193 11.1917 1.5007e-19)
(-4.45371 10.3561 0)
(-4.30806 9.52775 1.02046e-18)
(-4.01186 8.72017 -1.03813e-18)
(-3.55612 7.94766 1.28773e-18)
(-2.94746 7.22643 6.39259e-20)
(-2.20599 6.57481 1.27683e-19)
(-1.35495 6.01603 8.71219e-20)
(-0.424294 5.57312 5.45184e-20)
(0.54337 5.24554 -1.75677e-18)
(1.50065 5.0211 8.90674e-20)
(2.40869 4.90454 0)
(3.24478 4.89867 -1.89976e-18)
(3.99451 4.99402 1.45241e-18)
(4.65126 5.16908 0)
(5.21883 5.39413 -1.70374e-18)
(5.71227 5.63551 1.30425e-18)
(6.15694 5.85828 0)
(6.5874 6.03009 -1.61331e-19)
(7.04414 6.12363 0)
(7.56897 6.11875 -2.41326e-18)
(8.19813 6.00366 5.22613e-18)
(8.95344 5.77566 -2.44054e-18)
(9.83329 5.44153 3.11301e-19)
(10.8068 5.01721 2.91998e-19)
(11.8143 4.52625 -1.8615e-18)
(12.7754 3.99663 1.574e-18)
(13.6051 3.45646 -1.49767e-19)
(14.2317 2.92975 -1.20206e-19)
(14.6087 2.43429 2.29684e-19)
(14.7149 1.98283 1.04549e-19)
(14.5467 1.58589 4.22144e-19)
(14.1171 1.25159 -1.66843e-19)
(13.4577 0.988635 -2.01697e-19)
(12.6857 0.736619 1.40385e-20)
(-3.92613 1.67247 0)
(-31.228 11.0628 -3.0826e-20)
(-84.5621 35.4272 3.68571e-19)
(-150.58 62.2985 4.19183e-17)
(-204.948 85.0678 -8.18027e-17)
(-226.951 91.8909 7.57626e-17)
(-204.304 78.0053 -3.6471e-17)
(-151.004 51.0729 0)
(-94.2798 25.0381 5.08509e-21)
(-51.0775 7.81893 2.46037e-17)
(-22.9873 -1.08209 -2.51934e-17)
(-6.03984 -4.37715 -2.27256e-17)
(3.34294 -4.17314 4.6678e-17)
(8.04923 -2.17261 5.33039e-19)
(10.2891 0.477672 -2.51382e-19)
(11.3485 3.22257 -2.28254e-17)
(11.8534 5.61096 -6.52754e-19)
(12.1302 7.39076 2.16458e-17)
(12.4113 8.34393 -2.14347e-17)
(12.993 8.42151 -4.01118e-20)
(14.0832 7.65601 -4.22649e-19)
(15.7513 6.09666 -6.73517e-19)
(17.8381 4.06698 1.5874e-17)
(20.0392 1.95563 -1.89894e-18)
(22.1055 0.0623227 -1.449e-17)
(23.8815 -1.4152 -4.43526e-19)
(25.2327 -2.41851 1.2295e-17)
(25.9982 -2.92374 -2.32795e-17)
(26.0685 -2.89685 2.14891e-17)
(25.3643 -2.34115 -1.00445e-17)
(23.858 -1.28382 0)
(21.5854 0.219498 1.53065e-17)
(18.6787 2.06656 -2.8749e-17)
(15.3411 4.15901 1.35115e-17)
(11.8018 6.36021 -1.01455e-17)
(8.29378 8.50562 1.07641e-17)
(5.01476 10.4289 1.28309e-19)
(2.10599 12.0044 0)
(-0.33045 13.1649 -4.69083e-20)
(-2.2532 13.8896 4.10474e-18)
(-3.67274 14.2031 -4.31812e-18)
(-4.63239 14.1591 5.94199e-20)
(-5.18979 13.8269 -3.47807e-20)
(-5.40223 13.2784 0)
(-5.31895 12.5802 0)
(-4.98008 11.7893 4.2202e-19)
(-4.42005 10.9513 -5.60839e-19)
(-3.67148 10.1011 -6.78568e-20)
(-2.76879 9.26566 -2.01065e-18)
(-1.7482 8.47856 4.50388e-18)
(-0.644966 7.75751 -2.1727e-18)
(0.504622 7.10174 0)
(1.66366 6.52786 2.96133e-18)
(2.795 6.03575 -2.76642e-18)
(3.88352 5.66006 0)
(4.91034 5.42929 2.59025e-18)
(5.83716 5.34044 -2.42567e-18)
(6.63283 5.37449 2.04856e-18)
(7.2822 5.51618 -1.81343e-18)
(7.78502 5.74989 0)
(8.15507 6.05292 3.54533e-19)
(8.4213 6.39658 1.80316e-19)
(8.62549 6.7487 -1.26125e-18)
(8.81815 7.07605 2.26459e-19)
(9.05209 7.34662 1.14875e-18)
(9.37466 7.53181 0)
(9.81913 7.60846 1.40002e-19)
(10.3964 7.56077 0)
(11.089 7.38186 0)
(11.8494 7.07461 -1.4442e-18)
(12.6055 6.65171 1.40837e-18)
(13.2736 6.13431 9.42199e-19)
(13.7778 5.54911 -3.51142e-20)
(14.0675 4.92458 -6.85145e-19)
(14.1232 4.28797 -5.24815e-19)
(13.9475 3.66446 4.21123e-19)
(13.5527 3.07747 -4.118e-20)
(12.9642 2.54849 -1.47665e-20)
(12.2295 2.09118 -6.5311e-20)
(11.469 1.6994 5.61858e-20)
(-4.01598 2.0437 -6.24013e-17)
(-16.835 6.77052 4.68217e-17)
(-40.9858 22.9936 4.74515e-17)
(-78.0152 45.8523 -4.86829e-17)
(-101.464 68.1731 -3.64194e-19)
(-88.479 76.7956 -3.64314e-19)
(-43.3504 71.3457 0)
(11.7436 58.9679 -6.28554e-17)
(58.544 46.6992 6.46606e-17)
(89.8729 38.097 0)
(105.3 34.1812 6.96993e-17)
(106.853 34.7198 -1.42627e-16)
(99.1699 38.2543 4.12043e-19)
(88.7921 43.0638 1.4295e-16)
(79.9369 48.5168 -7.17949e-17)
(72.513 54.4271 -7.00433e-19)
(64.9068 60.1028 3.46745e-19)
(56.5861 64.5592 0)
(48.2781 66.8582 -4.50878e-17)
(41.0343 66.6304 4.51301e-17)
(35.4833 64.0102 3.12315e-19)
(31.9534 59.4233 -2.65044e-17)
(30.4816 53.6238 2.75296e-17)
(30.7095 47.4494 -1.8658e-17)
(31.9048 41.6556 1.89551e-17)
(33.2365 36.7449 4.37469e-19)
(34.0765 32.8216 -1.16298e-17)
(34.0868 29.7738 1.96609e-18)
(33.1814 27.3924 1.74553e-17)
(31.444 25.5044 -1.56506e-18)
(29.0143 23.9815 -6.85569e-18)
(26.0542 22.7558 -5.07559e-18)
(22.7268 21.7873 5.07829e-18)
(19.1046 21.0558 0)
(15.3372 20.6015 -2.87248e-19)
(11.5836 20.4406 -2.48916e-19)
(8.00191 20.5458 0)
(4.7241 20.8293 -3.91591e-18)
(1.86007 21.2075 4.07962e-18)
(-0.509985 21.6197 1.13264e-19)
(-2.34761 22.018 0)
(-3.65648 22.3659 -5.85e-20)
(-4.46972 22.6415 2.46333e-19)
(-4.83681 22.8349 -1.45588e-19)
(-4.81597 22.942 0)
(-4.46737 22.9601 -1.60448e-18)
(-3.84766 22.8868 1.80808e-18)
(-3.00704 22.7205 0)
(-1.99092 22.4509 0)
(-0.836023 22.0782 -1.50157e-19)
(0.427019 21.6023 -1.61184e-19)
(1.76103 20.997 0)
(3.1366 20.2806 2.37795e-18)
(4.51013 19.4497 -2.52393e-18)
(5.81832 18.4983 -2.15752e-18)
(7.0169 17.4754 3.00228e-19)
(8.07372 16.4367 3.59113e-18)
(8.94883 15.4021 -3.14074e-18)
(9.61615 14.4026 -2.6583e-20)
(10.0744 13.4767 1.15763e-18)
(10.3466 12.6538 -1.60787e-19)
(10.4751 11.9477 0)
(10.5149 11.3577 0)
(10.5244 10.8695 6.8476e-19)
(10.5569 10.4566 -7.22513e-19)
(10.6533 10.0846 0)
(10.8368 9.71628 3.87063e-20)
(11.1078 9.31679 0)
(11.4423 8.85844 3.78306e-19)
(11.7945 8.32431 -3.69334e-19)
(12.1063 7.7104 3.20932e-20)
(12.3226 7.02568 4.67504e-19)
(12.4086 6.28969 -3.60551e-19)
(12.3554 5.52826 3.87601e-21)
(12.1697 4.76904 0)
(11.8579 4.03889 0)
(11.4263 3.36292 0)
(10.9003 2.76309 1.58924e-19)
(10.3371 2.25235 5.54225e-20)
(9.82277 1.84167 -3.80022e-19)
(-2.42111 -0.0599045 -1.45082e-17)
(10.0919 -9.30155 -1.99655e-17)
(31.4074 -18.5911 2.04285e-17)
(36.5709 -23.6059 -1.70402e-17)
(25.296 -18.7766 1.70236e-17)
(11.5852 -11.9901 -3.8673e-19)
(4.65474 -8.02315 -3.81349e-19)
(6.00041 -8.52569 0)
(13.029 -12.7541 -2.71232e-19)
(23.0795 -19.1562 0)
(35.1366 -26.4184 -3.35597e-19)
(50.0452 -34.091 -3.54992e-18)
(69.602 -42.0096 3.29222e-18)
(92.7725 -48.8412 1.16972e-17)
(112.473 -51.8479 -1.13906e-17)
(118.751 -48.5125 1.86258e-17)
(106.221 -38.38 -1.96346e-17)
(78.0224 -23.9061 0)
(43.3909 -9.16837 0)
(11.5416 2.53199 0)
(-12.0478 9.66669 -1.99233e-17)
(-25.2417 11.9821 3.93317e-17)
(-28.1296 10.1365 -1.78572e-18)
(-23.0744 5.70646 -3.35714e-17)
(-14.2583 0.673978 1.64603e-17)
(-5.75768 -3.45016 0)
(0.208243 -6.08778 3.01381e-19)
(3.38605 -7.36903 0)
(4.4743 -7.69436 -1.03849e-17)
(4.28359 -7.40574 1.024e-17)
(3.39038 -6.72214 -2.18698e-19)
(2.15276 -5.77084 0)
(0.807157 -4.57343 7.57693e-18)
(-0.562863 -3.2154 -1.46542e-17)
(-1.86107 -1.74248 7.09716e-18)
(-3.01663 -0.195492 -5.49826e-18)
(-3.97462 1.41582 1.03891e-17)
(-4.70181 3.06005 -4.88352e-18)
(-5.18478 4.71074 0)
(-5.42168 6.34397 0)
(-5.4223 7.94334 0)
(-5.20615 9.48344 2.40734e-18)
(-4.80217 10.928 -6.65192e-18)
(-4.24252 12.2448 4.17488e-18)
(-3.55891 13.4137 0)
(-2.7821 14.4206 -2.86476e-18)
(-1.94117 15.2572 2.78671e-18)
(-1.06366 15.9204 2.16728e-18)
(-0.17537 16.4117 -3.88686e-19)
(0.701235 16.7372 -2.26665e-19)
(1.54484 16.9055 -2.05293e-19)
(2.33558 16.929 -1.44413e-18)
(3.05732 16.8219 0)
(3.70392 16.6037 0)
(4.27117 16.2933 -7.62231e-19)
(4.7557 15.8843 7.52207e-19)
(5.17485 15.3764 0)
(5.55182 14.7811 0)
(5.90984 14.1283 1.99482e-20)
(6.26226 13.4387 9.8857e-20)
(6.61189 12.7253 0)
(6.95378 12.003 0)
(7.27992 11.2874 -1.39837e-20)
(7.58459 10.5907 -1.00517e-20)
(7.86788 9.91812 2.04665e-19)
(8.13524 9.26655 -2.6571e-19)
(8.39306 8.62675 -4.85905e-21)
(8.64265 7.98663 1.22426e-19)
(8.87724 7.33622 -5.74968e-20)
(9.08507 6.67226 5.54174e-21)
(9.25676 5.99952 -4.74759e-20)
(9.39034 5.32856 2.94769e-20)
(9.48606 4.67188 -1.18972e-19)
(9.53432 4.04147 -4.70822e-20)
(9.51284 3.44911 2.97826e-19)
(9.4037 2.90755 -1.78712e-19)
(9.21746 2.43007 0)
(8.99783 2.02709 -4.70617e-20)
(8.79888 1.70244 0)
(8.65469 1.45302 2.50618e-19)
(-5.44549 6.33372 0)
(-15.0213 16.1431 7.40015e-20)
(-16.3737 24.0371 -7.28628e-20)
(-9.84761 29.2686 -1.15639e-16)
(0.265551 32.141 2.31534e-16)
(12.113 34.1564 -1.15174e-16)
(25.3096 34.8889 3.81352e-19)
(39.4829 34.1577 0)
(54.0185 32.081 0)
(68.2355 28.8536 0)
(81.826 24.719 3.34649e-19)
(95.1028 19.8807 1.69106e-19)
(107.86 14.5689 0)
(117.141 9.11434 1.30799e-19)
(117.76 4.00466 -3.29189e-19)
(105.164 -0.184788 3.98913e-17)
(77.9143 -2.4086 -3.97645e-17)
(39.0856 -1.46214 -9.14898e-20)
(-3.53927 2.50127 0)
(-41.2337 7.42405 8.77973e-20)
(-67.6979 10.7521 -2.33267e-19)
(-79.6286 11.1702 6.39754e-18)
(-77.0236 8.72189 -5.89339e-19)
(-63.764 4.1968 -5.6836e-18)
(-46.2213 -1.17067 -3.27845e-19)
(-30.0101 -6.16513 1.46672e-19)
(-17.7978 -10.125 -7.35869e-18)
(-9.62389 -12.9753 6.56561e-18)
(-4.44102 -14.9093 2.8713e-19)
(-1.22598 -16.1376 2.74752e-19)
(0.706831 -16.8082 2.65044e-19)
(1.78248 -17.0269 -7.50128e-18)
(2.26638 -16.8449 7.57511e-18)
(2.33549 -16.3285 4.54705e-19)
(2.12346 -15.5292 -2.10016e-19)
(1.73032 -14.497 1.96213e-19)