/*--------------------------------*- C++ -*----------------------------------*\
| =========                 |                                                 |
| \\      /  F ield         | OpenFOAM: The Open Source CFD Toolbox           |
|  \\    /   O peration     | Version:  2012                                  |
|   \\  /    A nd           | Website:  www.openfoam.com                      |
|    \\/     M anipulation  |                                                 |
\*---------------------------------------------------------------------------*/
FoamFile
{
    version     2.0;
    format      ascii;
    class       volScalarField;
    location    "0.69";
    object      p;
}
// * * * * * * * * * * * * * * * * * * * * * * * * * * * * * * * * * * * * * //

dimensions      [0 2 -2 0 0 0 0];


internalField   nonuniform List<scalar> 
42400
(
-8541.59
-8314.25
-8073.34
-7816.16
-7473.99
-7004.46
-6396.93
-5692.69
-4963.01
-4289.6
-3741.54
-3347.47
-3082.64
-2895.25
-2743.76
-2610.32
-2491.46
-2384.73
-2280.65
-2166.09
-2029.05
-1853.62
-1627.23
-1367.55
-1117.71
-907.383
-736.92
-595.921
-477.282
-377.338
-293.641
-224.217
-167.279
-120.984
-83.39
-52.6348
-27.1815
-5.91055
11.9744
27.0324
39.6595
50.1602
58.794
65.804
71.4358
75.9486
79.614
82.6987
85.4332
87.9804
90.4216
92.7558
94.8477
96.7364
98.3541
99.6404
100.57
101.131
101.321
101.14
100.593
99.694
98.4637
96.9306
95.1282
93.0915
90.8559
88.4547
85.9189
83.2769
80.554
77.772
74.9483
72.094
69.2116
66.2923
63.3155
60.2394
56.9648
53.4312
-1983.49
-2056.02
-2168.82
-2293.04
-2421.32
-2475.32
-2426.23
-2275.75
-2047.8
-1779.37
-1504.43
-1243.13
-1001.25
-779.021
-578.905
-407.998
-275.417
-186.031
-135.746
-109.985
-84.4542
-31.2445
61.3796
170.824
253.021
276.979
243.108
172.471
87.5342
3.90019
-69.0731
-126.326
-165.956
-188.522
-196.297
-192.343
-179.843
-161.727
-140.467
-117.986
-95.6382
-74.2681
-54.3339
-36.0358
-19.4023
-4.32613
9.40842
22.068
33.8835
44.9798
55.3525
64.6614
73.083
80.3605
86.4155
91.2862
95.0642
97.8669
99.8141
101.014
101.559
101.525
100.979
99.9793
98.578
96.8262
94.774
92.4716
89.9688
87.3141
84.5525
81.725
78.8669
76.0073
73.1665
70.351
67.555
64.7763
61.9871
59.0463
13425.8
13286.6
13128.3
12880.8
12511.2
12017.6
11409.2
10698.1
9888.51
8973.37
7952.32
6852.95
5727.32
4626.14
3584.63
2637.81
1828.1
1181.88
684.983
295.645
-24.389
-289.666
-494.752
-631.276
-701.962
-721.409
-706.828
-671.218
-623.146
-568.403
-511.143
-454.458
-400.501
-350.5
-304.92
-263.643
-226.212
-192.109
-160.922
-132.373
-106.274
-82.4655
-60.7915
-41.0944
-23.2071
-6.93072
7.97511
21.7651
34.6423
46.6777
57.8277
68.2083
77.4309
85.3256
91.8527
97.0563
101.047
103.972
105.985
107.217
107.78
107.766
107.246
106.277
104.905
103.172
101.118
98.7844
96.2139
93.4532
90.5514
87.559
84.5244
81.491
78.5041
75.5838
72.7486
69.9998
67.3561
64.6308
-11475
-11117.2
-10662.4
-10156.9
-9598.58
-9030.11
-8444.39
-7800.92
-7041.01
-6116.08
-5041.02
-3917.59
-2882.96
-2021.17
-1349.35
-862.966
-553.852
-404.198
-386.89
-474.679
-636.023
-831.429
-1018.59
-1164.36
-1252.65
-1282
-1258.64
-1191.6
-1090.47
-964.383
-822.278
-673.211
-525.725
-387.099
-262.84
-156.381
-69.1124
-0.678485
50.5762
87.1142
111.725
127.127
135.716
139.469
139.964
138.444
135.887
133.031
130.389
128.258
126.745
125.808
125.26
124.927
124.636
124.243
123.678
122.937
122.139
121.163
120.019
118.722
117.27
115.652
113.85
111.846
109.626
107.184
104.524
101.666
98.6393
95.4891
92.271
89.0229
85.7647
82.5516
79.4254
76.4082
73.5173
70.6817
-5820.89
-5900.98
-6011.47
-6113.28
-6204.39
-6259.36
-6270.36
-6221.21
-6080.58
-5810.55
-5392.47
-4860.92
-4306.7
-3827.67
-3473.3
-3234.05
-3065.8
-2920.16
-2764.47
-2582.57
-2367.82
-2117.77
-1835.12
-1526.38
-1199.5
-863.968
-531.239
-213.354
76.7061
326.625
527.222
673.713
766.333
810.24
814.002
787.527
740.464
681.312
617.015
552.797
492.175
437.168
388.644
346.645
310.747
280.3
254.591
232.946
214.769
199.55
186.852
176.287
167.514
160.23
154.165
149.09
144.796
141.092
137.73
134.736
132.032
129.538
127.185
124.907
122.641
120.328
117.917
115.367
112.648
109.746
106.662
103.411
100.01
96.5022
92.9489
89.394
85.8755
82.4372
79.0946
75.9217
5529.61
5600.13
5730.91
5880.08
6014.36
6095.21
6112.96
6060.99
5932.92
5730.06
5466
5163.46
4845.33
4526.21
4210.56
3897.41
3587.43
3287.44
3007.96
2755.65
2529.41
2323.05
2130.13
1946.23
1768
1592.53
1417.85
1242.72
1069.19
901.697
746.199
609.057
495.516
408.234
346.555
306.999
284.273
272.761
267.529
264.854
262.325
258.653
253.373
246.539
238.479
229.62
220.384
211.131
202.139
193.605
185.651
178.34
171.689
165.683
160.286
155.45
151.117
147.225
143.709
140.513
137.578
134.849
132.269
129.779
127.323
124.845
122.296
119.632
116.824
113.852
110.71
107.405
103.958
100.396
96.7586
93.0848
89.4159
85.7925
82.2548
78.8416
9878.03
9682.54
9460.06
9187.34
8820.07
8409.83
7967.18
7489.58
6970.14
6400.97
5781.85
5120.19
4428.46
3721.78
3023
2374.64
1834.02
1438.13
1176.84
1013.45
918.372
872.552
857.188
853.043
844.934
825.453
793.791
753.199
708.598
664.62
624.227
588.164
555.349
523.953
492.577
460.907
429.599
399.69
372.029
347.035
324.723
304.854
287.073
271.013
256.36
242.882
230.427
218.914
208.303
198.576
189.717
181.703
174.499
168.06
162.324
157.226
152.691
148.642
145.005
141.705
138.671
135.837
133.139
130.521
127.929
125.315
122.639
119.868
116.979
113.958
110.803
107.518
104.119
100.629
97.0757
93.4915
89.9085
86.3568
82.8656
79.4177
-6327.32
-6143.98
-5916.15
-5648.4
-5325.04
-4952.6
-4534.65
-4091.39
-3650.63
-3233.84
-2851.16
-2503.67
-2189.74
-1909.73
-1666.48
-1462.89
-1299.94
-1177.63
-1094.89
-1045.22
-1014.51
-986.661
-950.888
-902.527
-839.152
-761.169
-670.409
-569.315
-461.413
-351.299
-243.818
-143.049
-51.8639
27.7957
94.4654
147.097
185.439
210.396
223.956
228.705
227.26
221.867
214.281
205.782
197.222
189.113
181.719
175.138
169.376
164.365
160
156.172
152.777
149.73
146.956
144.398
142.004
139.733
137.547
135.414
133.302
131.185
129.034
126.826
124.538
122.152
119.654
117.032
114.281
111.403
108.403
105.292
102.086
98.8053
95.4702
92.1036
88.7273
85.361
82.0201
78.69
-6773.69
-6605.72
-6465.35
-6373.78
-6272.09
-6111.61
-5873.69
-5587.58
-5291.13
-5004.53
-4728.78
-4455.85
-4177.3
-3888.54
-3589.74
-3283.91
-2974.02
-2661.11
-2345.24
-2027.74
-1711.89
-1401.97
-1103.11
-820.164
-557.951
-322.7
-122.346
34.7761
143.116
202.9
220.971
209.047
180.236
145.735
113.255
87.1025
68.9936
58.9517
56.0103
58.6871
65.3025
74.1842
83.9478
93.4426
102.003
109.331
115.355
120.145
123.824
126.551
128.481
129.749
130.482
130.783
130.74
130.417
129.86
129.104
128.168
127.065
125.801
124.38
122.8
121.062
119.163
117.106
114.892
112.526
110.013
107.364
104.591
101.707
98.73
95.6766
92.5659
89.4171
86.249
83.079
79.9225
76.7704
6078
5933.91
5697
5360.4
4953.93
4575.18
4252.21
3968.22
3696.24
3423.48
3150.78
2884.06
2627.84
2383.76
2151.1
1928.35
1714.89
1511.53
1316.69
1130.78
956.49
800.224
669.974
567.98
485.434
405.434
314.227
209.106
96.8132
-12.5684
-107.707
-177.682
-216.677
-226.832
-216.11
-193.333
-164.814
-134.097
-103.107
-73.0533
-44.7678
-18.7936
4.60013
25.2748
43.1426
58.3214
71.052
81.6141
90.2902
97.3527
103.054
107.605
111.183
113.936
115.989
117.441
118.377
118.864
118.957
118.7
118.13
117.275
116.159
114.803
113.225
111.441
109.468
107.322
105.017
102.569
99.9961
97.3137
94.5391
91.6895
88.782
85.8336
82.8604
79.8779
76.8997
73.9139
727.206
689.491
675.871
703.293
735.698
770.692
799.131
816.506
820.208
805.549
767.55
702.36
608.283
485.506
336.62
166.399
-18.5339
-209.301
-395.642
-569.153
-720.474
-835.349
-899.048
-906.146
-870.671
-819.972
-767.64
-699.533
-608.952
-503.289
-392.369
-285.471
-191.203
-115.448
-59.6596
-21.2886
4.57472
22.3403
35.2954
45.489
54.1039
61.7268
68.476
74.6834
80.4911
85.887
90.8392
95.3189
99.3062
102.794
105.786
108.295
110.342
111.951
113.15
113.968
114.433
114.572
114.407
113.962
113.254
112.302
111.12
109.725
108.13
106.35
104.4
102.293
100.046
97.6736
95.1911
92.6138
89.9572
87.2362
84.4657
81.6599
78.8327
75.9971
73.164
70.3197
-4640.24
-4559.49
-4461
-4335.59
-4202.69
-4054.97
-3878.07
-3658.78
-3400.68
-3121.48
-2838.74
-2562.8
-2295.22
-2037.11
-1789.81
-1554.12
-1332.6
-1129.88
-948.736
-787.102
-639.574
-501.655
-378.432
-282.152
-209.886
-141.876
-73.2606
-23.6605
0.218778
8.1772
11.0196
13.9983
18.7136
25.25
33.0985
41.6023
50.2188
58.5764
66.335
72.9494
78.3204
82.6586
86.7487
90.6775
94.477
98.1142
101.508
104.567
107.219
109.423
111.17
112.474
113.37
113.897
114.097
114.009
113.665
113.091
112.307
111.328
110.165
108.826
107.318
105.651
103.831
101.869
99.775
97.5612
95.2398
92.8235
90.3252
87.7577
85.1337
82.4655
79.7649
77.0434
74.3122
71.5812
68.858
66.1294
9613.72
9433.24
9134.84
8609.03
7783.33
6773
5751.39
4851.18
4100.53
3461.31
2896.44
2391.11
1941.18
1542.25
1188.73
877.034
604.657
369.157
169.009
4.06484
-125.264
-220.31
-281.367
-297.754
-253.56
-157.308
-48.3223
39.9725
101.373
141.458
164.355
173.5
172.229
163.521
150.111
134.372
118.148
102.855
89.96
81.144
76.688
76.554
79.8236
85.4955
92.4121
99.4891
105.926
111.256
115.297
118.066
119.697
120.384
120.328
119.716
118.704
117.408
115.913
114.274
112.526
110.686
108.762
106.757
104.671
102.503
100.256
97.9321
95.5358
93.0738
90.5534
87.983
85.3714
82.7272
80.0594
77.3766
74.6871
71.9992
69.3209
66.6588
64.0183
61.3861
-10920.9
-9952.13
-8729.8
-7542.26
-6374.2
-5337.3
-4414.36
-3608.43
-2931.63
-2385
-1955.55
-1623.59
-1369.07
-1173.9
-1021.98
-898
-788.222
-682.662
-576.591
-471.305
-373.433
-292.396
-236.142
-208.125
-206.329
-224.084
-249.131
-263.522
-254.376
-221.755
-174.946
-123.695
-73.0055
-24.0834
22.6762
66.4848
106.234
140.743
168.885
189.582
202.746
208.463
207.306
200.756
191.646
181.827
172.446
164.053
156.754
150.412
144.819
139.789
135.191
130.942
126.993
123.309
119.858
116.609
113.526
110.572
107.712
104.915
102.154
99.4097
96.6688
93.923
91.1689
88.4063
85.6376
82.8665
80.0977
77.3363
74.5875
71.8564
69.1483
66.468
63.8204
61.2094
58.6377
56.0908
1316.34
1138.53
914.128
654.569
345.516
24.938
-291.023
-603.64
-916.318
-1223.77
-1510.91
-1759.54
-1953.05
-2079.19
-2131.53
-2109.13
-2015.1
-1855.13
-1638.54
-1379.75
-1099.41
-822.595
-573.48
-369.37
-217.671
-115.918
-55.0101
-24.3203
-14.047
-15.6018
-21.804
-27.0055
-27.428
-21.3307
-8.75797
8.97683
29.8361
51.517
71.8181
88.9506
101.868
110.497
115.714
118.99
121.264
123.163
125.108
127.057
128.707
129.753
130.008
129.436
128.112
126.174
123.771
121.037
118.08
114.985
111.809
108.594
105.365
102.139
98.9248
95.7299
92.5591
89.4171
86.3079
83.2356
80.2036
77.2153
74.2734
71.3806
68.5389
65.7505
63.0171
60.3402
57.7215
55.1617
52.6606
50.2024
8460.72
8416.54
8404.62
8395.9
8364.24
8269.04
8094.8
7849.76
7552.15
7216.16
6848.71
6452.97
6030.39
5581.55
5106.42
4604.81
4078.93
3535.47
2987.24
2452.42
1951.68
1504.3
1124.28
817.779
582.809
411.293
292.77
215.998
170.135
145.757
135.431
133.723
136.867
142.404
148.836
155.289
161.23
166.274
170.1
172.452
173.198
172.408
170.371
167.544
164.27
161.127
158.125
155.189
152.182
148.951
145.398
141.504
137.328
132.96
128.495
124.008
119.555
115.172
110.881
106.693
102.614
98.6453
94.7842
91.0289
87.3768
83.8255
80.373
77.0172
73.7565
70.5892
67.5136
64.5279
61.6305
58.8196
56.0936
53.4509
50.89
48.4085
46.0039
43.6595
-159.852
-75.3065
49.1008
205.89
404.967
619.78
838.894
1052.93
1251.5
1423.43
1559.24
1654.57
1710.61
1731.85
1722.96
1686.95
1625.55
1540.65
1435.56
1314.96
1184.38
1049.28
912.194
776.931
646.934
525.719
416.682
322.939
246.676
188.313
146.855
120.364
106.38
102.269
105.452
113.558
124.518
136.603
148.428
158.947
167.444
173.525
177.103
178.323
177.36
174.774
171.06
166.535
161.457
156.023
150.396
144.697
139.006
133.375
127.833
122.403
117.103
111.949
106.95
102.115
97.4469
92.9468
88.6137
84.4453
80.4386
76.5898
72.8943
69.3473
65.9436
62.6777
59.544
56.5371
53.6514
50.8816
48.2226
45.6697
43.2182
40.863
38.5994
36.4103
-1658.29
-1804.59
-2004.79
-2233.11
-2484.01
-2729.32
-2965.84
-3194.6
-3411.82
-3608.5
-3770.71
-3881.34
-3920.91
-3869.21
-3710.17
-3439.53
-3071.09
-2636.44
-2173.57
-1720.39
-1304.45
-941.313
-636.681
-389.892
-197.287
-52.7919
50.7341
120.374
163.031
185.248
193.02
191.552
185.09
176.839
168.989
162.809
158.819
156.976
156.869
157.889
159.382
160.762
161.568
161.511
160.544
158.637
155.949
152.631
148.815
144.59
140.023
135.168
130.083
124.828
119.469
114.071
108.695
103.394
98.2095
93.1747
88.3115
83.6342
79.1502
74.8623
70.7695
66.8681
63.1528
59.6171
56.2536
53.0544
50.0118
47.1176
44.3641
41.7437
39.2491
36.8734
34.61
32.4519
30.3932
28.4181
-7428.51
-6940.61
-6269.58
-5498.3
-4611.01
-3722.23
-2864.57
-2057.96
-1318.25
-661.777
-105.792
334.104
647.316
831.75
895.954
859.066
748.641
596.6
432.927
279.313
147.429
41.2421
-39.2311
-95.5023
-129.909
-146.288
-148.317
-139.279
-122.053
-99.5558
-74.1581
-47.6388
-21.2787
4.03835
27.7375
49.4699
69.0399
86.3473
101.346
114.03
124.424
132.586
138.6
142.583
144.695
145.131
144.104
141.84
138.56
134.471
129.764
124.605
119.141
113.495
107.774
102.063
96.4336
90.9394
85.6209
80.5063
75.6131
70.9512
66.5236
62.3289
58.3618
54.6149
51.0789
47.7437
44.5987
41.6332
38.8364
36.198
33.7081
31.3572
29.1364
27.037
25.0513
23.1711
21.39
19.6953
5901.27
5805.15
5663.71
5412.45
5058.55
4589.61
4038.26
3447.47
2860.78
2314.97
1830.12
1411.32
1056.75
762.499
523.566
332.199
176.707
42.103
-85.8768
-214.684
-341.33
-454.65
-542.063
-595.248
-612.174
-595.915
-552.729
-490.227
-415.953
-336.545
-257.353
-182.262
-113.85
-53.5825
-2.11038
40.5465
74.8495
101.579
121.664
136.058
145.676
151.351
153.762
153.518
151.166
147.184
141.997
135.972
129.418
122.588
115.672
108.812
102.108
95.6224
89.3971
83.4547
77.8063
72.4549
67.3978
62.6288
58.139
53.9178
49.9533
46.2332
42.7446
39.4745
36.4102
33.5392
30.8495
28.3295
25.9683
23.7553
21.6804
19.7344
17.9081
16.1932
14.5816
13.0656
11.639
10.2944
-18394.2
-18032.5
-17645.7
-17225.1
-16734.9
-16121
-15361.9
-14477.6
-13494.1
-12399.4
-11141.8
-9684.72
-8107.94
-6642.93
-5502.33
-4712.91
-4165.7
-3753.22
-3423.12
-3152.29
-2921.15
-2709.44
-2500.51
-2285.4
-2063.95
-1842.28
-1628.05
-1427.6
-1244.87
-1081.45
-937.317
-811.508
-702.574
-608.875
-528.764
-460.689
-403.221
-355.034
-314.888
-281.641
-254.268
-231.865
-213.595
-198.628
-186.114
-175.218
-165.195
-155.463
-145.642
-135.565
-125.264
-114.928
-104.858
-95.4108
-86.9171
-79.5918
-73.4888
-68.5076
-64.4786
-61.2057
-58.5013
-56.2098
-54.214
-52.4318
-50.8112
-49.3224
-47.9513
-46.6942
-45.5529
-44.5313
-43.6321
-42.8552
-42.1971
-41.6509
-41.2062
-40.8498
-40.5647
-40.3268
-40.1222
-39.9281
5504.12
5407.47
5351.41
5345.05
5312.09
5250.25
5131.28
4938.5
4683.39
4411.4
4188.31
4050.63
3955.16
3800.6
3522.02
3156.29
2788.88
2465.97
2187.3
1941.3
1718.84
1513.25
1319.66
1134.69
957.168
788.224
629.982
484.452
352.818
235.393
132.068
42.8406
-31.9633
-91.9205
-136.989
-167.885
-186.141
-193.914
-193.675
-187.942
-179.051
-168.97
-159.13
-150.346
-142.86
-136.488
-130.808
-125.344
-119.692
-113.601
-106.998
-99.9831
-92.7963
-85.7562
-79.183
-73.3144
-68.2463
-63.9611
-60.3431
-57.2577
-54.5871
-52.2437
-50.1652
-48.3066
-46.6353
-45.128
-43.7678
-42.5424
-41.443
-40.4632
-39.5977
-38.8419
-38.1909
-37.639
-37.1792
-36.8023
-36.495
-36.2339
-36.0208
-35.8576
17271.9
17008
16567.5
15780.1
14550
13058.3
11531
10151.2
8959.04
7901.73
6940.23
6079.52
5335.62
4705.89
4169.05
3696.46
3267.21
2867.8
2490.47
2130.52
1785.76
1457.75
1152.18
877.704
643.712
457.324
320.558
228.909
172.217
138.047
115.297
96.4352
77.7337
58.1235
37.8892
17.7694
-1.5197
-19.4723
-35.8044
-50.3591
-62.999
-73.5615
-81.8934
-87.9222
-91.705
-93.4257
-93.3524
-91.7862
-89.0282
-85.3654
-81.0688
-76.395
-71.5905
-66.8816
-62.4578
-58.4533
-54.9431
-51.9215
-49.3368
-47.1241
-45.216
-43.5509
-42.0764
-40.7515
-39.5464
-38.441
-37.4226
-36.4838
-35.6203
-34.8304
-34.1131
-33.468
-32.8945
-32.3914
-31.9567
-31.5861
-31.2688
-30.9818
-30.7475
-30.6043
-11809.7
-11502.5
-11179.2
-10868.8
-10522.8
-10034.7
-9320.57
-8423.66
-7489.88
-6639.27
-5899.01
-5245.34
-4657.75
-4125.33
-3637.86
-3184.58
-2760.03
-2366.5
-2010.5
-1697.25
-1430.04
-1212.1
-1042.69
-913.781
-812.902
-727.138
-645.688
-564.179
-485.067
-411.656
-345.505
-286.707
-234.88
-189.684
-150.904
-118.333
-91.6864
-70.5743
-54.503
-42.8984
-35.1344
-30.5597
-28.5207
-28.3801
-29.5375
-31.4517
-33.6619
-35.8042
-37.6197
-38.9533
-39.7441
-40.0109
-39.8307
-39.315
-38.5858
-37.7542
-36.9053
-36.092
-35.3363
-34.6364
-33.9763
-33.335
-32.6952
-32.0476
-31.3914
-30.732
-30.0778
-29.4375
-28.8193
-28.2299
-27.6747
-27.1576
-26.6817
-26.2488
-25.8601
-25.5136
-25.1994
-24.8931
-24.6316
-24.4825
-11027.2
-10688.6
-10227.1
-9639.15
-8876.98
-7982.65
-6987.23
-5956.72
-4963.87
-4048.81
-3214.95
-2456.51
-1782.79
-1224.58
-821.559
-599.846
-549.646
-622.609
-746.555
-844.333
-866.453
-818.171
-734.515
-639.676
-542.891
-446.916
-350.855
-255.661
-165.873
-87.9943
-25.8086
20.9165
54.9502
78.4211
92.8489
99.667
100.4
96.589
89.6422
80.7404
70.8049
60.5165
50.3558
40.6464
31.5946
23.3213
15.8871
9.309
3.57251
-1.36107
-5.54931
-9.06391
-11.9857
-14.3984
-16.3821
-18.0074
-19.3311
-20.3951
-21.2288
-21.8531
-22.2848
-22.5413
-22.6423
-22.6107
-22.4711
-22.2481
-21.9644
-21.6396
-21.2897
-20.9279
-20.564
-20.2061
-19.8599
-19.5301
-19.2207
-18.9315
-18.6533
-18.3603
-18.0974
-17.9584
11462.3
11269.1
11025.7
10686.4
10239
9740.6
9220.81
8684.76
8121.98
7519.39
6871.46
6181.78
5460.14
4720.09
3980.28
3265.86
2602.46
1992.84
1423.9
937.571
626.119
503.825
490.058
513.94
544.71
564.657
564.282
545.076
513.31
474.816
434.425
394.567
355.633
318.041
282.197
248.576
217.582
189.436
164.15
141.568
121.451
103.537
87.5852
73.3905
60.7866
49.638
39.8288
31.253
23.807
17.3857
11.8819
7.18785
3.19887
-0.1827
-3.04382
-5.45827
-7.48585
-9.17338
-10.5573
-11.667
-12.5284
-13.1666
-13.6077
-13.8796
-14.0109
-14.0298
-13.9626
-13.8324
-13.6586
-13.4566
-13.2384
-13.0129
-12.7864
-12.5637
-12.3489
-12.1422
-11.9335
-11.6981
-11.4844
-11.3975
2770.61
2999.8
3304.44
3557.12
3765.06
3902.44
4005.45
4091.02
4159.9
4211.44
4248.05
4271.64
4281.89
4276.03
4249.11
4195.47
4109.38
3983.86
3812.17
3593.88
3342.43
3079.79
2819.07
2562.36
2305.44
2045.75
1785.14
1529.89
1289.92
1075.07
890.033
735.796
610.527
509.358
426.647
357.696
299.313
249.518
206.983
170.711
139.899
113.867
92.0137
73.7975
58.7204
46.3257
36.1984
27.9669
21.3034
15.9231
11.5822
8.07487
5.23049
2.91067
1.00611
-0.566789
-1.86982
-2.94732
-3.8307
-4.54288
-5.10199
-5.52432
-5.82601
-6.02384
-6.13513
-6.17707
-6.16589
-6.11607
-6.03979
-5.94679
-5.84448
-5.7381
-5.63112
-5.52614
-5.42528
-5.32734
-5.22424
-5.09193
-4.96902
-4.96543
1554.8
1498.7
1436.88
1357.97
1249.37
1116.39
976.012
845.696
729.574
621.441
512.803
396.9
267.662
121.011
-42.3703
-216.297
-391.506
-557.098
-700.025
-808.402
-873.755
-891.072
-859.996
-782.711
-664.104
-518.702
-368.87
-235.185
-128.339
-49.4855
4.83552
39.1799
58.0649
65.2315
64.017
57.3211
47.8526
37.66
28.0353
19.6438
12.7209
7.24745
3.07407
0.00300246
-2.16397
-3.60281
-4.46076
-4.85865
-4.89655
-4.65964
-4.2227
-3.65259
-3.00878
-2.34248
-1.69501
-1.0965
-0.565564
-0.110233
0.269941
0.58128
0.833277
1.03622
1.19947
1.3305
1.43468
1.5155
1.57524
1.61556
1.63797
1.64417
1.63613
1.61613
1.58671
1.5505
1.50915
1.46486
1.42763
1.41856
1.41064
1.30192
-5186.34
-5161.54
-5192.45
-5273.99
-5323.31
-5298.12
-5185.55
-5001.85
-4767.07
-4493.14
-4189.05
-3864.87
-3532.36
-3204.31
-2894.6
-2616.56
-2378.33
-2180.62
-2017.88
-1880.52
-1759.71
-1650.06
-1549.21
-1455.59
-1366.61
-1278.74
-1189.06
-1096.15
-999.937
-901.457
-802.767
-706.471
-615.346
-531.276
-455.301
-387.686
-328.449
-277.277
-233.571
-196.566
-165.423
-139.297
-117.389
-98.9782
-83.4349
-70.2251
-58.9052
-49.1154
-40.5708
-33.0524
-26.3977
-20.4908
-15.2534
-10.6355
-6.60443
-3.13433
-0.197456
2.24082
4.22315
5.79877
7.02064
7.94215
8.61387
9.08128
9.38355
9.55369
9.61912
9.60251
9.52262
9.39484
9.23187
9.04418
8.84069
8.628
8.41134
8.1957
7.99017
7.81259
7.64778
7.40833
-10230.5
-9664.54
-8946.04
-8224.68
-7467.69
-6786.68
-6196.65
-5685.46
-5229.8
-4809.67
-4413.18
-4032.38
-3657.87
-3282.31
-2911.55
-2568.28
-2279.35
-2059.87
-1905.6
-1799.8
-1722.92
-1658.29
-1594.32
-1525
-1448.74
-1365.45
-1274.13
-1173.46
-1063.66
-948.865
-835.212
-728.249
-630.49
-542.639
-464.939
-397.303
-339.245
-290.002
-248.567
-213.82
-184.645
-160.003
-138.981
-120.815
-104.892
-90.7276
-77.9558
-66.3054
-55.5804
-45.6417
-36.3966
-27.7989
-19.8508
-12.5983
-6.11291
-0.458663
4.33255
8.27098
11.4055
13.8143
15.5938
16.8478
17.677
18.1704
18.4027
18.4338
18.3121
18.0786
17.7651
17.3965
16.9921
16.5669
16.1323
15.6974
15.2684
14.8506
14.4519
14.0859
13.7478
13.3681
8094.02
7994.05
7895.81
7758.64
7531.34
7167.53
6665.14
6048.11
5344.64
4576.79
3767.64
2945.96
2146.59
1412.21
786.808
297.88
-52.9511
-280.977
-407.922
-455.38
-444.11
-393.431
-319.776
-237.116
-157.076
-88.5135
-35.2015
5.39628
36.2167
58.6363
70.3948
69.9996
58.8036
40.2274
17.5449
-6.95314
-31.557
-54.7456
-75.204
-91.9606
-104.447
-112.467
-116.124
-115.743
-111.789
-104.803
-95.3704
-84.0882
-71.5542
-58.3575
-45.072
-32.2345
-20.3044
-9.61377
-0.332024
7.51199
13.9744
19.1279
23.0452
25.8275
27.6312
28.6539
29.0969
29.1299
28.88
28.3999
27.756
27.0464
26.3059
25.5553
24.8087
24.0753
23.3605
22.6681
22.0008
21.3612
20.7544
20.1881
19.6662
19.1363
4524.48
4654.95
4884.62
5168.33
5473.88
5777.91
6109.9
6476.83
6843.99
7154.23
7353.61
7407.4
7307.93
7071.04
6726.37
6306.79
5841.03
5350.29
4850.43
4353.66
3870.24
3409.33
2979.21
2585.52
2230.16
1911.23
1623.7
1361.9
1125.11
916.278
736.482
581.36
445.088
325.433
222.64
137.465
69.3392
16.8463
-21.6282
-47.7953
-63.5194
-70.8389
-71.8908
-68.7475
-63.1456
-56.3262
-49.1437
-42.0062
-34.842
-27.2883
-19.1994
-10.479
-1.06192
8.45356
17.4978
25.5742
32.2898
37.3522
40.6376
42.2738
42.6198
42.115
41.1423
39.9627
38.7195
37.5178
36.3847
35.2821
34.2119
33.176
32.1724
31.1991
30.2553
29.3417
28.4598
27.612
26.8025
26.0338
25.3174
24.6189
6966.25
6738.51
6488.35
6203.06
5779.15
5240.69
4574.57
3790.19
2940.96
2123.57
1438.59
933.83
588.682
351.112
183.347
71.4606
8.77246
-14.685
-10.9719
10.1297
42.2131
81.4301
125.765
173.754
223.505
272.69
318.179
355.947
382.169
394.564
393.137
379.404
355.411
323.579
286.993
248.012
208.358
169.253
131.632
96.1606
63.5141
34.2926
8.90023
-12.5535
-30.3249
-44.8208
-56.0419
-63.4586
-66.4018
-64.4962
-57.699
-47.378
-34.9626
-21.3989
-7.77043
5.0353
16.455
26.1322
33.8182
39.4454
43.1583
45.2807
46.205
46.2926
45.8254
45.0087
43.983
42.837
41.6356
40.4143
39.1984
38.0034
36.8372
35.7046
34.6085
33.5516
32.5372
31.5622
30.6453
29.7703
-5820.78
-5679.98
-5523.43
-5371.74
-5218.41
-5061.89
-4879.23
-4662.89
-4436.6
-4239.89
-4094.24
-3987.77
-3889.03
-3767.56
-3604.44
-3393.48
-3138.9
-2850.14
-2539.72
-2223.87
-1918.65
-1635.64
-1380.86
-1156.35
-961.358
-792.642
-645.725
-517.349
-407.034
-315.803
-243.538
-188.08
-146.232
-114.862
-91.3267
-73.4853
-59.6066
-48.4509
-39.288
-31.7824
-25.8417
-21.4907
-18.7668
-17.6678
-18.1101
-19.7998
-22.127
-24.2335
-25.2082
-24.4868
-21.9234
-16.8625
-9.50905
-0.779763
8.58162
17.929
26.7471
34.591
41.0713
45.9435
49.1964
51.0458
51.8273
51.8727
51.443
50.7139
49.7956
48.7545
47.6303
46.449
45.2292
43.9864
42.7343
41.4841
40.2455
39.0275
37.838
36.6734
35.5637
34.5147
-9945.31
-9508.91
-8972.35
-8394.66
-7742.75
-7044.26
-6265.47
-5401.43
-4494.76
-3611.88
-2808.72
-2114.82
-1538.09
-1076.07
-723.808
-476.204
-324.128
-251.516
-237.934
-262.731
-310.017
-368.384
-428.199
-479.425
-510.686
-510.397
-471.003
-395.47
-300.334
-206.42
-130.42
-77.2587
-44.1992
-26.2897
-18.6636
-16.9833
-17.7511
-18.5783
-18.1669
-16.072
-12.403
-7.56225
-2.08833
3.46524
8.68578
13.4258
17.7464
21.7902
25.7192
29.6969
33.7186
37.541
41.0672
44.5323
47.909
51.0282
53.8475
56.2778
58.2128
59.5839
60.3852
60.6603
60.4879
59.9574
59.1524
58.1422
56.9806
55.7085
54.357
52.9497
51.5051
50.0383
48.5621
47.0874
45.6239
44.1812
42.7675
41.3739
40.0382
38.7929
8932.46
8708
8377.52
7894.45
7227.36
6482.51
5731.29
5013.15
4336.73
3691.75
3064.79
2447.05
1837.36
1245.47
698.737
241.417
-86.9452
-276.532
-350.484
-343.432
-283.89
-196.74
-110.272
-51.3612
-32.4299
-47.2415
-80.238
-117.01
-147.657
-166.664
-172.735
-167.71
-154.705
-136.705
-116.053
-94.4699
-73.1994
-53.1298
-34.8682
-18.7761
-4.99269
6.54087
16.0399
23.8211
30.2417
35.6424
40.3089
44.4555
48.2266
51.7106
54.9508
57.9513
60.6975
63.1671
65.3282
67.2254
68.7443
69.8228
70.4422
70.6171
70.4727
69.9747
69.1786
68.1419
66.916
65.5458
64.0661
62.5039
60.8799
59.2104
57.5087
55.7864
54.0537
52.32
50.5947
48.8879
47.208
45.5426
43.9391
42.463
-2088.65
-2048.19
-1983.58
-1886.48
-1772.92
-1663.53
-1575.99
-1517.12
-1485.71
-1476.71
-1486.72
-1517.69
-1570.21
-1631.89
-1668.01
-1635.25
-1522.25
-1355.73
-1167.43
-975.498
-786.43
-601.059
-425.607
-275.703
-167.329
-103.918
-76.9828
-70.9096
-73.7782
-78.7387
-82.1699
-82.2419
-78.4105
-71.1014
-61.2602
-49.881
-37.6856
-25.0545
-12.171
0.783252
13.5272
25.7003
36.9371
46.9453
55.5502
62.6991
68.4422
72.9048
76.2594
78.7037
80.4412
81.6632
82.5301
83.1548
83.5947
83.8565
83.9092
83.7123
83.2423
82.4918
81.3872
80.047
78.5422
76.8835
75.1083
73.2465
71.3217
69.3514
67.3493
65.3254
63.2874
61.2414
59.1926
57.1463
55.1079
53.0842
51.0809
49.08
47.131
45.3161
-3118.36
-3050.67
-2948.21
-2787.79
-2569.75
-2308.44
-2020.61
-1719.72
-1418.23
-1134.16
-893.138
-720.871
-623.681
-565.162
-485.04
-362.507
-232.227
-134.615
-80.2929
-64.2953
-82.2787
-129.272
-197.095
-274.57
-350.593
-418.882
-476.062
-515.764
-529.856
-513.997
-469.497
-402.453
-322.332
-239.324
-161.344
-93.0898
-36.4922
8.4068
42.6491
67.8207
85.6771
97.8839
105.869
110.771
113.458
114.569
114.572
113.801
112.5
110.848
108.984
107.018
105.039
103.112
101.271
99.5193
97.8305
96.1603
94.46
92.6852
90.8076
88.8598
86.7875
84.6335
82.4164
80.155
77.8624
75.5485
73.2197
70.8803
68.5333
66.1809
63.8246
61.4657
59.1052
56.7449
54.3861
52.0098
49.6628
47.4056
6106.01
5963.25
5778.53
5553.35
5254.14
4909.32
4532.1
4134.83
3726.42
3304.74
2857.8
2386.47
1925.28
1524.46
1211.27
976.895
795.178
645.415
516.888
404.388
305.532
218.843
144.648
85.4775
45.6449
28.6662
35.2839
62.5083
103.645
151.069
196.518
232.857
255.632
264.014
260.286
248.158
232.126
216.11
201.765
189.57
179.397
170.861
163.535
157.045
151.108
145.533
140.216
135.124
130.277
125.722
121.519
117.717
114.352
111.425
108.905
106.733
104.797
102.984
101.19
99.3364
97.378
95.2647
93.037
90.7134
88.3155
85.862
83.3652
80.8345
78.2782
75.7021
73.1102
70.5044
67.8845
65.2488
62.593
59.9107
57.1942
54.4226
51.6329
48.795
4786.14
4570.79
4231.25
3790.68
3302.43
2866.74
2495.78
2164.43
1855.8
1570.21
1307.95
1062.45
829.116
611.561
417.611
252.527
116.854
9.53556
-66.8609
-104.175
-97.9924
-57.4282
-4.14021
38.8259
58.852
60.1272
58.8999
69.7639
99.0037
144.317
197.745
248.17
285.589
305.071
307.795
299.274
284.817
267.587
249.871
232.894
217.164
202.8
189.748
177.895
167.126
157.356
148.538
140.655
133.71
127.705
122.619
118.404
114.968
112.195
109.943
108.06
106.422
104.907
103.413
101.862
100.201
98.4017
96.4551
94.3668
92.1495
89.8182
87.3874
84.8721
82.2866
79.6441
76.956
74.2309
71.4741
68.6862
65.8615
62.9858
60.0369
56.9753
53.7941
50.2422
-39.4922
-38.1737
-36.2776
-33.3981
-29.9912
-26.1527
-22.3087
-18.7773
-15.7874
-13.4477
-11.7409
-10.55
-9.73017
-9.15529
-8.73809
-8.42934
-8.20309
-8.04359
-7.9388
-7.87767
-7.84888
-7.83998
-7.83703
-7.82495
-7.7888
-7.71529
-7.5941
-7.41887
-7.18743
-6.90164
-6.56727
-6.19539
-5.80753
-5.40957
-5.01371
-4.63408
-4.28308
-3.96978
-3.69999
-3.47632
-3.29842
-3.16328
-3.06584
-2.99979
-2.9582
-2.93401
-2.92064
-2.91229
-2.90421
-2.8927
-2.8751
-2.84974
-2.81583
-2.77329
-2.72252
-2.66436
-2.59999
-2.53072
-2.45793
-2.38293
-2.30697
-2.23112
-2.1562
-2.08277
-2.01123
-1.94181
-1.87461
-1.80965
-1.74693
-1.68646
-1.6282
-1.57197
-1.51741
-1.464
-1.41115
-1.35832
-1.30516
-1.25162
-1.19795
-1.14464
-1.09234
-1.04177
-0.993683
-0.948871
-0.908129
-0.872289
-0.842228
-0.818881
-0.803209
-0.796156
-0.798612
-0.811397
-0.835226
-0.870648
-0.917934
-0.97706
-1.04736
-1.12749
-1.21551
-1.30868
-1.40231
-1.49237
-1.57412
-1.64229
-1.69188
-1.71865
-1.71973
-1.69412
-1.64288
-1.56913
-1.47757
-1.3738
-1.26362
-1.15235
-1.04457
-0.943881
-0.853029
-0.773957
-0.707928
-0.655596
-0.617079
-0.592037
-0.579818
-0.579622
-0.590686
-0.612411
-0.644423
-0.686554
-0.738746
-0.800923
-0.872857
-0.954097
-1.04397
-1.14169
-1.2465
-1.3578
-1.47524
-1.59874
-1.72833
-1.86409
-2.00596
-2.15362
-2.30639
-2.46322
-2.62268
-2.78301
-2.94221
-3.09803
-3.24814
-3.39012
-3.52159
-3.64025
-3.74397
-3.83084
-3.89925
-3.94793
-3.97587
-3.98265
-3.96813
-3.93259
-3.8767
-3.80144
-3.70814
-3.59833
-3.47381
-3.3365
-3.18846
-3.03174
-2.8684
-2.70042
-2.52969
-2.35795
-2.18684
-2.01779
-1.85208
-1.69079
-1.53478
-1.38477
-1.24128
-1.1047
-0.975319
-0.853336
-0.738875
-0.631962
-0.532599
-0.440669
-0.356166
-0.278872
-0.208957
-0.145992
-0.0906089
-0.0417379
-0.00125239
0.033684
0.0578985
0.079184
0.0837002
0.092772
0.0687307
0.0663382
-35.539
-34.422
-32.699
-30.1328
-27.1971
-23.5
-19.8145
-16.413
-13.5613
-11.3811
-9.8487
-8.83442
-8.19207
-7.79521
-7.55677
-7.42549
-7.37186
-7.37728
-7.42802
-7.51207
-7.61714
-7.72947
-7.83358
-7.91324
-7.9531
-7.9402
-7.86507
-7.72222
-7.50999
-7.22985
-6.88529
-6.484
-6.07889
-5.64962
-5.21481
-4.79274
-4.39803
-4.04183
-3.73148
-3.47059
-3.25921
-3.09436
-2.97086
-2.88211
-2.82086
-2.77976
-2.75197
-2.73157
-2.71365
-2.69437
-2.67092
-2.64154
-2.60527
-2.56183
-2.51145
-2.4548
-2.3929
-2.32688
-2.25797
-2.18737
-2.11627
-2.04564
-1.97625
-1.90866
-1.84324
-1.7802
-1.71961
-1.66141
-1.60556
-1.55199
-1.5006
-1.45117
-1.40337
-1.35677
-1.3109
-1.26534
-1.21982
-1.17432
-1.12907
-1.08452
-1.04122
-0.99982
-0.960981
-0.925399
-0.893783
-0.866875
-0.845477
-0.830459
-0.822725
-0.823182
-0.832702
-0.852116
-0.882186
-0.923557
-0.976673
-1.04169
-1.11821
-1.20488
-1.29994
-1.4011
-1.50293