/*--------------------------------*- C++ -*----------------------------------*\
| =========                 |                                                 |
| \\      /  F ield         | OpenFOAM: The Open Source CFD Toolbox           |
|  \\    /   O peration     | Version:  2012                                  |
|   \\  /    A nd           | Website:  www.openfoam.com                      |
|    \\/     M anipulation  |                                                 |
\*---------------------------------------------------------------------------*/
FoamFile
{
    version     2.0;
    format      ascii;
    class       volScalarField;
    location    "0.35";
    object      p;
}
// * * * * * * * * * * * * * * * * * * * * * * * * * * * * * * * * * * * * * //

dimensions      [0 2 -2 0 0 0 0];


internalField   nonuniform List<scalar> 
42400
(
-6605.26
-6407.47
-6152.04
-5835.63
-5463.74
-5056.2
-4631.7
-4214.62
-3822.84
-3455.12
-3096.84
-2735.93
-2371.72
-2011.12
-1661.43
-1327.16
-1010.19
-711.622
-437.866
-201.324
-14.3568
118.155
200.514
242.987
257.876
256.147
246.11
233.532
221.145
209.177
196.982
183.502
168.163
151.713
135.8
122.045
110.222
100.132
90.563
79.9989
67.3998
52.7307
37.4847
24.8405
15.1674
7.61109
1.4933
-3.88459
-9.04061
-14.1724
-19.2871
-24.2974
-29.0939
-33.5778
-37.6747
-41.3356
-44.5343
-47.2637
-49.5315
-51.3572
-52.7679
-53.7964
-54.4785
-54.8518
-54.9549
-54.8262
-54.5044
-54.025
-53.4225
-52.7296
-51.9768
-51.1821
-50.3779
-49.5839
-48.8169
-48.0904
-47.4153
-46.803
-46.2856
-45.8955
12695.2
12410.2
12031.6
11481.2
10687.1
9683.71
8504.63
7213.82
5917.51
4737.24
3749.71
2959.98
2336.09
1850.52
1482.53
1208.27
1003.94
852.584
744.494
672.643
629.182
604.963
590.047
575.217
554.97
526.156
488.666
444.69
397.449
350.284
306.136
267.165
233.486
204.654
180.126
159.253
141.412
125.972
112.261
99.6451
87.7162
76.49
66.2743
56.8143
48.1554
40.2746
32.4872
24.404
15.9985
7.47571
-0.867492
-8.75856
-16.0056
-22.4965
-28.1882
-33.0902
-37.2429
-40.7021
-43.5301
-45.7906
-47.5458
-48.8547
-49.7725
-50.3511
-50.6387
-50.6806
-50.5189
-50.1932
-49.7402
-49.1934
-48.5838
-47.9481
-47.303
-46.6703
-46.0688
-45.5138
-45.0176
-44.5892
-44.2454
-44.0674
809.189
1209.26
1795.29
2488.66
3254.01
3956.14
4547.68
5009.47
5333.08
5521.38
5585.95
5538.23
5382.15
5122.3
4768.07
4340.15
3868.83
3387.08
2923.35
2496.64
2114.51
1773.21
1461.4
1165.99
876.867
594.22
329.416
101.495
-72.025
-184.844
-243.833
-263.986
-258.36
-238.307
-211.296
-181.949
-153.043
-126.182
-102.254
-81.7226
-64.7997
-51.4984
-41.6102
-34.7225
-30.2753
-27.5294
-26.0661
-25.7861
-26.4246
-27.8309
-29.7361
-31.9348
-34.2754
-36.6371
-38.9239
-41.0603
-42.9918
-44.6818
-46.1093
-47.266
-48.1539
-48.7834
-49.1708
-49.3373
-49.3071
-49.1068
-48.7642
-48.3075
-47.7647
-47.1628
-46.5276
-45.8834
-45.2512
-44.6497
-44.0949
-43.5997
-43.1738
-42.8236
-42.5519
-42.4245
-3256.53
-3459.99
-3759.15
-4132.2
-4582.16
-5041.57
-5436.79
-5705.17
-5834.53
-5847.58
-5753.72
-5539.5
-5196.86
-4743.81
-4223.99
-3687.68
-3174.13
-2701.16
-2270.29
-1880.76
-1535.94
-1241.35
-999.07
-806.827
-659.382
-549.997
-470.291
-411.139
-364.663
-325.42
-290.763
-259.938
-232.718
-208.591
-187.007
-167.419
-149.382
-132.686
-117.317
-103.357
-90.9232
-80.1142
-70.981
-63.5117
-57.6303
-53.197
-50.0216
-47.9228
-46.8038
-46.428
-46.5632
-47.0536
-47.7605
-48.567
-49.381
-50.1348
-50.7813
-51.2902
-51.6445
-51.8368
-51.8671
-51.7412
-51.4694
-51.0653
-50.5456
-49.9289
-49.2354
-48.4858
-47.7014
-46.9026
-46.1094
-45.3398
-44.6101
-43.9342
-43.3238
-42.7879
-42.333
-41.9623
-41.6766
-41.5065
-12722.2
-12244.6
-11615.6
-10871.7
-9951.32
-8989.32
-8063.87
-7220.28
-6473.63
-5837.08
-5331.19
-4966.88
-4732.7
-4590.41
-4480.78
-4351.74
-4181.08
-3969.71
-3726.57
-3462.96
-3190.44
-2916.84
-2645.91
-2379.08
-2115.91
-1855.95
-1600.13
-1351.54
-1115.3
-897.617
-704.413
-540.004
-406.246
-302.375
-225.113
-169.988
-132.163
-107.081
-90.935
-80.7938
-74.5558
-70.7974
-68.5853
-67.3158
-66.6052
-66.216
-66.0037
-65.8824
-65.7668
-65.5318
-65.2467
-64.8951
-64.4625
-63.9441
-63.3412
-62.6597
-61.9077
-61.0928
-60.2214
-59.298
-58.3254
-57.3064
-56.245
-55.147
-54.0207
-52.8768
-51.7279
-50.5878
-49.4709
-48.391
-47.3618
-46.3951
-45.5012
-44.6882
-43.9621
-43.3269
-42.7845
-42.335
-41.9764
-41.72
7314.89
7205.78
7076.55
6910.63
6709.3
6444.12
6089.17
5648.14
5166.01
4699.21
4283.11
3925.45
3617.66
3345.92
3098.1
2866.71
2648.29
2442.37
2250.45
2073.75
1912.58
1765.56
1630.14
1502.89
1379.09
1254.5
1125.87
992.413
856.956
724.448
598.662
481.538
375.2
282.554
205.457
143.656
95.1817
57.3171
27.4358
3.46225
-16.0724
-32.1416
-45.3841
-56.2269
-64.9629
-71.8044
-76.9342
-80.5386
-82.8321
-84.019
-84.237
-83.6618
-82.4674
-80.8185
-78.8656
-76.7392
-74.5435
-72.3538
-70.2162
-68.1518
-66.1642
-64.2472
-62.3919
-60.5918
-58.8445
-57.1524
-55.5214
-53.9601
-52.4775
-51.0829
-49.7843
-48.5882
-47.499
-46.5192
-45.649
-44.8869
-44.2299
-43.6735
-43.211
-42.8496
9125.52
8957.05
8724.6
8389.54
7943.02
7439.94
6915
6390.75
5881.06
5392.37
4925.75
4480.25
4054.62
3648.03
3261.88
2899.67
2564.29
2255.91
1971.11
1705.12
1453.45
1215.59
991.32
780.192
582.033
396.874
225.73
77.1598
-31.0172
-88.8448
-109.211
-115.688
-122.522
-130.681
-136.887
-139.598
-139.438
-137.768
-135.807
-134.279
-133.414
-133.119
-133.156
-133.235
-133.08
-132.425
-131.053
-129.307
-126.942
-123.786
-119.9
-115.392
-110.424
-105.192
-99.9054
-94.7633
-89.9232
-85.485
-81.4836
-77.8987
-74.6739
-71.74
-69.0329
-66.504
-64.1228
-61.8743
-59.7545
-57.7653
-55.9107
-54.195
-52.6211
-51.1897
-49.8994
-48.7465
-47.7255
-46.8291
-46.0492
-45.3767
-44.8019
-44.3291
-10397.6
-10111
-9725.8
-9241.52
-8619.14
-7940.2
-7274.84
-6674.97
-6148.52
-5681.68
-5268.02
-4909.49
-4608.29
-4365.76
-4182.35
-4054.91
-3973.68
-3921.17
-3874.3
-3810.76
-3713.57
-3574.14
-3389.17
-3158.75
-2887.62
-2584.56
-2259.18
-1922.03
-1589.81
-1287.19
-1036.02
-842.793
-699.304
-592.555
-511.63
-448.949
-399.57
-360.218
-328.611
-303.063
-282.249
-265.084
-250.67
-238.279
-227.316
-217.211
-207.242
-196.915
-186.269
-175.369
-164.243
-153.02
-141.918
-131.201
-121.095
-111.925
-103.799
-96.7678
-90.7813
-85.7026
-81.3525
-77.5533
-74.1585
-71.0647
-68.2079
-65.5538
-63.0866
-60.8004
-58.6931
-56.7628
-55.0066
-53.4193
-51.9941
-50.722
-49.593
-48.5957
-47.7183
-46.9488
-46.2762
-45.6971
-4586.03
-4396.27
-4176.24
-3977.9
-3750.06
-3520.47
-3287.23
-3058.71
-2846.92
-2654.7
-2479.72
-2317.75
-2159.02
-1986.89
-1784.45
-1542.39
-1264.38
-967.787
-681.735
-440.114
-268.296
-171.986
-137.296
-139.645
-154.689
-165.796
-165.657
-154.079
-135.033
-114.074
-96.5015
-86.5594
-86.6233
-96.3528
-113.2
-133.847
-155.215
-175.024
-191.889
-205.129
-214.561
-220.285
-222.564
-221.635
-217.961
-212.021
-204.326
-194.984
-184.431
-173.118
-161.444
-149.791
-138.512
-127.903
-118.174
-109.443
-101.744
-95.0585
-89.3318
-84.4706
-80.345
-76.8042
-73.7007
-70.9128
-68.3536
-65.9707
-63.7377
-61.6452
-59.692
-57.8798
-56.2099
-54.6816
-53.2918
-52.0347
-50.9027
-49.8865
-48.9758
-48.16
-47.4285
-46.7731
8877.77
8729.19
8522.47
8214.76
7800.67
7316.33
6786.31
6223.04
5630.25
5011.2
4370.97
3714.38
3045.21
2369.42
1697.61
1041.3
413.763
-166.183
-668.317
-1057.77
-1314.57
-1448.22
-1491.95
-1482.13
-1443.01
-1386.1
-1316.64
-1238.11
-1153.74
-1066.63
-979.532
-894.719
-813.974
-738.542
-669.135
-605.983
-548.897
-497.473
-451.493
-410.384
-373.504
-340.14
-309.836
-282.346
-257.346
-234.526
-213.744
-194.851
-177.713
-162.232
-148.333
-135.969
-125.097
-115.651
-107.525
-100.564
-94.5904
-89.4315
-84.9467
-81.0306
-77.5998
-74.5755
-71.8783
-69.4339
-67.1828
-65.0851
-63.1192
-61.2754
-59.5507
-57.9442
-56.455
-55.0807
-53.8177
-52.6606
-51.6029
-50.637
-49.7549
-48.9483
-48.2082
-47.5286
-3698.39
-3682.19
-3637.5
-3525.32
-3335.83
-3074.26
-2758.08
-2403.38
-2018.76
-1611.93
-1197.48
-798.155
-439.274
-141.093
85.1304
237.518
319.742
340.842
315.999
264.538
205.384
149.135
99.0917
52.9456
8.39266
-34.7438
-75.258
-111.885
-143.891
-171.02
-193.294
-210.907
-224.141
-233.272
-238.582
-240.436
-239.238
-235.337
-228.912
-220.505
-210.745
-200.153
-188.943
-177.289
-165.339
-153.233
-141.097
-129.113
-117.509
-106.599
-96.7138
-88.1613
-81.1731
-75.8062
-71.9245
-69.2554
-67.4732
-66.2706
-65.4004
-64.6893
-64.0299
-63.3622
-62.6539
-61.8875
-61.0556
-60.16
-59.2115
-58.2264
-57.2231
-56.2188
-55.2281
-54.2623
-53.3295
-52.4351
-51.5824
-50.773
-50.007
-49.2831
-48.5988
-47.9561
-495.942
-368.877
-193.658
-6.17281
200.899
381.173
530.306
663.371
803.073
968.079
1165.23
1388.04
1618.82
1834.96
2016.96
2151.51
2230.65
2249.76
2209.8
2120.46
1998.85
1862.46
1720.88
1576.52
1429.89
1283.21
1139.59
1002.06
872.724
752.828
642.949
543.242
453.641
373.931
303.771
242.668
189.986
145.02
106.826
74.7111
48.0252
26.0943
8.25297
-6.14381
-17.6969
-26.931
-34.255
-39.9374
-44.1917
-47.2146
-49.3517
-50.7531
-51.7197
-52.5056
-53.2444
-53.9608
-54.6121
-55.1451
-55.5363
-55.7984
-55.9643
-56.0644
-56.113
-56.106
-56.0292
-55.8684
-55.6162
-55.2738
-54.8492
-54.3544
-53.8028
-53.2079
-52.5827
-51.9391
-51.2875
-50.637
-49.9946
-49.3653
-48.7527
-48.1643
4607.08
4540.83
4410.32
4179.08
3858.09
3485.41
3105.29
2754.85
2458.9
2227.74
2056.46
1925.57
1803.2
1652.77
1445.66
1175.54
858.057
522.231
208.772
-32.9462
-170.408
-214.037
-204.219
-176.144
-144.923
-114.449
-85.8154
-60.759
-40.237
-24.817
-14.5422
-9.05527
-7.63587
-9.27469
-12.8623
-17.3739
-22.0284
-26.3514
-29.8314
-32.4109
-34.1751
-35.3221
-36.0924
-36.7056
-37.3249
-38.0463
-38.8979
-39.8573
-40.8988
-41.9986
-43.0252
-44.0989
-45.2204
-46.3682
-47.503
-48.5684
-49.5113
-50.3049
-50.9601
-51.5167
-52.0247
-52.5031
-52.9551
-53.3559
-53.6719
-53.8749
-53.9495
-53.8945
-53.7189
-53.4384
-53.0708
-52.6342
-52.1453
-51.6191
-51.0685
-50.5045
-49.9358
-49.3686
-48.8078
-48.2616
-2800.23
-2429.95
-1969.86
-1600.58
-1323.14
-1193.02
-1155.85
-1165.25
-1197.87
-1240.45
-1282.45
-1316.38
-1336.91
-1340.87
-1326.33
-1294.38
-1247.13
-1183.53
-1097.62
-984.969
-853.922
-724.514
-613.427
-524.044
-451.18
-390.091
-338.04
-293.365
-255.191
-222.737
-195.252
-172.1
-152.715
-136.557
-123.155
-112.09
-102.984
-95.4883
-89.2867
-84.1095
-79.7405
-76.0196
-72.8333
-70.0922
-67.7073
-65.5889
-63.6672
-61.905
-60.2919
-58.8326
-57.5365
-56.4186
-55.4888
-54.7488
-54.1906
-53.7978
-53.5481
-53.4179
-53.3841
-53.4242
-53.5149
-53.6301
-53.7423
-53.8259
-53.8596
-53.8299
-53.7304
-53.5614
-53.3271
-53.0334
-52.6869
-52.294
-51.8614
-51.3962
-50.9059
-50.3981
-49.8797
-49.3562
-48.8331
-48.3173
-1769.87
-1745.9
-1707
-1666.52
-1602.62
-1537.62
-1460.79
-1361.12
-1238.06
-1098.86
-953.006
-808.901
-673.814
-554.116
-454.309
-376.193
-318.839
-279.043
-252.29
-234.245
-221.948
-213.554
-207.319
-201.613
-195.862
-190.398
-187.4
-187.94
-191.678
-197.449
-203.641
-208.68
-211.365
-211.039
-207.616
-201.512
-193.437
-184.153
-174.284
-164.253
-154.311
-144.609
-135.252
-126.32
-117.872
-109.948
-102.571
-95.7574
-89.5222
-83.8804
-78.8438
-74.4146
-70.5816
-67.319
-64.5876
-62.3388
-60.5184
-59.0701
-57.9377
-57.0662
-56.4026
-55.8962
-55.5001
-55.1728
-54.8797
-54.5949
-54.3008
-53.9869
-53.6474
-53.2797
-52.8825
-52.4558
-52.0009
-51.5211
-51.0214
-50.5076
-49.9856
-49.46
-48.9357
-48.4181
614.38
629.026
658.221
701.231
750.42
797.372
835.052
858.677
864.524
849.064
810.232
748.872
668.97
575.813
474.105
367.24
257.6
146.987
37.0143
-70.6744
-174.329
-272.051
-361.619
-440.587
-506.769
-558.171
-593.008
-612.199
-615.961
-605.438
-582.538
-549.657
-509.532
-465.106
-419.288
-374.645
-333.113
-295.821
-263.129
-234.878
-210.668
-190.027
-172.476
-157.539
-144.75
-133.671
-123.925
-115.217
-107.345
-100.192
-93.705
-87.8636
-82.6589
-78.0782
-74.0988
-70.6869
-67.7987
-65.3819
-63.3793
-61.7277
-60.3659
-59.2348
-58.2806
-57.4571
-56.7276
-56.0653
-55.4518
-54.8752
-54.327
-53.7994
-53.2843
-52.7739
-52.2613
-51.7425
-51.2161
-50.6834
-50.1466
-49.6085
-49.0724
-48.543
2897.18
2709.87
2461.67
2140.97
1740.44
1293.67
829.724
376.651
-45.6478
-427.748
-768.16
-1069.98
-1338.24
-1577.53
-1790.28
-1976.27
-2133.28
-2258.37
-2348.72
-2402.05
-2416.74
-2392.17
-2329.16
-2229.97
-2098.07
-1938.74
-1758.7
-1564.97
-1365.18
-1167.11
-977.965
-803.851
-649.284
-516.924
-407.486
-320.588
-254.73
-207.266
-174.814
-153.645
-140.328
-132.204
-127.229
-124.203
-122.28
-120.727
-118.893
-116.299
-112.718
-108.196
-102.989
-97.4506
-91.9249
-86.6771
-81.8768
-77.6094
-73.8974
-70.7203
-68.0294
-65.761
-63.8466
-62.22
-60.8224
-59.6047
-58.5281
-57.5643
-56.6936
-55.9017
-55.1769
-54.5072
-53.8797
-53.281
-52.6991
-52.125
-51.5532
-50.9816
-50.4103
-49.8405
-49.2744
-48.7167
-12273.4
-11573
-10649.1
-9631.57
-8499.32
-7379.27
-6302.73
-5294.81
-4378.45
-3568.85
-2869.51
-2272.11
-1760.83
-1319.64
-937.946
-611.442
-339.639
-122.113
44.4186
166.546
252.714
311.381
349.572
372.672
384.212
386.045
378.836
362.69
337.062
301.927
258.397
208.939
156.865
105.758
58.7876
18.0864
-15.4984
-42.4157
-63.7758
-80.8985
-94.9602
-106.943
-117.828
-127.862
-136.602
-143.056
-146.217
-145.41
-140.709
-132.96
-123.475
-113.572
-104.223
-95.9393
-88.8593
-82.9161
-77.9722
-73.8834
-70.5141
-67.7392
-65.4459
-63.5357
-61.926
-60.5567
-59.3634
-58.3133
-57.3777
-56.5347
-55.7668
-55.0581
-54.3933
-53.7578
-53.1395
-52.5293
-51.9218
-51.3147
-50.708
-50.1028
-49.5015
-48.9094
9555.25
9422.65
9249.16
8988.61
8614.14
8155.27
7634.69
7071.34
6482.16
5881.79
5285.74
4711.72
4180
3710.32
3315.21
2994.29
2735.33
2520.96
2335.58
2168.5
2013.54
1867.15
1726.92
1591.55
1459.99
1332.14
1208.32
1089.03
974.631
865.552
761.81
663.43
570.283
482.301
399.248
321.396
249.022
182.201
121.203
66.0509
17.3354
-24.5563
-59.5752
-87.7861
-109.276
-124.158
-132.42
-134.276
-130.897
-123.874
-115.026
-105.911
-97.4557
-89.9624
-83.4274
-77.8044
-73.0879
-69.2759
-66.3167
-64.0932
-62.4492
-61.2253
-60.2846
-59.5125
-58.8312
-58.1925
-57.5682
-56.9448
-56.3172
-55.6842
-55.0454
-54.4001
-53.7482
-53.0899
-52.4266
-51.7607
-51.0949
-50.4325
-49.7762
-49.1323
8534.19
8421.71
8300.86
8139.95
7916.21
7640.47
7325.76
6981.25
6611.15
6215.33
5790.92
5334.23
4843.63
4323.77
3787.03
3250.79
2732.32
2244.5
1795.16
1389.23
1030.31
720.959
462.433
252.685
88.0403
-37.3795
-130.267
-196.967
-243.056
-273.338
-291.853
-301.843
-305.626
-304.56
-299.305
-290.419
-278.551
-264.272
-248.423
-231.709
-215.465
-200.699
-187.848
-176.782
-166.8
-156.702
-145.05
-130.873
-113.842
-95.0551
-76.4505
-60.0647
-47.3941
-38.7615
-34.1549
-33.1601
-34.9402
-38.4339
-42.6497
-46.8402
-50.5352
-53.5066
-55.7015
-57.1726
-58.0256
-58.3824
-58.3606
-58.0628
-57.5721
-56.9526
-56.2512
-55.5006
-54.7235
-53.9347
-53.1447
-52.3606
-51.5875
-50.8289
-50.0871
-49.3675
6708.74
6722.46
6766.78
6819
6872.32
6921.5
6960.8
6976.66
6952.38
6875.31
6741.47
6553.62
6318.64
6044.79
5740.75
5414.74
5074.11
4725.61
4371.76
4015.26
3657.39
3299.43
2943.6
2594.55
2259.28
1944.05
1650.98
1379.18
1127.41
894.657
680.717
487.419
318.491
177.503
64.6628
-22.9048
-89.1799
-136.413
-166.22
-180.462
-181.045
-170.348
-151.318
-127.153
-100.98
-75.5102
-52.8963
-34.6342
-21.424
-13.0588
-8.60649
-6.8323
-6.61806
-7.1404
-7.88113
-8.58163
-9.04771
-9.23783
-9.16518
-8.86357
-8.37687
-7.75027
-7.02548
-6.23847
-5.41889
-4.59065
-3.77273
-2.97998
-2.22384
-1.513
-0.853963
-0.251416
0.291456
0.77276
1.19167
1.54818
1.84312
2.07849
2.25402
2.3949
5385.39
5267.88
5085.39
4789.74
4357.33
3834.14
3264.54
2682.52
2105.07
1540.65
999.209
491.123
24.8116
-393.65
-760.858
-1075.25
-1336.54
-1545.69
-1705.21
-1818.78
-1890.51
-1924.14
-1922.69
-1889.23
-1828.1
-1745.11
-1646.63
-1538.36
-1424.32
-1307.1
-1190.11
-1078.39
-977.047
-888.85
-812.264
-743.375
-677.696
-612.997
-548.776
-485.074
-422.442
-362.259
-305.972
-254.726
-209.518
-170.81
-138.53
-112.272
-91.4118
-75.0445
-62.2781
-52.2793
-44.3811
-38.0913
-33.0507
-28.9892
-25.6924
-22.9886
-20.7395
-18.8363
-17.194
-15.7483
-14.4514
-13.2688
-12.1762
-11.157
-10.2007
-9.30103
-8.45453
-7.65981
-6.91667
-6.22561
-5.5874
-5.00284
-4.47251
-3.99668
-3.57484
-3.20461
-2.88863
-2.60528
-11683.7
-11366.6
-10957.5
-10470.4
-9853.13
-9157.73
-8413.77
-7648.63
-6874.49
-6094.53
-5320.37
-4576.18
-3891.76
-3291.95
-2785.93
-2364.46
-2009.35
-1708.28
-1460.93
-1272.85
-1145.96
-1073.95
-1044.87
-1046.06
-1066.55
-1096.27
-1125.36
-1144.29
-1144.35
-1119.95
-1071.99
-1004.9
-925.586
-841.212
-757.463
-677.614
-602.76
-532.948
-467.85
-406.942
-350.028
-297.499
-250.026
-208.261
-172.527
-142.711
-118.329
-98.6887
-83.0249
-70.5952
-60.7333
-52.8741
-46.5601
-41.4348
-37.2268
-33.7317
-30.7961
-28.3039
-26.1656
-24.3109
-22.6834
-21.2373
-19.9354
-18.7484
-17.6532
-16.6325
-15.6736
-14.7677
-13.9093
-13.0951
-12.3235
-11.5943
-10.9078
-10.2649
-9.66656
-9.11346
-8.60565
-8.14078
-7.72245
-7.33115
590.224
712.524
868.815
982.562
1071.79
1033.86
844.318
542.401
200.569
-128.624
-429.981
-704.763
-951.02
-1157.85
-1308.6
-1396.26
-1436.39
-1447.71
-1431.41
-1382.34
-1302.92
-1199.46
-1080.55
-960.417
-852.959
-762.446
-685.827
-619.92
-562.767
-512.335
-466.315
-425.071
-388.935
-357.534
-329.05
-301.844
-275.123
-248.835
-223.168
-198.402
-174.846
-152.827
-132.674
-114.663
-98.955
-85.5679
-74.391
-65.2182
-57.7878
-51.8125
-47.0036
-43.0912
-39.8399
-37.0641
-34.6358
-32.4817
-30.5698
-28.889
-27.4282
-26.1649
-25.0643
-24.0876
-23.1991
-22.3699
-21.5781
-20.8087
-20.0522
-19.3043
-18.564
-17.8332
-17.1154
-16.4149
-15.7359
-15.0824
-14.4579
-13.8653
-13.306
-12.7787
-12.2878
-11.815
5823.02
5772.82
5682.09
5514.46
5269.36
4947.26
4567.71
4163.4
3767.05
3394.28
3043.58
2712.42
2407.33
2145.2
1938.46
1755.66
1527.09
1230.67
929.335
693.788
541.535
452.8
406.8
392.885
402.164
422.889
437.212
427.691
392.451
342.394
286.017
229.584
176.679
128.737
86.26
49.8883
20.1559
-2.72666
-18.9554
-29.1634
-34.3494
-35.7287
-34.5586
-31.9812
-28.9129
-25.9979
-23.6165
-21.9304
-20.9513
-20.5868
-20.6825
-21.1058
-21.6871
-22.3095
-22.9125
-23.4803
-24.0162
-24.5196
-24.9708
-25.3353
-25.5783
-25.6793
-25.6335
-25.4486
-25.1389
-24.7223
-24.2178
-23.6448
-23.0217
-22.3651
-21.69
-21.0085
-20.3307
-19.6641
-19.0148
-18.387
-17.7831
-17.2024
-16.6489
-16.1055
10.9213
67.7768
145.336
238
356.561
498.264
666.774
860.775
1073.89
1298.55
1526.54
1748.12
1952.19
2128.56
2270.15
2370.84
2424.56
2424.43
2366.69
2259.05
2112.76
1939.3
1750.05
1551.62
1350.28
1153.98
965.014
773.812
573.46
375.363
204.3
77.4499
-10.0409
-72.2807
-117.289
-147.337
-163.208
-166.196
-158.409
-142.544
-121.602
-98.5483
-75.9939
-55.9538
-39.7028
-27.7817
-20.0709
-15.9811
-14.6846
-15.304
-17.0396
-19.1798
-21.2326
-22.8732
-23.9852
-24.6334
-25.0024
-25.3015
-25.6789
-26.1862
-26.7903
-27.4146
-27.9529
-28.3385
-28.5293
-28.5137
-28.3049
-27.9319
-27.4305
-26.8375
-26.1861
-25.5032
-24.8088
-24.1164
-23.4343
-22.7674
-22.1178
-21.4838
-20.8675
-20.2527
-1356.87
-1481.19
-1631.9
-1781.04
-1960.91
-2157.87
-2377.57
-2610.72
-2836.85
-3038.44
-3205.15
-3333.07
-3421.67
-3470.29
-3475.73
-3433.67
-3344.61
-3219.08
-3072.25
-2911.06
-2731.66
-2530.28
-2306.65
-2063.97
-1808.46
-1550.43
-1306.39
-1097.66
-934.993
-809.975
-699.98
-591.597
-487.109
-393.37
-314.872
-251.288
-199.679
-157.314
-122.295
-93.502
-70.2731
-51.9538
-37.7642
-27.1059
-19.7587
-15.6598
-14.5164
-15.6782
-18.2913
-21.3953
-24.2368
-26.4673
-28.0083
-28.961
-29.5362
-29.9681
-30.4305
-31.009
-31.7172
-32.5125
-33.3149
-34.0291
-34.5672
-34.869
-34.9094
-34.6963
-34.2627
-33.6567
-32.9312
-32.1349
-31.3055
-30.4676
-29.6354
-28.8172
-28.0188
-27.2445
-26.495
-25.7655
-25.0512
-24.3232
-5613.59
-5412.9
-5118.6
-4759.9
-4379.37
-4060.08
-3801.94
-3563.89
-3292.37
-2945.96
-2510.48
-2007.23
-1481.65
-981.465
-539.133
-169.136
128.137
358.256
526.105
633.889
682.7
677.407
629.232
551.017
454.432
350.427
247.85
154.772
77.4927
20.8547
-13.1224
-26.1687
-23.1296
-9.80872
7.977
25.3994
39.2647
47.6322
49.9457
46.3264
37.4097
24.6412
9.83685
-5.25092
-19.6324
-32.7783
-44.1564
-53.3256
-59.9987
-63.9836
-65.3634
-64.5826
-62.2229
-58.9395
-55.374
-52.0414
-49.259
-47.1451
-45.667
-44.7012
-44.0846
-43.6525
-43.2642
-42.8168
-42.2484
-41.5344
-40.6798
-39.7101
-38.6627
-37.5793
-36.4993
-35.4539
-34.4609
-33.5227
-32.6296
-31.7689
-30.9308
-30.1088
-29.3002
-28.4859
2282.01
2803.53
3489.48
4103.77
4657.5
5175.52
5747.72
6352.07
6911.48
7359.25
7647.19
7736.82
7598.74
7240.87
6712.52
6082.84
5416.96
4759.29
4132.58
3544.97
2997.87
2492.02
2029.44
1613.47
1247.55
932.719
667.76
450.066
276.868
144.746
48.6884
-17.1838
-58.7376
-82.3856
-94.2695
-99.1029
-100.216
-99.5434
-98.3426
-96.9034
-94.7636
-91.6682
-87.6188
-83.2605
-79.2963
-76.1391
-73.8512
-72.2196
-70.9597
-69.82
-68.6085
-67.2233
-65.6423
-63.913
-62.1303
-60.4026
-58.8188
-57.4273
-56.2311
-55.1952
-54.2613
-53.3638
-52.4444
-51.4605
-50.3951
-49.2453
-48.0285
-46.7707
-45.499
-44.2329
-42.9783
-41.7314
-40.489
-39.2554
-38.0448
-36.8768
-35.7659
-34.7139
-33.7109
-32.7207
12797.9
12534.1
12213.5
11704.9
10841.2
9635.7
8109.96
6326.43
4381.03
2408.14
596.239
-854.806
-1826.93
-2341.5
-2520.51
-2488.95
-2325.24
-2077.92
-1786.3
-1483.14
-1192.67
-930.609
-705.91
-522.248
-379.017
-272.432
-196.737
-145.384
-112.358
-92.7895
-82.4128
-77.8773
-76.7303
-77.178
-78.0493
-78.9698
-79.9802
-81.3117
-83.2162
-85.6846
-88.4275
-91.0019
-93.0023
-94.2128
-94.6108
-94.286
-93.3547
-91.9215
-90.0847
-87.9443
-85.605
-83.1742
-80.7525
-78.4228
-76.2425
-74.2431
-72.4294
-70.7818
-69.2626
-67.8236
-66.4134
-64.9845
-63.5012
-61.9432
-60.3062
-58.6139
-56.9034
-55.2204
-53.6038
-52.0703
-50.6046
-49.1598
-47.6835
-46.1461
-44.5573
-42.9592
-41.4039
-39.9295
-38.5487
-37.2185
-11300.9
-10810.8
-10199.1
-9553.69
-8935.58
-8366.87
-7797.55
-7147.92
-6327.56
-5272.03
-4040.44
-2864.28
-1977.45
-1432.85
-1131.18
-958.852
-851.437
-781.016
-736.278
-710.253
-697.664
-694.503
-697.737
-705.377
-715.196
-724.175
-729.382
-728.622
-720.49
-704.252
-679.535
-646.887
-607.454
-562.772
-514.529
-464.137
-412.894
-362.402
-314.914
-272.317
-235.751
-205.501
-181.151
-161.884
-146.768
-134.923
-125.603
-118.204
-112.253
-107.363
-103.208
-99.6107
-96.46
-93.6692
-91.1201
-88.7784
-86.6106
-84.565
-82.5941
-80.6566
-78.7156
-76.7395
-74.7047
-72.5993
-70.4253
-68.2028
-65.9722
-63.7916
-61.7261
-59.8246
-58.0895
-56.3824
-54.686
-52.9035
-50.9985
-49.0117
-47.0244
-45.1143
-43.3282
-41.6322
-469.842
-441.417
-476.956
-660.601
-999.621
-1275.4
-1217.58
-702.456
122.719
948.372
1537.01
1825.51
1862.15
1733.04
1522.6
1284.1
1039.42
798.801
573.019
370.331
194.042
43.02
-84.8342
-192.533
-283.556
-360.709
-424.642
-474.308
-507.196
-520.896
-514.686
-490.5
-453.402
-410.038
-366.248
-325.627
-289.461
-257.743
-229.972
-206.142
-186.302
-170.245
-157.502
-147.476
-139.573
-133.28
-128.191
-123.982
-120.407
-117.3
-114.565
-112.061
-109.667
-107.305
-104.969
-102.604
-100.18
-97.7021
-95.1788
-92.6178
-90.0245
-87.3982
-84.7313
-82.0136
-79.2414
-76.4301
-73.6241
-70.8985
-68.3394
-66.0083
-63.9091
-62.044
-60.208
-58.2846
-56.2154
-54.0198
-51.778
-49.5835
-47.5092
-45.541
10097.7
9897.47
9592.3
9008.29
7967.91
6663.09
5419.79
4448.24
3738.65
3193.39
2750.4
2382.64
2072.93
1800.94
1550.83
1319.7
1112.87
934.381
782.247
651.073
536.971
440.027
361.312
300.923
257.187
226.48
203.433
182.967
161.067
135.158
103.875
67.8265
29.0781
-9.64311
-45.7447
-77.2723
-103.198
-122.958
-136.709
-145.233
-149.635
-151.095
-150.639
-149.035
-146.798
-144.247
-141.567
-138.854
-136.15
-133.463
-130.787
-128.104
-125.394
-122.639
-119.827
-116.949
-114.006
-111.006
-107.965
-104.901
-101.828
-98.7519
-95.6641
-92.5443
-89.3684
-86.1266
-82.8356
-79.572
-76.4016
-73.4152
-70.6543
-68.09
-65.6269
-63.1663
-60.6543
-58.1025
-55.5714
-53.1318
-50.8441
-48.6969
-6169.01
-5643.16
-5021.76
-4584.71
-4362.04
-4377.99
-4542.26
-4783.22
-5004.65
-5047.83
-4804.45
-4337.01
-3805.41
-3314.88
-2885.7
-2502.48
-2150.13
-1821.14
-1515.43
-1237.64
-991.05
-775.025
-585.843
-418.704
-272.078
-147.592
-48.2364
24.6199
72.1801
97.667
105.376
99.4391
83.5437
61.1495
35.0309
7.32225
-20.0476
-45.9063
-69.366
-89.8615
-107.161
-121.259
-132.31
-140.575
-146.371
-150.046
-151.949
-152.413
-151.74
-150.196
-148.006
-145.349
-142.368
-139.166
-135.819
-132.377
-128.872
-125.318
-121.725
-118.095
-114.431
-110.732
-106.996
-103.214
-99.3741
-95.5143
-91.636
-87.7798
-84.0383
-80.4609
-77.0556
-73.7879
-70.6041
-67.4655
-64.3729
-61.365
-58.4962
-55.811
-53.3429
-51.073
-13842.8
-13275.2
-12578.5
-11839.1
-11029
-10248.1
-9538.8
-8911.55
-8299.19
-7575.12
-6660.83
-5594.35
-4469.35
-3362.97
-2357.29
-1559.05
-1019.87
-680.758
-453.579
-310.65
-254.706
-267.219
-310.688
-351.229
-372.417
-375.044
-366.001
-351.017
-333.617
-316.233
-300.129
-285.841
-273.457
-263.062
-254.505
-247.44
-241.497
-236.35
-231.727
-227.414
-223.245
-219.09
-214.842
-210.408
-205.707
-200.685
-195.322
-189.65
-183.736
-177.677
-171.579
-165.537
-159.632
-153.924
-148.455
-143.246
-138.298
-133.596
-129.111
-124.799
-120.609
-116.492
-112.402
-108.323
-104.148
-99.8966
-95.6402
-91.4236
-87.3023
-83.3197
-79.4941
-75.8212
-72.2884
-68.8916
-65.6446
-62.5746
-59.7093
-57.0635
-54.6499
-52.4501
9082.8
8805.57
8365
7696.25
6768.21
5744.55
4718.7
3726.88
2772.88
1857.39
1008.84
321.692
-110.212
-348.653
-553.826
-783.183
-989.497
-1131.81
-1206.43
-1230.44
-1224.38
-1200.93
-1165.23
-1120.21
-1070.26
-1020.41
-974.632
-934.504
-898.811
-864.551
-828.546
-788.595
-744.014
-695.393
-644.189
-592.272
-541.522
-493.511
-449.318
-409.494
-374.158
-343.12
-316.005
-292.327
-271.575
-253.348
-237.071
-222.488
-209.335
-197.401
-186.54
-176.638
-167.602
-159.35
-151.804
-144.886
-138.522
-132.639
-127.169
-122.05
-117.224
-112.631
-108.212
-103.913
-99.8063
-95.8129
-91.9093
-88.0973
-84.3829
-80.7749
-77.2814
-73.9102
-70.6706
-67.5765
-64.646
-61.8977
-59.3448
-56.9887
-54.8375
-52.8819
2668.93
2680
2751.56
2874.2
3018.5
3131.07
3189.92
3193.86
3144.46
3035.97
2856.29
2600.34
2290.51
1961.61
1630.58
1294.35
949.757
601.29
254.951
-84.32
-411.713
-722.25
-1009.75
-1266.49
-1481.09
-1640.17
-1733.64
-1759.93
-1726.65
-1646.95
-1536.13
-1407.64
-1271.92
-1136.03
-1005.47
-884.055
-774.335
-677.728
-594.491
-523.886
-464.54
-414.826
-373.071
-337.658
-307.128
-280.301
-256.367
-234.906
-215.773
-198.927
-184.28
-171.632
-160.7
-151.194
-142.858
-135.484
-128.909
-122.998
-117.639
-112.733
-108.198
-103.963
-99.9668
-96.1625
-92.5091
-88.9854
-85.5772
-82.2763
-79.0799
-75.9895
-73.009
-70.1451
-67.4067
-64.805
-62.3517
-60.0564
-57.9245
-55.9532
-54.152
-52.5308
-9517.23
-9358.35
-9126.21
-8785.49
-8312.52
-7736.14
-7088.14
-6398.2
-5688.66
-4981.6
-4302.26
-3673.21
-3112.13
-2624.88
-2201.11
-1826.04
-1492.47
-1204.96
-970.725
-791.728
-667.96
-603.083
-599.206
-644.975
-714.803
-782.686
-833.811
-863.745
-872.293
-861.387
-833.334
-790.424
-735.333
-671.486
-603.156
-535.097
-472.942
-419.544
-375.535
-339.877
-310.669
-286.353
-265.695
-247.601
-231.159
-215.737
-201.044
-187.09
-174.054
-162.135
-151.441
-141.974
-133.648
-126.34
-119.923
-114.276
-109.285
-104.845
-100.861
-97.2457
-93.9204
-90.8169
-87.88
-85.0655
-82.3466
-79.7383
-77.1887
-74.6942
-72.2565
-69.8799
-67.5718
-65.3417
-63.2004
-61.1588
-59.227
-57.4134
-55.7232
-54.1547
-52.7209
-51.4738
4071.58
3842.52
3483.68
2991.49
2362.54
1709.18
1088.13
527.149
41.5048
-356.415
-657.395
-859.144
-967.946
-998.474
-971.661
-908.092
-825.395
-737.683
-655.957
-587.521
-537.98
-511.032
-507.775
-524.604
-550.728
-573.439
-582.193
-569.352
-532.657
-473.981
-397.984
-311.083
-220.519
-133.705
-57.4963
2.76438
44.2474
67.1664
74.1736
68.9747
54.8921
36.2215
15.7339
-3.96311
-21.1777
-35.2633
-46.3082
-54.7773
-61.2449
-66.2313
-70.1264
-73.1795
-75.5306
-77.259
-78.4234
-79.0825
-79.2992
-79.1372
-78.6564
-77.9114
-76.9509
-75.8175
-74.5453
-73.1654
-71.7026
-70.1424
-68.5118
-66.8538
-65.1816
-63.5098
-61.854
-60.2292
-58.6495
-57.1278
-55.6751
-54.3006
-53.0112
-51.8044
-50.6857
-49.7555
1948.31
1982.27
1999.68
1980.71
1917.24
1842.44
1778.06
1731.45
1702.12
1688.02
1687.04
1694.24
1699.75
1689.97
1650.12
1568.13
1437.86
1260.43
1045.73
806.433
553.771
299.579
59.8605
-148.01
-310.996
-424.123
-490.062
-515.995
-508.939
-476.387
-425.692
-363.496
-295.282
-225.362
-157.137
-93.3841
-36.7723
10.413
46.7914
71.538
83.8362
83.9406
74.3071
58.625
41.7283
26.2136
12.6789
0.901472
-9.47947
-18.6945
-26.8403
-33.9547
-40.0742
-45.255
-49.5723
-53.1103
-55.9542
-58.184
-59.8722
-61.0834
-61.8755
-62.3004
-62.406
-62.2361
-61.8281
-61.2169
-60.4662
-59.5818
-58.5974
-57.5436
-56.4472
-55.3317
-54.2184
-53.1247
-52.0647
-51.0487
-50.0835
-49.1618
-48.2683
-47.4806
2.64057
2.77812
2.62835
2.28476
1.79239
1.18723
0.483869
-0.309294
-1.1914
-2.1568
-3.21386
-4.37102
-5.63657
-7.01443
-8.496
-10.0575
-11.6553
-13.2093
-14.6285
-15.8002
-16.6245
-17.0461
-17.055
-16.677
-15.955
-14.9523
-13.7551
-12.4651
-11.177
-9.95373
-8.81688
-7.75757
-6.75788
-5.8091
-4.91846
-4.10405
-3.3844
-2.77035
-2.26269
-1.85432
-1.5339
-1.28909
-1.10857
-0.983028
-0.905314
-0.869904
-0.872378
-0.909125
-0.9772
-1.07409
-1.19741
-1.34446
-1.51146
-1.69258
-1.87906
-2.05917
-2.21955
-2.3481
-2.43711
-2.48477
-2.49438
-2.47182
-2.4232
-2.35366
-2.26738
-2.16532
-2.04767
-1.91453
-1.76655
-1.60507
-1.43226
-1.25104
-1.06483
-0.877328
-0.692209
-0.51286
-0.342203
-0.182583
-0.0357282
0.0971935
0.215495
0.318865
0.40727
0.480849
0.539822
0.584427
0.614858
0.631226
0.633516
0.621548
0.594951
0.553134
0.495249
0.420158
0.326388
0.212092
0.0750366
-0.087353
-0.277852
-0.499211
-0.753913
-1.04407
-1.37156
-1.7383
-2.14649
-2.59865
-3.09712
-3.64348
-4.23782
-4.87814
-5.56013
-6.27708
-7.02012
-7.77852
-8.54016
-9.29192
-10.0202
-10.7116
-11.3528
-11.9318
-12.4375
-12.8603
-13.1923
-13.4269
-13.5609
-13.5927
-13.5228
-13.3532
-13.088
-12.7328
-12.295
-11.7834
-11.2075
-10.5776
-9.90389
-9.19685
-8.46644
-7.72213
-6.97265
-6.22593
-5.48903
-4.76807
-4.06829
-3.39404
-2.74886
-2.13556
-1.55627
-1.01255
-0.505426
-0.0354218
0.397378
0.793298
1.15301
1.47749
1.76796