/*--------------------------------*- C++ -*----------------------------------*\
| =========                 |                                                 |
| \\      /  F ield         | OpenFOAM: The Open Source CFD Toolbox           |
|  \\    /   O peration     | Version:  2012                                  |
|   \\  /    A nd           | Website:  www.openfoam.com                      |
|    \\/     M anipulation  |                                                 |
\*---------------------------------------------------------------------------*/
FoamFile
{
    version     2.0;
    format      ascii;
    class       surfaceScalarField;
    location    "0.35";
    object      phi;
}
// * * * * * * * * * * * * * * * * * * * * * * * * * * * * * * * * * * * * * //

dimensions      [0 3 -1 0 0 0 0];
oriented        oriented;


internalField   nonuniform List<scalar> 
84340
(
0.000473259
-0.000352461
-0.000120797
0.00110705
-0.000467678
-0.00016611
0.00164313
-0.000332257
-0.000203822
0.00210058
-0.000183611
-0.000273845
0.00246999
-5.2065e-05
-0.000317347
0.00274364
7.62167e-05
-0.00034986
0.00293589
0.000189695
-0.000381946
0.00310107
0.0002641
-0.000429281
0.00331123
0.000260861
-0.000471018
0.0036333
0.000160195
-0.00048227
0.00409855
-1.46622e-05
-0.000450582
0.00469256
-0.000212325
-0.00038169
0.00537235
-0.000389681
-0.000290102
0.00608766
-0.000525342
-0.000189968
0.0067915
-0.000614575
-8.92682e-05
0.00744373
-0.000661665
9.43523e-06
0.00800015
-0.000678654
0.000122233
0.00843722
-0.000676812
0.000239747
0.00874527
-0.000660965
0.00035291
0.0089295
-0.00062701
0.000442782
0.00900744
-0.000568175
0.00049023
0.00899998
-0.000481161
0.000488623
0.00892455
-0.000370881
0.000446318
0.00878963
-0.000243601
0.000378518
0.00859753
-0.000107179
0.000299277
0.00834821
3.12452e-05
0.000218079
0.00803661
0.000164932
0.000146662
0.00766141
0.00028687
8.8337e-05
0.00722849
0.000389526
4.33894e-05
0.00674389
0.000470258
1.43473e-05
0.00621311
0.000527515
3.26392e-06
0.00564407
0.000561354
7.68337e-06
0.00504719
0.000576401
2.0481e-05
0.00443729
0.000577485
3.24109e-05
0.00383348
0.000570139
3.36781e-05
0.00325794
0.000559246
1.62934e-05
0.00273345
0.000546913
-2.24283e-05
0.00227802
0.000531753
-7.63178e-05
0.00190061
0.000508425
-0.000131016
0.00159948
0.000468561
-0.000167431
0.00136172
0.000404436
-0.000166681
0.00116803
0.000311809
-0.000118116
0.000984696
0.00020322
-1.98853e-05
0.000828492
7.58112e-05
8.03929e-05
0.000695685
-5.27818e-05
0.000185588
0.000570308
-0.000148581
0.000273959
0.000448485
-0.000209353
0.000331175
0.000332508
-0.000241483
0.00035746
0.000225798
-0.000253398
0.000360107
0.00013083
-0.000253215
0.000348183
4.86454e-05
-0.00024693
0.000329114
-2.08319e-05
-0.000238167
0.000307644
-7.81701e-05
-0.000228881
0.000286219
-0.000124229
-0.000219748
0.000265807
-0.00015986
-0.00021097
0.0002466
-0.000185859
-0.000202451
0.00022845
-0.000202974
-0.000193984
0.000211099
-0.000211902
-0.000185339
0.000194266
-0.000213284
-0.000176307
0.00017769
-0.0002077
-0.000166713
0.00016113
-0.000195677
-0.000156424
0.000144401
-0.000177573
-0.000145344
0.00012724
-0.000153726
-0.00013343
0.000109583
-0.000124378
-0.000120679
9.13315e-05
-8.96761e-05
-0.000107133
7.24306e-05
-4.96567e-05
-9.28644e-05
5.28451e-05
-4.32896e-06
-7.80618e-05
3.27341e-05
4.634e-05
-6.2841e-05
1.21723e-05
0.000102435
-4.7474e-05
-8.62086e-06
0.000164026
-3.21957e-05
-2.93952e-05
0.000231
-1.71668e-05
-4.98083e-05
0.000303774
-3.31742e-06
-6.94564e-05
0.000382178
9.56012e-06
-8.79638e-05
0.000466247
2.08699e-05
-0.00010494
0.000556097
3.01978e-05
-0.000120049
0.00065201
3.71539e-05
-0.000133068
0.000754575
4.13989e-05
-0.000143963
0.000865042
4.26271e-05
-0.000153095
0.000986156
4.04742e-05
-0.000161588
3.60129e-05
-0.000170155
0.0011203
-0.00070352
0.000351059
-0.00175553
0.00058433
-0.0026132
0.000525414
-0.00321639
0.000419585
-0.00360853
0.000340074
-0.00380238
0.000270062
-0.00380235
0.00018967
-0.0036051
6.68497e-05
-0.00322005
-0.000124198
-0.00268431
-0.000375546
-0.00205846
-0.000640504
-0.00140717
-0.000863622
-0.000792568
-0.00100428
-0.000260581
-0.00105733
0.000159956
-0.00103511
0.00045882
-0.000960529
0.000642155
-0.000861989
0.00072739
-0.000762047
0.000738953
-0.000672528
0.000709301
-0.000597358
0.000674076
-0.000532951
0.000667602
-0.000474688
0.000712301
-0.00041558
0.000807749
-0.000339049
0.000960199
-0.000259629
0.00115413
-0.000162687
0.00136174
-4.2678e-05
0.00155043
9.81813e-05
0.00169198
0.000247974
0.00177261
0.000389634
0.00179261
0.000507507
0.00177582
0.000578146
0.00173789
0.000614331
0.0016914
0.000623979
0.00164899
0.000612549
0.0016212
0.000587028
0.0016149
0.000553213
0.00163271
0.000513951
0.00167164
0.000469491
0.00172173
0.000418477
0.00176643
0.000359734
0.00178431
0.000293927
0.00176227
0.000225259
0.00167833
0.000159753
0.00152411
0.000101438
0.00131751
5.80136e-05
0.00108043
2.77276e-05
0.000837569
1.38227e-06
0.000607521
-2.33502e-05
0.000400353
-4.60476e-05
0.000221239
-6.7816e-05
7.16405e-05
-8.85681e-05
-4.95908e-05
-0.00010765
-0.000144569
-0.00012477
-0.00021616
-0.000139378
-0.000266851
-0.000151759
-0.000299041
-0.000161792
-0.000314879
-0.000169501
-0.000316239
-0.000174948
-0.00030474
-0.000178213
-0.00028177
-0.000179394
-0.000248512
-0.000178603
-0.000205974
-0.000175968
-0.000155016
-0.000171638
-9.6366e-05
-0.000165782
-3.06321e-05
-0.000158598
4.16225e-05
-0.000150317
0.000119978
-0.000141197
0.000204039
-0.000131535
0.000293493
-0.00012165
0.000388337
-0.000112011
0.000487959
-0.000102939
0.000592392
-9.48737e-05
0.000701543
-8.82807e-05
0.000815368
-8.36275e-05
0.000933964
-8.14422e-05
0.00105754
-8.21788e-05
0.00118641
-8.62469e-05
0.00132103
-9.41441e-05
-0.000102833
0.00145988
0.000306582
4.4476e-05
0.000943268
-5.23551e-05
0.001888
-0.000419314
0.00309782
-0.000790242
0.00439974
-0.000961839
0.00562396
-0.00095416
0.00663086
-0.000817227
0.00735346
-0.000655751
0.00778899
-0.000559729
0.00796953
-0.000556085
0.00794972
-0.000620694
0.0077902
-0.000704105
0.00753542
-0.0007495
0.00719677
-0.000718677
0.00675211
-0.000590448
0.00616968
-0.000378107
0.0054346
-0.000126907
0.0045598
0.000112759
0.00357998
0.000307283
0.00254037
0.000442253
0.00149202
0.000515398
0.000489534
0.000527803
-0.000420803
0.000494756
-0.00119058
0.000430728
-0.00180026
0.000350047
-0.00223074
0.0002678
-0.00247819
0.000204771
-0.00256001
0.000180004
-0.0025063
0.000194261
-0.00235469
0.000238024
-0.00213978
0.000292592
-0.00190192
0.000340286
-0.00165948
0.000371897
-0.00142144
0.000385937
-0.00119483
0.000385943
-0.000984526
0.000376719
-0.000793383
0.00036207
-0.000623499
0.000344067
-0.000477278
0.00032327
-0.000358287
0.000299486
-0.000271137
0.000272584
-0.000220206
0.000242996
-0.000206658
0.000211711
-0.000226748
0.000179843
-0.000273478
0.000148168
-0.000332649
0.000117185
-0.000392133
8.72105e-05
-0.000449417
5.86665e-05
-0.000499449
2.66818e-05
-0.000541336
-4.16129e-06
-0.000575467
-3.36855e-05
-0.000602453
-6.15828e-05
-0.000622233
-8.78685e-05
-0.000634648
-0.000112355
-0.000639169
-0.000134858
-0.000635684
-0.000155245
-0.000624037
-0.00017344
-0.000604127
-0.000189412
-0.000575903
-0.000203172
-0.000539352
-0.000214765
-0.000494491
-0.000224255
-0.00044137
-0.000231724
-0.000380068
-0.00023727
-0.000310701
-0.000241005
-0.000233421
-0.000243063
-0.000148415
-0.000243604
-5.59134e-05
-0.000242818
4.38182e-05
-0.000240929
0.000150485
-0.000238202
0.000263778
-0.000234943
0.000383276
-0.000231509
0.000508614
-0.000228276
0.000639408
-0.000225668
0.000775261
-0.000224134
0.000915779
-0.000224145
0.00106052
-0.000226184
0.00120906
-0.000230715
0.001361
-0.000238187
0.00151597
-0.00024911
-0.000258681
0.00167181
-0.000145022
0.000189497
-0.000466929
0.000269553
-0.0010865
0.000200259
-0.00201879
0.000142044
-0.00313213
0.000151503
-0.00428813
0.00020184
-0.00532421
0.000218848
-0.00608926
0.000109303
-0.00648976
-0.000159228
-0.00651206
-0.000533788
-0.00621472
-0.000918032
-0.00569675
-0.00122208
-0.00505862
-0.00138763
-0.00438141
-0.00139588
-0.0037248
-0.00124706
-0.00312383
-0.000979079
-0.00260005
-0.000650684
-0.00216754
-0.000319753
-0.00183461
-2.56487e-05
-0.00160343
0.000211074
-0.00147081
0.000382775
-0.00143401
0.00049101
-0.00148363
0.000544375
-0.00160604
0.000553131
-0.00178189
0.000525899
-0.00199175
0.000477661
-0.00220695
0.000419972
-0.00238929
0.000362342
-0.00250637
0.000311341
-0.00253912
0.000270775
-0.00248849
0.000241962
-0.00237244
0.000224234
-0.0022155
0.000214964
-0.00203683
0.000207263
-0.00185246
0.000201571
-0.0016741
0.000198363
-0.00150863
0.000196599
-0.00136064
0.000196078
-0.00123352
0.000196144
-0.00112947
0.00019544
-0.00104932
0.000192432
-0.000992287
0.000185964
-0.000955967
0.000175391
-0.0009367
0.000160577
-0.000930199
0.000141668
-0.000931971
0.000118956
-0.00093761
9.2849e-05
-0.000942655
6.3711e-05
-0.000947299
3.13258e-05
-0.000951663
2.037e-07
-0.000952325
-3.30235e-05
-0.00094762
-6.62882e-05
-0.000936777
-9.87116e-05
-0.000919502
-0.000129629
-0.000895813
-0.000158546
-0.000865916
-0.000185141
-0.000830086
-0.000209269
-0.000788566
-0.000230932
-0.000741495
-0.000250243
-0.000688884
-0.000267376
-0.000630615
-0.000282524
-0.000566474
-0.000295865
-0.00049619
-0.000307553
-0.000419478
-0.000317717
-0.000336072
-0.000326469
-0.000245755
-0.000333921
-0.000148372
-0.000340201
-4.38429e-05
-0.000345458
6.78323e-05
-0.000349877
0.000186565
-0.000353677
0.000312185
-0.000357129
0.000444446
-0.000360538
0.000583026
-0.000364248
0.000727536
-0.000368644
0.000877528
-0.000374138
0.0010325
-0.000381157
0.00119192
-0.00039013
0.0013552
-0.000401467
0.00152171
-0.000415621
-0.000428208
0.00169123
0.000566246
-0.000376749
0.00130905
-0.000473251
0.00171594
-0.000206633
0.00179936
5.86223e-05
0.00173026
0.000220604
0.00164759
0.000284512
0.00163029
0.000236155
0.00165959
7.9995e-05
0.00163477
-0.000134401
0.00145128
-0.000350301
0.00104134
-0.000508093
0.000398129
-0.000578865
-0.000418094
-0.00057141
-0.00130829
-0.000505691
-0.00215188
-0.000403462
-0.00284633
-0.000284635
-0.00333193
-0.000165084
-0.00359727
-5.44104e-05
-0.0036723
4.93766e-05
-0.00360388
0.000142658
-0.00344536
0.00022426
-0.00324895
0.0002946
-0.00305736
0.000352785
-0.00290393
0.0003997
-0.00279896
0.000420924
-0.00273612
0.000414822
-0.00269657
0.000380423
-0.00265271
0.000318486
-0.00257383
0.000232459
-0.00243558
0.000132528
-0.00223144
3.78186e-05
-0.00197795
-2.92549e-05
-0.00170882
-5.41646e-05
-0.00146641
-3.51541e-05
-0.00128111
1.62736e-05
-0.00116405
8.13079e-05
-0.00110995
0.000142503
-0.00110441
0.00019053
-0.00112979
0.000221526
-0.00117056
0.000236209
-0.0012158
0.000237674
-0.00125912
0.00022928
-0.00129718
0.000213457
-0.00132825
0.000191645
-0.00135124
0.000164653
-0.00136535
0.000133071
-0.00137007
9.75627e-05
-0.00136522
5.88658e-05
-0.0013507
1.68e-05
-0.00132374
-2.67522e-05
-0.00128671
-7.00528e-05
-0.00124058
-0.000112414
-0.0011865
-0.000152798
-0.00112584
-0.000190291
-0.00106014
-0.000224238
-0.000990965
-0.000254321
-0.000919654
-0.000280581
-0.00084721
-0.000303377
-0.000774171
-0.000323283
-0.000700591
-0.000340955
-0.000626114
-0.000357
-0.000550092
-0.000371887
-0.000471728
-0.000385917
-0.000390201
-0.000399243
-0.000304756
-0.000411914
-0.000214746
-0.000423932
-0.000119656
-0.000435291
-1.91041e-05
-0.000446011
8.71708e-05
-0.000456152
0.000199322
-0.000465828
0.000317379
-0.000475187
0.000441285
-0.000484443
0.000570895
-0.000493857
0.000705984
-0.000503733
0.000846261
-0.000514415
0.000991382
-0.000526277
0.00114096
-0.000539708
0.00129459
-0.000555096
0.00145179
-0.000572821
-0.000590523
0.0016141
-0.000357069
-1.96796e-05
-0.000785253
-4.50672e-05
-0.000917502
-7.43844e-05
-0.000625221
-0.000233659
8.44214e-05
-0.000489038
0.00112562
-0.000756691
0.00234152
-0.000979738
0.00354428
-0.00112276
0.00458422
-0.00117434
0.00539164
-0.00115772
0.00599056
-0.00110702
0.00645077
-0.00103907
0.00684034
-0.000960984
0.00721047
-0.000875819
0.00758749
-0.000780479
0.00797806
-0.000675204
0.0083768
-0.000563828
0.00877327
-0.000450874
0.009162
-0.000339358
0.00952939
-0.000224732
0.00986466
-0.000111011
0.0101524
6.85636e-06
0.0103733
0.000131934
0.0105073
0.000265663
0.0105167
0.000411503
0.0103515
0.000579994
0.00993762
0.000794341
0.00919778
0.00105833
0.00812903
0.00130121
0.00685935
0.00140221
0.00558494
0.00131222
0.00444841
0.00110728
0.00349117
0.000903079
0.00269349
0.000762525
0.00201945
0.00069031
0.00143882
0.000661945
0.000929853
0.000651466
0.00048079
0.000639592
8.57843e-05
0.000616532
-0.000258333
0.000580327
-0.000553943
0.000533284
-0.000803352
0.00047869
-0.00100897
0.000419072
-0.00117321
0.000355891
-0.00129849
0.000289936
-0.00138718
0.000221753
-0.00144163
0.000152016
-0.00146454
8.17708e-05
-0.00146066
1.29272e-05
-0.00143299
-5.44292e-05
-0.00138387
-0.000119164
-0.00131671
-0.000179577
-0.00123521
-0.000234293
-0.00114332
-0.000282186
-0.00104502
-0.000322539
-0.000944109
-0.00035523
-0.000843883
-0.000380806
-0.000746798
-0.000400462
-0.000654237
-0.000415845
-0.000566453
-0.000428739
-0.000482728
-0.000440726
-0.000401687
-0.000452926
-0.000321685
-0.000465919
-0.000241121
-0.000479807
-0.000158647
-0.000494388
-7.32532e-05
-0.000509325
1.57454e-05
-0.000524289
0.000108763
-0.000539029
0.000206007
-0.000553397
0.000307529
-0.00056735
0.000413277
-0.000580935
0.000523113
-0.000594279
0.000636836
-0.00060758
0.000754202
-0.000621099
0.000874935
-0.000635148
0.000998738
-0.000650081
0.0011253
-0.000666275
0.00125432
-0.000684114
0.00138544
-0.000703942
-0.000725236
0.00152016
-0.000268029
0.00024835
-0.000466327
0.000153231
-0.000331057
-0.000209654
-2.16067e-05
-0.000543109
0.000223492
-0.000734137
0.00025066
-0.000783858
5.24333e-06
-0.000734321
-0.000458587
-0.000658934
-0.00102375
-0.000609181
-0.00159353
-0.00058794
-0.0021252
-0.000575349
-0.00260734
-0.000556936
-0.00304103
-0.000527289
-0.0034308
-0.000486053
-0.00377508
-0.000436192
-0.00406689
-0.0003834
-0.00429891
-0.000331803
-0.00445803
-0.000291756
-0.00453831
-0.000259083
-0.00453016
-0.000232874
-0.00445504
-0.000186137
-0.00432194
-0.000126244
-0.00413391
-5.60986e-05
-0.00389205
2.38024e-05
-0.00360037
0.000119826
-0.00327148
0.000251105
-0.00292705
0.000449915
-0.00259599
0.00072726
-0.00231002
0.00101524
-0.00209632
0.00118851
-0.00196984
0.00118575
-0.00192696
0.0010644
-0.00194588
0.000921999
-0.00199652
0.000813163
-0.00204974
0.00074353
-0.00208706
0.000699259
-0.002101
0.00066541
-0.00209335
0.000631946
-0.00207045
0.000593624
-0.00203867
0.000548549
-0.00200202
0.000496631
-0.0019618
0.000438473
-0.0019175
0.000374776
-0.00186785
0.000306239
-0.00181131
0.000233393
-0.00174564
0.000156082
-0.00166549
7.18711e-05
-0.00158062
-3.10333e-06
-0.0014887
-7.89967e-05
-0.00138724
-0.000155889
-0.00127663
-0.000229765
-0.00115803
-0.000298181
-0.00103345
-0.000358878
-0.000905727
-0.000409904
-0.000778408
-0.000449858
-0.000655417
-0.000478222
-0.000540385
-0.000495838
-0.000436049
-0.000504799
-0.000343652
-0.000508242
-0.000262648
-0.000509743
-0.000190868
-0.000512505
-0.000125123
-0.000518672
-6.1983e-05
-0.000529058
1.54286e-06
-0.000543333
6.76376e-05
-0.000560483
0.000137612
-0.000579301
0.000212049
-0.000598727
0.000291016
-0.000617996
0.000374264
-0.000636646
0.00046138
-0.000654466
0.00055187
-0.000671424
0.000645216
-0.000687624
0.000740905
-0.000703269
0.000838452
-0.000718646
0.000937412
-0.000734109
0.0010374
-0.000750064
0.00113807
-0.000766948
0.00123915
-0.000785193
0.0013404
-0.000805194
-0.000827359
0.00144252
0.000467295
-0.000218945
0.00104374
-0.00042321
0.0013074
-0.000473323
0.00120446
-0.000440169
0.000777405
-0.000307078
6.55387e-05
-7.19922e-05
-0.000877718
0.000208935
-0.00198362
0.000446965
-0.00318197
0.000589173
-0.00441771
0.000647803
-0.00565809
0.000665026
-0.00688924
0.000674213
-0.00811237
0.000695839
-0.00933053
0.000732111
-0.0105336
0.000766926
-0.0116899
0.000772806
-0.0127465
0.000724809
-0.0136432
0.000604931
-0.0143328
0.000430578
-0.0148038
0.000238102
-0.0150498
5.98674e-05
-0.0150906
-8.54187e-05
-0.0149523
-0.000194454
-0.0146567
-0.000271743
-0.0142156
-0.000321307
-0.0136218
-0.000342681
-0.0128417
-0.000330226
-0.0118304
-0.000284048
-0.010596
-0.000219105
-0.00925224
-0.000155255
-0.00796902
-9.74721e-05
-0.0068632
-4.14178e-05
-0.00595534
1.41398e-05
-0.00521307
7.08887e-05
-0.00459801
0.000128476
-0.00407868
0.000179929
-0.00363303
0.000219757
-0.00324621
0.000245125
-0.00290783
0.000255246
-0.00260988
0.000250596
-0.00234553
0.000232285
-0.00210876
0.000201706
-0.00189437
0.000160383
-0.00169815
0.000110019
-0.0015179
5.31432e-05
-0.00135139
-1.0429e-05
-0.00119318
-8.63408e-05
-0.00103517
-0.000161118
-0.000877932
-0.00023623
-0.000723975
-0.000309846
-0.0005743
-0.00037944
-0.000430281
-0.0004422
-0.000293925
-0.000495234
-0.000167913
-0.000535916
-5.52555e-05
-0.000562516
4.13965e-05
-0.000574874
0.000120109
-0.000574552
0.000180362
-0.000565052
0.000223496
-0.000551376
0.000252862
-0.000539108
0.000273408
-0.00053305
0.000290723
-0.000535987
0.000309882
-0.000548218
0.000334609
-0.000568059
0.000367005
-0.000592879
0.000407764
-0.00062006
0.000456597
-0.00064756
0.000512663
-0.000674061
0.000574884
-0.000698867
0.00064214
-0.000721721
0.000713361
-0.000742644
0.000787565
-0.000761828
0.000863877
-0.000779581
0.000941535
-0.000796304
0.0010199
-0.000812479
0.00109849
-0.000828647
0.00117692
-0.000845382
0.00125498
-0.000863249
0.00133257
-0.000882785
-0.00090469
0.0014099
3.46576e-05
-0.000253603
-3.78949e-05
-0.000350658
-0.000266283
-0.000244935
-0.000490546
-0.000215906
-0.00050788
-0.000289744
-0.000213292
-0.00036658
0.000401381
-0.000405738
0.00125951
-0.00041116
0.00224759
-0.000398913
0.00327428
-0.000378886
0.0042893
-0.00034999
0.00526756
-0.00030405
0.00618911
-0.00022571
0.00702831
-0.000107084
0.00773735
5.78862e-05
0.00826272
0.000247428
0.00855081
0.000436721
0.00856858
0.000587167
0.00832466
0.000674498
0.00787459
0.000688165
0.00729925
0.000635207
0.00667366
0.000540178
0.00604505
0.000434154
0.00543364
0.000339665
0.00484552
0.000266818
0.00428485
0.00021798
0.00376088
0.000193752
0.00328317
0.00019366
0.00284908
0.000214987
0.00244137
0.000252448
0.00204494
0.000298965
0.00165702
0.000346493
0.00128395
0.000387211
0.000939723
0.000415118
0.000641122
0.000427077
0.000398273
0.000422778
0.000214237
0.000403793
8.70942e-05
0.000372267
1.18896e-05
0.00033045
-1.77249e-05
0.00028021
-8.50424e-06
0.000223064
3.29011e-05
0.000160301
9.89242e-05
9.43597e-05
0.000187198
2.1745e-05
0.000293219
-5.28779e-05
0.000409741
-0.000126951
0.000524428
-0.000201027
0.000636815
-0.000273505
0.000743164
-0.000342579
0.000839604
-0.000406286
0.000922512
-0.000462348
0.000988524
-0.000508212
0.00103459
-0.000541297
0.00105823
-0.000559555
0.00105809
-0.000562377
0.00103468
-0.00055147
0.000991249
-0.000531118
0.000933671
-0.000507474
0.000869522
-0.000487228
0.000806467
-0.000476053
0.000750811
-0.000477394
0.00070676
-0.000491936
0.000676444
-0.000517902
0.000660381
-0.000551997
0.000658024
-0.000590522
0.000668202
-0.000630238
0.00068943
-0.000668789
0.000720116
-0.000704747
0.000758693
-0.000737444
0.000803696
-0.000766724
0.000853796
-0.000792744
0.000907803
-0.000815836
0.000964671
-0.000836448
0.0010235
-0.000855128
0.00108353
-0.000872514
0.0011442
-0.000889318
0.00120511
-0.000906286
0.00126601
-0.00092415
0.00132681
-0.000943588
-0.000965334
0.00138746
-0.000450961
0.000197359
-0.00100519
0.000203571
-0.00132579
7.56633e-05
-0.00146593
-7.57613e-05
-0.00151996
-0.000235717
-0.00153248
-0.000354062
-0.00153561
-0.000402608
-0.00156978
-0.000376986
-0.00167893
-0.000289768
-0.00189259
-0.000165225
-0.00220989
-3.26915e-05
-0.00259676
8.28231e-05
-0.00299504
0.000172574
-0.00334763
0.000245507
-0.00359321
0.000303464
-0.00371081
0.000365029
-0.00370964
0.000435549
-0.00362239
0.000499911
-0.00348399
0.000536102
-0.00332034
0.000524511
-0.00314918
0.000464049
-0.00298606
0.000377063
-0.00284535
0.000293438
-0.00273679
0.000231111
-0.00266192
0.000191942
-0.00261417
0.000170232
-0.00258066
0.000160242
-0.00254551
0.000158508
-0.00249344
0.000162922
-0.00241242
0.000171428
-0.00229488
0.000181427
-0.00213843
0.000190039
-0.00194579
0.000194569
-0.00172358
0.000192913
-0.00148018
0.000183677
-0.00122355
0.000166152
-0.000959498
0.000139739
-0.000689656
0.000102425
-0.000422086
6.28802e-05
-0.000161692
1.9816e-05
8.66163e-05
-2.52433e-05
0.000322327
-7.54092e-05
0.000544492
-0.000127805
0.000746945
-0.000180708
0.000926302
-0.000232235
0.00107999
-0.000280634
0.00120343
-0.000324475
0.00129243
-0.000362503
0.00134355
-0.000393699
0.00135516
-0.000417894
0.00132837
-0.000435557
0.00126766
-0.000447501
0.00118112
-0.000454759
0.00107986
-0.000458293
0.000976316
-0.000458837
0.000881853
-0.000457007
0.000804573
-0.000453838
0.000748372
-0.000451272
0.000713173
-0.000452029
0.000695986
-0.000458866
0.000692335
-0.000473743
0.000697733
-0.000497333
0.000708756
-0.000528925
0.000723436
-0.000566677
0.000741015
-0.000608101
0.000761433
-0.000650656
0.000784876
-0.000692231
0.000811524
-0.000731395
0.00084146
-0.000767379
0.00087465
-0.000799914
0.000910949
-0.000829043
0.000950101
-0.000854988
0.00099176
-0.000878107
0.00103551
-0.000898882
0.00108093
-0.000917933
0.00112761
-0.000935997
0.00117521
-0.000953889
0.00122348
-0.000972421
0.00127224
-0.000992343
-0.00101441
0.00132131
0.00020825
-1.08912e-05
0.000369011
4.28105e-05
0.000373836
7.08381e-05
0.000258795
3.9279e-05
6.48275e-05
-4.1749e-05
-0.000128349
-0.000160885
-0.00024234
-0.000288617
-0.000236208
-0.000383117
-0.000114639
-0.000411338
8.71368e-05
-0.000367001
0.00032432
-0.000269874
0.000557031
-0.000149888
0.000763022
-3.34173e-05
0.000943387
6.51425e-05
0.00109962
0.000147232
0.00124802
0.000216628
0.00140516
0.000278408
0.00157827
0.000326799
0.00176287
0.0003515
0.00194213
0.000345259
0.00209411
0.000312064
0.00220607
0.000265102
0.00228108
0.000218431
0.00233494
0.000177253
0.00238306
0.000143818
0.00243568
0.000117616
0.00249796
9.79642e-05
0.00257254
8.39232e-05
0.00266087
7.4595e-05
0.00276391
6.83874e-05
0.00288189
6.34492e-05
0.00301387
5.8051e-05
0.00315743
5.10129e-05
0.00330884
4.15005e-05
0.00346331
2.92053e-05
0.00361514
1.43235e-05
0.00375747
-2.58586e-06
0.0038809
-2.10114e-05
0.00398267
-3.88861e-05
0.00406032
-5.78373e-05
0.0041118
-7.67169e-05
0.00413237
-9.59872e-05
0.00411987
-0.0001153
0.00407299
-0.000133829
0.00399122
-0.000150464
0.00387472
-0.000164136
0.00372379
-0.000173545
0.00354027
-0.000178981
0.00332738
-0.000180814
0.00309051
-0.000181026
0.00283693
-0.000181972
0.0025767
-0.000187267
0.0023206
-0.000198662
0.00207925
-0.000216943
0.00186147
-0.000241058
0.00167275
-0.000268288
0.00151447
-0.000295559
0.00138436
-0.000321164
0.00127799
-0.000345651
0.00119054
-0.000371422
0.0011182
-0.000401398
0.00105849
-0.000437625
0.00101
-0.00048044
0.000971799
-0.00052847
0.000942998
-0.0005793
0.00092269
-0.000630347
0.00091001
-0.000679551
0.000904256
-0.000725641
0.000904927
-0.00076805
0.000911675
-0.000806663
0.000924216
-0.000841584
0.000942237
-0.000873009
0.000965337
-0.000901207
0.000993007
-0.000926551
0.00102464
-0.00094957
0.0010596
-0.00097095
0.00109721
-0.000991504
0.00113688
-0.00101209
0.00117807
-0.00103353
-0.0010567
0.00122037
2.74882e-05
-3.83797e-05
6.52497e-05
5.04899e-06
0.000112677
2.34108e-05
0.000170264
-1.83082e-05
0.000221072
-9.25568e-05
0.000267097
-0.00020691
0.000331945
-0.000353465
0.000455526
-0.000506699
0.000680658
-0.000636469
0.00103601
-0.000722352
0.00152416
-0.000758021
0.00212137
-0.000747099
0.00278575
-0.000697802
0.00346612
-0.000615225
0.00412213
-0.000508782
0.00471873
-0.000379975
0.00522353
-0.00022639
0.00559093
-4.05989e-05
0.00575517
0.000187265
0.00567459
0.00042584
0.00538261
0.000604035
0.00499093
0.000656781
0.00461263
0.000596738
0.00430563
0.000484249
0.00407219
0.000377257
0.00389938
0.000290422
0.00376816
0.000229192
0.00366636
0.000185722
0.00358643
0.000154522
0.00352293
0.000131893
0.00347122
0.000115158
0.00342681
0.000102459
0.00338497
9.28499e-05
0.0033408
8.56742e-05
0.00328942
8.05806e-05
0.00322625
7.75009e-05
0.00314711
7.65472e-05
0.00305236
7.3746e-05
0.00293823
7.52403e-05
0.00280399
7.64025e-05
0.00265059
7.66836e-05
0.00247954
7.50625e-05
0.00229379
7.04459e-05
0.00209769
6.22721e-05
0.00189681
5.0424e-05
0.00169758
3.50856e-05
0.00150752
1.65163e-05
0.00133354
-5.00261e-06
0.00118219
-2.94644e-05
0.00105944
-5.82692e-05
0.0009632
-8.57339e-05
0.000893356
-0.000117424
0.000845457
-0.000150763
0.000813194
-0.00018468
0.000790134
-0.000217998
0.000771561
-0.000249714
0.000755527
-0.000279525
0.000742577
-0.000308214
0.000734491
-0.000337566
0.000732815
-0.000369746
0.000737837
-0.00040642
0.000748323
-0.000448111
0.000761924
-0.00049404
0.000776025
-0.000542571
0.000788591
-0.000591866
0.000798667
-0.000640422
0.000806419
-0.000687303
0.000812851
-0.000732073
0.000819394
-0.000774593
0.000827545
-0.000814815
0.00083861
-0.00085265
0.000853552
-0.000887951
0.000872922
-0.000920578
0.000896865
-0.000950494
0.000925166
-0.000977869
0.000957339
-0.00100312
0.00099273
-0.00102689
0.00103061
-0.00104997
0.00107027
-0.00107319
-0.00109753
0.0011111
-2.09055e-05
-1.74743e-05
0.00023623
-0.000252087
0.000767902
-0.000508261
0.00133437
-0.000584777
0.00174815
-0.000506336
0.00192545
-0.000384204
0.0018434
-0.000271424
0.00151175
-0.00017504
0.000965366
-9.00892e-05
0.000258201
-1.51875e-05
-0.00054538
4.55601e-05
-0.00137795
8.54681e-05
-0.00218221
0.000106465
-0.00290335
0.000105914
-0.00351203
9.98943e-05
-0.00398338
9.13795e-05
-0.00430298
9.32058e-05
-0.00447333
0.000129752
-0.00451443
0.000228366
-0.00446647
0.000377879
-0.00436358
0.000501145
-0.00422438
0.000517583
-0.0040555
0.000427858
-0.00386929
0.000298034
-0.00367652
0.000184495
-0.00349066
0.000104555
-0.00331182
5.03533e-05
-0.00314837
2.22737e-05
-0.00299834
4.49389e-06
-0.00285989
-6.5639e-06
-0.00273214
-1.25864e-05
-0.00261302
-1.66609e-05
-0.00250123
-1.89444e-05
-0.00239544
-2.01109e-05
-0.00229437
-2.04935e-05
-0.00219646
-2.04039e-05
-0.0021003
-1.96147e-05
-0.00200813
-1.84276e-05
-0.00191567
-1.72129e-05
-0.00182276
-1.65141e-05
-0.00172912
-1.69518e-05
-0.00163483
-1.9229e-05
-0.00154031
-2.40714e-05
-0.001446
-3.20387e-05
-0.00135231
-4.32682e-05
-0.00125963
-5.7595e-05
-0.00116818
-7.49322e-05
-0.00107785
-9.53345e-05
-0.000988545
-0.00011877
-0.000901745
-0.000145069
-0.000813644
-0.000173836
-0.000726268
-0.0002048
-0.000639502
-0.000237529
-0.00055263
-0.000271551
-0.000464245
-0.000306383
-0.000372383
-0.000341577
-0.000275112
-0.000376796
-0.000171425
-0.000411901
-6.20284e-05
-0.000446963
5.04032e-05
-0.000482178
0.000161693
-0.00051771
0.000267113
-0.000553532
0.000362537
-0.000589464
0.000445238
-0.000625272
0.000514194
-0.000660822
0.000569918
-0.000696146
0.000614042
-0.000731427
0.000648866
-0.000766896
0.000676975
-0.000802703
0.00070096
-0.0008388
0.00072319
-0.000874879
0.000745639
-0.0009104
0.000769771
-0.00094471
0.000796493
-0.000977216
0.00082619
-0.00100757
0.000858817
-0.00103575
0.000894019
-0.0010621
0.000931253
-0.00108721
0.000969891
-0.00111183
-0.00113693
0.00100929
6.47602e-05
-8.22345e-05
-2.41766e-05
-0.00016315
-0.000411391
-0.000121047
-0.00106066
6.44878e-05
-0.00187031
0.00030332
-0.00273565
0.000481135
-0.00356945
0.000562375
-0.00431877
0.000574282
-0.0049694
0.000560534
-0.00553488
0.000550297
-0.0060326
0.000543278
-0.00647653
0.000529402
-0.00686983
0.000499764
-0.00721477
0.000450847
-0.00750133
0.000386459
-0.00772331
0.000313363
-0.00786889
0.000238785
-0.00790985
0.00017071
-0.00779671
0.000115228
-0.00749028
7.14443e-05
-0.00701748
2.83475e-05
-0.00647625
-2.36452e-05
-0.00596746
-8.0931e-05
-0.00553734
-0.000132088
-0.00518007
-0.00017278
-0.00488326
-0.000192253
-0.00463128
-0.000201629
-0.00440334
-0.000205662
-0.00419229
-0.000206556
-0.00399231
-0.000206546
-0.00379829
-0.000206607
-0.00360844
-0.00020651
-0.00342204
-0.000205348
-0.00323981
-0.000202342
-0.00306328
-0.000197015
-0.00289439
-0.000189304
-0.00273435
-0.000179645
-0.00258375
-0.000169029
-0.00244216
-0.000158806
-0.00230833
-0.000150342
-0.00218052
-0.000144767
-0.00205686
-0.000142886
-0.00193574
-0.000145194
-0.00181584
-0.000151932
-0.00169597
-0.000163146
-0.00157484
-0.000178718
-0.00145139
-0.000198389
-0.00132494
-0.000221778
-0.00119532
-0.000248389
-0.00106276
-0.000277633
-0.000927708
-0.000308889
-0.000791002
-0.000341506
-0.000653676
-0.000374855
-0.000516883
-0.000408343
-0.000381824
-0.000441443
-0.000249685
-0.000473716
-0.000121643
-0.000504838
1.05937e-06
-0.000534603
0.000117016
-0.00056292
0.000224628
-0.000589789
0.000322214
-0.000615296
0.000408293
-0.000639611
0.000481842
-0.000663012
0.000542489
-0.000685919
0.000590577
-0.000708909
0.000627133
-0.000732703
0.000653799
-0.000758093
0.000672706
-0.000785804
0.000686301
-0.000816299
0.00069711
-0.00084961
0.00070747
-0.00088524
0.000719296
-0.000922226
0.000733933
-0.000959346
0.000752121
-0.000995403
0.00077406
-0.0010295
0.000799533
-0.00106122
0.000828053
-0.00109062
0.000858983
-0.00111814
0.000891629
-0.00114447
-0.00117053
0.000925226
-0.000161982
7.97479e-05
-0.000634913
0.000309781
-0.00135591
0.000599954
-0.00213877
0.000847345
-0.00283079
0.00099534
-0.00338712
0.00103747
-0.00380625
0.000981498
-0.00408904
0.000857077
-0.00423459
0.000706077
-0.00424833
0.000564037
-0.00415437
0.00044932
-0.00398895
0.000363987
-0.00379143
0.000302244
-0.00359648
0.000255892
-0.00342746
0.000217446
-0.00329465
0.000180549
-0.00319666
0.000140793
-0.00312161
9.56599e-05
-0.00305063
4.42532e-05
-0.00296638
-1.28124e-05
-0.00286479
-7.32405e-05
-0.00275591
-0.000132527
-0.00265262
-0.000184218
-0.00256211
-0.000222597
-0.00249473
-0.000240156
-0.00244768
-0.000239307
-0.00242632
-0.000222989
-0.00243284
-0.000199145
-0.00246053
-0.000178861
-0.00249864
-0.000168441
-0.00253461
-0.000170633
-0.00255647
-0.000184652
-0.00255506
-0.000206752
-0.00252576
-0.000231644
-0.00246902
-0.000253756
-0.00238988
-0.000268444
-0.00229619
-0.000273338
-0.00219619
-0.000269028
-0.0020963
-0.000258697
-0.00199997
-0.000246671