/*--------------------------------*- C++ -*----------------------------------*\
| =========                 |                                                 |
| \\      /  F ield         | OpenFOAM: The Open Source CFD Toolbox           |
|  \\    /   O peration     | Version:  2012                                  |
|   \\  /    A nd           | Website:  www.openfoam.com                      |
|    \\/     M anipulation  |                                                 |
\*---------------------------------------------------------------------------*/
FoamFile
{
    version     2.0;
    format      ascii;
    class       volVectorField;
    location    "0.35";
    object      U;
}
// * * * * * * * * * * * * * * * * * * * * * * * * * * * * * * * * * * * * * //

dimensions      [0 1 -1 0 0 0 0];


internalField   nonuniform List<vector> 
42400
(
(10.7165 -7.55268 -5.91875e-17)
(20.7094 -13.2771 -8.4504e-17)
(21.2236 -9.92118 8.65868e-17)
(19.02 -4.05379 0)
(16.4029 1.205 0)
(12.6624 7.03473 -2.6577e-19)
(7.59852 13.3726 0)
(2.17071 19.4082 1.79809e-19)
(-1.71554 23.9532 0)
(-2.31259 26.0528 8.01946e-20)
(0.861171 25.6499 4.16878e-20)
(6.83314 23.5392 -1.45981e-20)
(14.0411 20.8617 3.73228e-17)
(21.2576 18.4795 -3.80449e-17)
(27.8409 16.7227 1.23475e-20)
(33.6171 15.4945 0)
(38.6361 14.5116 0)
(42.8456 13.59 0)
(45.8791 12.8742 0)
(47.1856 12.8054 0)
(46.4504 13.8274 0)
(43.8403 16.0561 -1.13259e-19)
(39.8539 19.1805 -4.63865e-18)
(35.1147 22.7031 -7.30635e-19)
(30.1191 26.1614 5.26225e-18)
(25.1966 29.2063 -1.30369e-19)
(20.5714 31.6095 -1.2417e-19)
(16.371 33.2243 2.32311e-19)
(12.6842 33.9679 0)
(9.48149 33.9304 0)
(6.71386 33.1829 4.32615e-18)
(4.33063 31.8317 -4.37204e-18)
(2.27352 30.0199 1.45552e-19)
(0.478604 27.8948 -3.36658e-18)
(-1.12565 25.6166 3.2769e-18)
(-2.57768 23.3543 0)
(-3.86612 21.2234 0)
(-4.90978 19.242 0)
(-5.5604 17.3463 0)
(-5.64497 15.3872 -1.78868e-18)
(-5.04397 13.1974 1.79456e-18)
(-3.72039 10.6451 -1.10266e-18)
(-1.86075 7.76978 4.20279e-19)
(0.198181 4.82854 1.1929e-18)
(2.09007 2.18904 -4.42651e-19)
(3.49638 0.103054 7.58718e-20)
(4.27281 -1.35087 -5.82399e-20)
(4.48256 -2.22942 -4.36403e-20)
(4.29892 -2.67371 5.27181e-21)
(3.9027 -2.84108 4.02756e-19)
(3.42957 -2.85596 -9.2249e-19)
(2.95957 -2.79684 -1.66179e-19)
(2.53012 -2.70474 6.97237e-19)
(2.15349 -2.59769 -8.21783e-20)
(1.82948 -2.48176 0)
(1.55299 -2.35794 0)
(1.31768 -2.22544 0)
(1.11741 -2.08328 1.2319e-19)
(0.946707 -1.93079 1.28524e-19)
(0.801005 -1.76777 0)
(0.676618 -1.59442 2.28275e-18)
(0.570725 -1.4112 -2.37952e-18)
(0.481196 -1.21871 -2.2619e-18)
(0.406517 -1.01777 2.21948e-18)
(0.345782 -0.809359 0)
(0.298574 -0.594391 0)
(0.265104 -0.374084 -2.06979e-18)
(0.245544 -0.149466 2.02321e-18)
(0.240562 0.0781975 2.34749e-19)
(0.251032 0.307403 0)
(0.277796 0.536372 0)
(0.321998 0.763628 2.0896e-19)
(0.38483 0.987549 2.00368e-19)
(0.466948 1.20629 0)
(0.568929 1.4185 1.8384e-19)
(0.691177 1.62353 1.4371e-18)
(0.834066 1.82194 -1.39384e-18)
(0.998438 2.01664 -3.23121e-19)
(1.18102 2.20789 -1.26252e-18)
(1.34827 2.35582 -1.19888e-18)
(-7.92824 3.92627 0)
(-25.0657 12.6305 1.64353e-16)
(-39.7804 20.8042 -1.68619e-16)
(-52.2694 25.1837 0)
(-59.6433 28.7329 0)
(-63.2268 29.9533 1.34435e-16)
(-62.8461 28.7486 -1.37277e-16)
(-57.6714 24.6042 -1.80783e-19)
(-46.8037 17.2501 0)
(-31.2036 7.48439 -8.09521e-20)
(-14.2489 -2.78787 -4.21941e-20)
(0.487569 -11.394 -4.43445e-17)
(11.484 -17.0167 1.01523e-17)
(18.692 -19.552 3.71616e-17)
(22.4097 -19.6607 2.43949e-17)
(23.1981 -18.0995 -2.41262e-17)
(21.9678 -15.6293 0)
(19.7205 -12.9075 6.374e-19)
(17.1817 -10.4184 0)
(14.7758 -8.39094 0)
(12.6543 -6.77653 0)
(10.7932 -5.32353 -1.21888e-17)
(9.06095 -3.7498 4.39801e-19)
(7.3235 -1.8516 1.27678e-17)
(5.51697 0.450234 0)
(3.69439 3.08575 -5.73719e-20)
(1.94885 5.8299 1.26135e-19)
(0.390238 8.39438 -2.354e-19)
(-0.906882 10.5024 -8.39921e-18)
(-1.89822 11.9895 8.4818e-18)
(-2.57806 12.822 -2.22685e-20)
(-2.96514 13.0915 -1.14617e-21)
(-3.09867 12.9602 -5.25686e-18)
(-3.04655 12.5797 5.14052e-18)
(-2.86695 12.0753 4.12577e-18)
(-2.5847 11.5409 -4.02617e-18)
(-2.19831 11.0275 0)
(-1.68776 10.541 -7.88194e-23)
(-1.0182 10.045 0)
(-0.157856 9.46999 1.35522e-20)
(0.889731 8.74279 -1.9772e-18)
(2.06101 7.82091 1.99902e-18)
(3.20226 6.74481 -7.89859e-20)
(4.09416 5.61021 6.22192e-20)
(4.56265 4.48742 -3.46369e-20)
(4.58426 3.4194 3.64832e-20)
(4.27164 2.43262 -2.58561e-20)
(3.78451 1.53495 -4.76868e-19)
(3.25673 0.730801 4.85598e-19)
(2.7619 0.0255115 0)
(2.32643 -0.576096 2.29388e-20)
(1.95686 -1.07095 4.92365e-20)
(1.65054 -1.46193 3.87425e-19)
(1.40088 -1.75717 -3.6802e-19)
(1.20041 -1.96656 -9.74155e-20)
(1.04142 -2.10021 1.50793e-18)
(0.917482 -2.16709 -1.7093e-18)
(0.822905 -2.1755 -1.23237e-19)
(0.752795 -2.13294 -1.28573e-19)
(0.703108 -2.0461 2.03198e-18)
(0.670604 -1.92092 -1.99975e-18)
(0.652774 -1.76277 1.35181e-19)
(0.647773 -1.57651 1.27973e-19)
(0.654319 -1.36661 0)
(0.671637 -1.13719 -1.7679e-18)
(0.699377 -0.892121 2.26889e-21)
(0.737563 -0.635048 2.16637e-18)
(0.786495 -0.369406 0)
(0.846739 -0.0984438 -4.56507e-19)
(0.919099 0.174807 2.13861e-19)
(1.00471 0.447681 1.67091e-18)
(1.10438 0.717461 -1.83615e-18)
(1.219 0.981423 -1.74173e-18)
(1.34978 1.23751 1.68068e-18)
(1.49769 1.48386 -3.58308e-19)
(1.66367 1.71895 1.36131e-18)
(1.84861 1.94172 -9.98778e-19)
(2.05421 2.15223 3.22889e-19)
(2.28458 2.3533 -1.50557e-18)
(2.47626 2.49821 1.18085e-18)
(-7.30997 5.76538 -3.62547e-18)
(-1.39133 7.34391 -5.92798e-20)
(18.0722 -7.0067 3.7304e-19)
(41.107 -15.9357 -4.54109e-20)
(54.9148 -20.1039 0)
(63.4805 -19.2718 -6.28947e-17)
(67.954 -15.9062 1.36545e-16)
(69.8281 -12.1989 -7.38119e-17)
(70.4546 -9.44353 8.56211e-17)
(70.2912 -7.75185 2.05106e-18)
(68.9651 -6.49213 -9.12277e-17)
(65.8999 -4.84602 -5.56082e-19)
(60.809 -2.2779 -5.1492e-19)
(53.946 1.20544 8.61352e-17)
(46.0383 4.94597 -8.77697e-17)
(38.1045 8.0822 -7.37146e-19)
(30.9198 9.7571 -6.69008e-17)
(24.854 9.73707 8.12945e-18)
(19.7656 8.20455 6.0107e-17)
(15.4303 5.63224 9.3038e-20)
(11.627 2.42941 -8.87761e-20)
(8.2714 -1.0238 -8.28707e-20)
(5.32146 -4.39502 0)
(2.72018 -7.36923 -2.2202e-19)
(0.343691 -9.63629 1.54037e-17)
(-2.00735 -10.8671 -2.5281e-17)
(-4.52842 -10.7291 9.98221e-18)
(-7.32783 -9.10748 -3.51286e-19)
(-10.3104 -6.3327 3.56191e-19)
(-13.11 -3.08328 -4.97611e-18)
(-15.2433 -0.0607673 1.06403e-17)
(-16.4007 2.26412 3.60603e-19)
(-16.5483 3.76325 -6.23091e-18)
(-15.8638 4.57099 0)
(-14.6415 4.88988 0)
(-13.1555 4.90496 -8.44322e-21)
(-11.599 4.75265 0)
(-10.0816 4.51123 -9.7428e-20)
(-8.65144 4.2104 2.23241e-18)
(-7.32659 3.85021 -4.18111e-18)
(-6.12196 3.4217 1.77361e-18)
(-5.06224 2.92147 0)
(-4.1738 2.3602 0)
(-3.46685 1.75717 7.97838e-19)
(-2.92509 1.13597 -8.11524e-19)
(-2.50784 0.524514 -6.18064e-20)
(-2.16362 -0.0525184 0)
(-1.85571 -0.584924 0)
(-1.56692 -1.06825 6.58842e-19)
(-1.29154 -1.49642 -6.55724e-19)
(-1.03216 -1.86752 -2.29936e-20)
(-0.792589 -2.18283 0)
(-0.574721 -2.44333 -9.61135e-19)
(-0.378456 -2.64949 8.32256e-19)
(-0.202004 -2.80173 -1.76165e-18)
(-0.0434991 -2.90166 1.81451e-18)
(0.0994599 -2.95166 -1.87813e-18)
(0.229314 -2.95452 4.00288e-18)
(0.34849 -2.91324 -4.07353e-18)
(0.459298 -2.83088 -4.46566e-20)
(0.563902 -2.71057 2.04612e-18)
(0.66431 -2.55546 2.0651e-18)
(0.762383 -2.36869 -2.15617e-18)
(0.85985 -2.15343 0)
(0.958333 -1.9129 1.71092e-18)
(1.05937 -1.65037 -1.05383e-20)
(1.16446 -1.36921 -2.3373e-18)
(1.27502 -1.07282 0)
(1.39246 -0.76468 4.3908e-19)
(1.51817 -0.448287 1.45005e-18)
(1.65348 -0.127215 -1.42138e-18)
(1.79963 0.194996 0)
(1.95772 0.515026 0)
(2.12882 0.829711 -1.81993e-19)
(2.31384 1.13607 1.74543e-19)
(2.51344 1.43132 9.79788e-19)
(2.72798 1.7129 -1.58644e-18)
(2.95766 1.9787 0)
(3.20867 2.23312 2.96832e-19)
(3.42414 2.45616 1.12687e-18)
(-4.25616 3.04842 2.93435e-17)
(-0.701091 -2.11221 -4.68311e-17)
(16.5969 -16.3741 2.48405e-17)
(31.2585 -33.6939 3.02878e-17)
(35.6115 -43.5271 -3.13457e-17)
(29.3703 -46.1823 0)
(16.905 -43.3036 8.38204e-17)
(5.51128 -39.7045 -8.48614e-17)
(0.712627 -39.4872 9.17256e-17)
(3.76846 -43.1974 -9.36545e-17)
(12.8461 -48.9835 9.1771e-17)
(24.2752 -54.5611 -1.84188e-16)
(33.8842 -57.7013 1.75872e-16)
(38.2103 -56.5399 -1.64817e-16)
(35.4972 -50.3363 1.50778e-16)
(26.4824 -39.8143 -7.24307e-17)
(13.8687 -27.0749 -5.42972e-17)
(0.897148 -14.4485 1.02481e-16)
(-10.2416 -3.72055 -4.78199e-17)
(-18.517 4.25268 -9.41665e-20)
(-23.7173 9.22948 8.25914e-19)
(-26.0822 11.4486 -2.33317e-17)
(-26.156 11.414 2.31458e-17)
(-24.6184 9.726 -5.88253e-20)
(-22.1625 6.99505 0)
(-19.4296 3.81157 -7.46277e-21)
(-16.9294 0.717955 0)
(-14.9553 -1.85314 8.3042e-18)
(-13.5642 -3.65787 -9.62929e-19)
(-12.6278 -4.66483 -7.65344e-18)
(-11.9398 -5.00286 -6.31588e-18)
(-11.3315 -4.87381 6.18644e-18)
(-10.7189 -4.46798 -5.39283e-20)
(-10.0811 -3.9238 -1.87844e-19)
(-9.43603 -3.32853 -4.20427e-18)
(-8.8116 -2.73721 4.35877e-18)
(-8.22368 -2.18734 0)
(-7.6714 -1.70829 3.11866e-18)
(-7.14456 -1.32614 -3.03545e-18)
(-6.6326 -1.06074 1.4088e-19)
(-6.13006 -0.921198 -1.26375e-19)
(-5.63734 -0.904081 0)
(-5.15806 -0.994894 0)
(-4.69543 -1.17207 0)
(-4.25094 -1.41137 -9.53529e-20)
(-3.82394 -1.68901 1.32887e-18)
(-3.40978 -1.98352 -1.26458e-18)
(-3.00312 -2.27684 0)
(-2.60531 -2.55992 0)
(-2.22106 -2.82977 1.12562e-18)
(-1.85153 -3.07741 -1.03496e-18)
(-1.49615 -3.29204 1.13308e-18)
(-1.1565 -3.46737 -8.36235e-19)
(-0.834885 -3.60034 1.65289e-19)
(-0.533287 -3.69009 -9.93895e-19)
(-0.252923 -3.73736 1.2764e-18)
(0.00582909 -3.74402 -2.32126e-18)
(0.243469 -3.71261 2.1335e-18)
(0.461309 -3.64586 0)
(0.661297 -3.54645 -1.51447e-19)
(0.845788 -3.41676 -2.22302e-18)
(1.01733 -3.25889 1.52089e-19)
(1.17851 -3.07465 4.4014e-18)
(1.3318 -2.86575 -4.01406e-18)
(1.47959 -2.63386 1.76375e-18)
(1.62407 -2.38076 1.93431e-18)
(1.76734 -2.10837 -1.41773e-18)
(1.91133 -1.81886 -2.3093e-19)
(2.05789 -1.51461 -1.71887e-18)
(2.20872 -1.19825 1.6806e-18)
(2.36549 -0.872634 -4.02737e-19)
(2.52966 -0.540746 -1.70993e-18)
(2.70257 -0.205686 1.47561e-18)
(2.88539 0.129382 0)
(3.0791 0.461315 -1.33388e-18)
(3.28443 0.787071 3.39568e-19)
(3.50175 1.10377 2.7802e-18)
(3.73115 1.40889 -1.19092e-18)
(3.97583 1.70335 1.13792e-18)
(4.20291 2.0014 -1.10651e-18)
(4.76031 -1.96904 5.72839e-17)
(5.1312 6.15467 0)
(-7.89495 13.9378 0)
(-20.0796 27.2679 5.23441e-19)
(-32.4267 34.8496 0)
(-38.8565 38.3418 0)
(-35.3198 35.0952 0)
(-20.6512 24.9277 -6.86728e-19)
(1.04393 10.0711 0)
(22.94 -5.89746 -7.19931e-20)
(39.0962 -19.1807 8.59747e-17)
(46.5347 -27.8269 -1.69354e-16)
(45.8051 -32.1004 8.45837e-17)
(39.5928 -33.1481 0)
(30.9492 -32.0574 -6.12515e-19)
(22.1199 -29.9666 4.70115e-19)
(14.3503 -27.7322 0)
(8.22037 -25.5514 7.33002e-17)
(3.7989 -23.2908 -1.44474e-16)
(0.804701 -21.0389 5.06539e-18)
(-1.10644 -18.931 6.59166e-17)
(-2.22789 -17.0193 6.60902e-19)
(-2.83651 -15.3763 0)
(-3.17501 -14.063 -4.70162e-17)
(-3.3872 -13.1064 4.7948e-17)
(-3.52774 -12.4703 -3.72739e-17)
(-3.61356 -12.0723 3.78276e-17)
(-3.65175 -11.7847 2.75793e-17)
(-3.65969 -11.4334 -2.75852e-17)
(-3.6784 -10.8232 0)
(-3.76146 -9.82223 -1.42174e-17)
(-3.93769 -8.43264 1.43553e-17)
(-4.18109 -6.81699 2.31979e-19)
(-4.42591 -5.23028 -6.00867e-18)
(-4.62419 -3.91971 6.24651e-18)
(-4.77243 -2.99042 -1.15731e-19)
(-4.90412 -2.42407 -1.38553e-20)
(-5.05263 -2.13865 -2.39209e-18)
(-5.21917 -2.04054 2.40531e-18)
(-5.37384 -2.0604 1.86514e-18)
(-5.47796 -2.15756 3.75148e-21)
(-5.50276 -2.3099 -1.86292e-18)
(-5.43491 -2.50417 0)
(-5.27275 -2.7304 9.4998e-20)
(-5.02148 -2.97927 -1.43747e-18)
(-4.6903 -3.24089 3.3637e-18)
(-4.29093 -3.50465 -3.23973e-18)
(-3.83719 -3.76063 1.5011e-18)
(-3.34351 -3.9985 0)
(-2.82217 -4.20381 1.13296e-19)
(-2.28855 -4.36772 -1.53972e-18)
(-1.75898 -4.48726 1.55709e-18)
(-1.24653 -4.55988 5.14878e-20)
(-0.761643 -4.58519 -1.44966e-18)
(-0.312052 -4.56553 1.11102e-18)
(0.0975618 -4.50546 -1.43435e-18)
(0.465596 -4.41095 -1.57543e-18)
(0.793228 -4.28838 2.9196e-18)
(1.08381 -4.14362 -2.64607e-18)
(1.34208 -3.98128 2.75773e-18)
(1.57331 -3.80444 0)
(1.78269 -3.6147 -1.43738e-19)
(1.97488 -3.41253 -2.29331e-18)
(2.15381 -3.19775 1.98194e-18)
(2.32273 -2.97 5.41296e-19)
(2.48431 -2.72901 0)
(2.6408 -2.47485 1.96731e-18)
(2.79417 -2.20798 -1.67719e-18)
(2.9462 -1.92928 -2.21145e-19)
(3.0985 -1.64013 -2.20849e-19)
(3.25261 -1.34221 4.12488e-19)
(3.41009 -1.03741 -6.8454e-21)
(3.57232 -0.728012 -1.6703e-18)
(3.74059 -0.416458 1.43842e-18)
(3.9161 -0.10528 -1.73506e-19)
(4.09983 0.202972 0)
(4.29256 0.505824 -1.5514e-18)
(4.49482 0.801005 1.20275e-18)
(4.70798 1.08782 0)
(4.92043 1.39011 -1.10895e-18)
(7.6592 -7.03513 2.40689e-19)
(5.939 -7.5451 4.93371e-17)
(-10.7245 0.503645 -4.86214e-17)
(-21.4517 8.2361 9.71287e-17)
(-21.6037 11.4388 -4.9001e-17)
(-16.6249 13.5423 -7.96628e-19)
(-10.0202 15.8985 -4.32608e-17)
(-4.87047 19.7436 4.48495e-17)
(-3.11037 25.4378 6.74354e-19)
(-4.14937 31.7058 6.99513e-19)
(-6.33186 37.1881 3.34639e-17)
(-8.60018 41.555 2.8519e-17)
(-10.5918 45.0585 -6.37354e-17)
(-12.357 48.0997 5.59201e-17)
(-14.1265 51.1144 -1.08283e-16)
(-16.0042 54.2545 5.3706e-17)
(-17.9283 57.4925 0)
(-19.7852 60.7068 0)
(-21.4752 63.7968 -4.10549e-17)
(-22.9246 66.6323 3.43872e-18)
(-24.0956 69.1031 3.87682e-17)
(-24.9533 71.1214 -3.35768e-17)
(-25.3522 72.5149 6.56219e-17)
(-25.0395 73.0183 -3.21419e-17)
(-23.7668 72.3182 -2.74508e-17)
(-21.4238 70.1299 2.66604e-18)
(-18.117 66.1929 2.53889e-17)
(-14.1175 60.2503 -1.81256e-19)
(-9.74004 52.2388 1.41918e-19)
(-5.3242 42.7391 -2.2131e-19)
(-1.33984 33.046 0)
(1.61315 24.5687 -9.66447e-18)
(3.0223 18.1256 1.74118e-17)
(2.77049 13.7586 -7.67854e-18)
(1.23349 10.996 0)
(-0.968532 9.22004 2.83069e-18)
(-3.20414 7.8898 -2.84843e-18)
(-5.03498 6.64353 0)
(-6.27868 5.32842 0)
(-6.96191 3.94262 -1.20197e-19)
(-7.21304 2.55335 1.50223e-19)
(-7.16765 1.23071 -4.77319e-20)
(-6.92293 0.0195483 0)
(-6.53521 -1.06146 1.39376e-18)
(-6.03559 -2.00907 9.08448e-20)
(-5.44391 -2.82608 -1.78589e-18)
(-4.77898 -3.51629 -1.59501e-19)
(-4.06118 -4.08409 2.72427e-19)
(-3.31067 -4.538 0)
(-2.54831 -4.88478 -2.15355e-18)
(-1.79389 -5.127 4.09279e-18)
(-1.06649 -5.26824 -2.15827e-18)
(-0.384026 -5.31521 -2.18005e-19)
(0.238721 -5.27744 -2.09127e-18)
(0.791585 -5.1673 2.54392e-19)
(1.26989 -4.99974 3.5335e-18)
(1.67485 -4.79124 -1.29295e-18)
(2.01295 -4.55811 0)
(2.29455 -4.31458 0)
(2.53187 -4.07108 1.98929e-19)
(2.73694 -3.83346 1.88752e-19)
(2.91996 -3.60324 0)
(3.08859 -3.37875 2.39296e-18)
(3.2479 -3.1566 -2.35141e-18)
(3.40086 -2.9331 -2.59047e-18)
(3.54906 -2.70511 -2.25224e-19)
(3.69334 -2.47051 1.89351e-18)
(3.83425 -2.22823 -1.98428e-18)
(3.97232 -1.97816 1.93761e-18)
(4.10818 -1.72093 -1.28817e-20)
(4.24258 -1.45767 1.49271e-18)
(4.37646 -1.18997 -1.45826e-18)
(4.51086 -0.919719 -1.35153e-18)
(4.64693 -0.648973 1.68919e-18)
(4.78586 -0.379896 -1.22897e-18)
(4.92882 -0.114655 1.36127e-18)
(5.07686 0.144644 -1.2818e-18)
(5.23083 0.395993 2.46999e-18)
(5.39209 0.639187 -1.12972e-20)
(5.56022 0.888382 -7.97116e-21)
(-9.07035 3.77715 -4.08651e-17)
(-7.26899 1.06982 -4.24555e-19)
(11.6259 -9.47884 5.92516e-17)
(39.0068 -24.9179 -1.17537e-16)
(66.2537 -38.7984 5.86761e-17)
(88.3095 -50.6593 -5.19137e-17)
(102.849 -59.7387 3.19246e-18)
(109.887 -65.9798 5.09698e-17)
(111.014 -69.6912 -4.47069e-17)
(108.378 -71.4097 4.43044e-17)
(103.764 -71.8092 -3.81897e-17)
(98.2541 -71.3872 3.89251e-17)
(92.3724 -70.4578 -3.24334e-17)
(86.318 -69.1709 3.25422e-17)
(80.1292 -67.5186 -4.32972e-19)
(73.8853 -65.5069 -3.99324e-19)
(67.7568 -63.2173 -4.34984e-17)
(61.9244 -60.7403 4.42386e-17)
(56.5384 -58.1207 6.15134e-19)
(51.5235 -55.283 3.12128e-19)
(46.6992 -52.098 -2.54598e-17)
(41.7759 -48.4975 2.6621e-17)
(36.4403 -44.3647 0)
(30.356 -39.496 -3.78328e-19)
(23.0415 -33.6225 0)
(13.7138 -26.3605 0)
(1.07897 -17.1787 -3.40619e-19)
(-14.8726 -5.98028 1.01739e-18)
(-30.551 5.22892 -6.72161e-19)
(-40.339 12.7041 2.44354e-18)
(-41.8765 14.5291 -2.25078e-18)
(-37.8617 12.4198 -1.31761e-19)
(-32.5022 9.25848 9.20286e-20)
(-28.1579 6.59177 0)
(-25.1546 4.6699 -2.40718e-19)
(-23.048 3.29311 0)
(-21.354 2.24964 0)
(-19.7817 1.38718 -1.88675e-19)
(-18.2054 0.612584 0)
(-16.5978 -0.121866 0)
(-14.9727 -0.83416 3.27146e-18)
(-13.351 -1.52583 -3.15208e-18)
(-11.7476 -2.19106 0)
(-10.1706 -2.82042 0)
(-8.62608 -3.40545 0)
(-7.11659 -3.93358 -2.68925e-19)
(-5.64628 -4.39012 1.59607e-19)
(-4.22981 -4.77977 2.97597e-18)
(-2.8866 -5.1044 -3.12315e-18)
(-1.63029 -5.34848 2.95476e-18)
(-0.474877 -5.49994 -3.3039e-18)
(0.563613 -5.55425 3.49397e-19)
(1.47052 -5.51124 1.87047e-19)
(2.235 -5.37623 0)
(2.85205 -5.16079 0)
(3.32483 -4.88288 -1.82748e-18)
(3.66662 -4.56581 -1.28048e-19)
(3.89951 -4.23446 1.96694e-18)
(4.05162 -3.91187 -1.76195e-18)
(4.15273 -3.61506 1.75933e-18)
(4.22944 -3.35235 2.94884e-18)
(4.30151 -3.12314 -1.18869e-19)
(4.38047 -2.92022 -5.53136e-18)
(4.47057 -2.73328 2.75126e-18)
(4.57105 -2.5522 1.64515e-19)
(4.67864 -2.36906 2.89821e-19)
(4.78954 -2.17893 2.2403e-18)
(4.90046 -1.97954 -4.30787e-18)
(5.00914 -1.77067 2.06841e-18)
(5.11422 -1.55339 2.33555e-19)
(5.21518 -1.32959 1.79635e-18)
(5.31214 -1.10159 -1.96982e-18)
(5.4057 -0.871895 0)
(5.49684 -0.643088 -1.89826e-19)
(5.58681 -0.417679 0)
(5.67704 -0.198027 1.39634e-18)
(5.76894 0.0137192 -2.12018e-20)
(5.86385 0.215757 -1.29204e-18)
(5.96364 0.4083 9.0823e-19)
(6.06967 0.592357 2.8781e-19)
(9.18978 -3.59066 -4.5954e-17)
(34.0506 -11.6738 6.91507e-17)
(54.4894 -22.4802 3.7489e-19)
(61.2294 -23.7459 6.31457e-17)
(49.7643 -19.471 -6.46457e-17)
(27.4341 -10.8185 5.67309e-17)
(1.71545 -2.22797 -1.10754e-16)
(-19.341 2.78934 5.42398e-17)
(-32.0028 3.01956 -4.71461e-17)
(-38.1368 -0.394396 4.82423e-17)
(-41.3246 -5.52748 0)
(-43.75 -11.0032 4.53433e-19)
(-46.2588 -16.2856 -4.6151e-19)
(-48.971 -21.3748 0)
(-51.5139 -26.489 0)
(-53.3118 -31.8171 0)
(-53.9512 -37.3253 0)
(-53.4291 -42.6451 3.69646e-19)
(-52.1196 -47.2111 0)
(-50.6604 -50.6028 -3.81157e-17)
(-49.4151 -52.6476 3.80799e-17)
(-48.4066 -53.4369 7.19471e-17)
(-47.386 -53.2205 -7.34401e-17)
(-46.0473 -52.2676 -6.43021e-17)
(-44.2698 -50.8326 6.60727e-17)
(-42.1092 -48.9167 -5.31821e-17)
(-39.7931 -46.2669 5.41407e-17)
(-37.245 -42.6164 -3.93888e-17)
(-34.0968 -38.1275 7.19344e-18)
(-30.1165 -33.4043 3.29397e-17)
(-25.7311 -28.9559 0)
(-21.7624 -24.9584 3.37902e-19)
(-18.7415 -21.4088 2.88127e-19)
(-16.6827 -18.2755 0)
(-15.3087 -15.5368 2.41361e-19)
(-14.3031 -13.1825 0)
(-13.4243 -11.2019 0)
(-12.5295 -9.5752 8.54673e-18)
(-11.553 -8.272 -1.58963e-17)
(-10.4776 -7.25358 7.72729e-18)
(-9.31024 -6.47727 6.52368e-18)
(-8.06714 -5.90037 -6.7278e-18)
(-6.76731 -5.48429 -1.81903e-19)
(-5.43029 -5.19598 0)
(-4.07736 -5.00991 5.81019e-18)
(-2.72762 -4.89755 -5.19136e-18)
(-1.4008 -4.8329 0)
(-0.104276 -4.78383 0)
(1.14617 -4.72357 -4.11501e-18)
(2.32092 -4.64242 4.63621e-18)
(3.38917 -4.53309 4.27018e-18)
(4.32262 -4.3859 -3.98463e-18)
(5.09486 -4.19424 -3.41782e-18)
(5.68514 -3.95599 6.15911e-18)
(6.08369 -3.67399 -2.92749e-18)
(6.29394 -3.36186 -6.13572e-19)
(6.33648 -3.04026 0)
(6.25042 -2.73076 2.68135e-19)
(6.08643 -2.45511 -1.69877e-18)
(5.89791 -2.2299 3.51164e-18)
(5.7306 -2.06144 -1.78699e-18)
(5.6143 -1.94408 0)
(5.55995 -1.86291 -1.84852e-19)
(5.56276 -1.79918 0)
(5.60883 -1.73566 -1.6435e-19)
(5.68187 -1.65993 -1.59985e-19)
(5.76769 -1.56517 -3.01888e-19)
(5.856 -1.44928 -2.22502e-18)
(5.94036 -1.31332 1.90396e-18)
(6.01733 -1.1602 -2.54194e-19)
(6.0855 -0.993619 -1.87536e-18)
(6.14481 -0.817561 2.27438e-18)
(6.19609 -0.635956 -1.68385e-18)
(6.24084 -0.452555 1.63726e-18)
(6.28101 -0.270817 -1.71496e-18)
(6.31883 -0.093813 1.29096e-18)
(6.35662 0.0758578 1.38027e-18)
(6.39665 0.236282 -1.3378e-18)
(6.44133 0.386898 3.1159e-19)
(6.4917 0.52271 -2.99683e-19)
(5.13768 -2.65367 2.05486e-17)
(-1.01021 2.74869 2.88013e-17)
(-19.8085 7.89302 -5.81342e-17)
(-30.6186 13.1294 5.60976e-17)
(-34.5139 13.6755 -2.7899e-17)
(-35.952 15.1881 -3.30045e-19)
(-36.9051 18.3454 2.39006e-17)
(-37.0846 22.555 -4.71094e-17)
(-35.8698 27.0964 1.75656e-18)
(-33.3878 31.4529 2.20341e-17)
(-30.4159 35.5227 1.20671e-19)
(-27.836 39.5424 -1.91243e-17)
(-26.5189 43.8806 1.94695e-17)
(-26.5919 48.582 -1.63412e-17)
(-27.349 53.0806 1.66605e-17)
(-27.5008 56.4181 1.26501e-17)
(-25.7898 57.6669 -1.28951e-17)
(-21.6685 56.298 -3.57102e-19)
(-15.6377 52.4262 0)
(-8.91381 46.7864 -3.56001e-18)
(-2.62614 40.4462 3.50602e-18)
(2.6644 34.2752 2.53771e-19)
(6.85309 28.719 1.40985e-18)
(9.999 23.8936 -1.69325e-18)
(12.1199 19.7731 -2.36773e-19)
(13.1653 16.3218 0)
(13.081 13.5732 -2.49822e-19)
(11.9036 11.5691 -5.92364e-19)
(9.80338 10.2607 -2.53877e-18)
(7.05528 9.46012 2.7959e-18)
(3.97623 8.91396 2.07786e-18)
(0.876918 8.41815 -2.25819e-18)
(-1.96774 7.86462 4.15178e-20)
(-4.34593 7.22432 -2.75311e-18)
(-6.13274 6.5214 5.37972e-18)
(-7.29973 5.79971 -2.933e-18)
(-7.89092 5.09674 -3.68509e-18)
(-7.9852 4.43855 3.97114e-18)
(-7.66971 3.8412 4.64432e-20)
(-7.02527 3.31142 -2.33536e-19)
(-6.12267 2.84869 1.89058e-19)
(-5.02332 2.44735 -5.40344e-18)
(-3.78149 2.09972 1.63556e-19)
(-2.4429 1.80325 5.42818e-18)
(-1.05032 1.5576 -5.59181e-18)
(0.363548 1.35808 5.24377e-18)
(1.75732 1.17946 0)
(3.09189 1.00733 4.89677e-18)
(4.33861 0.846211 -4.86157e-18)
(5.46801 0.699439 3.75836e-18)
(6.44694 0.567608 -5.21383e-19)
(7.24205 0.453059 -2.71871e-19)
(7.82234 0.35928 -2.57512e-19)
(8.16397 0.28905 -2.37225e-19)
(8.25836 0.241721 -2.84227e-18)
(8.12043 0.211102 1.66117e-19)
(7.79187 0.186756 0)
(7.34055 0.156289 -2.32401e-18)
(6.85251 0.107883 1.78146e-18)
(6.41463 0.0321665 0)
(6.0929 -0.0748567 -1.88858e-18)
(5.91642 -0.208589 1.45163e-18)
(5.87627 -0.355592 0)
(5.93843 -0.49758 -1.77595e-19)
(6.06119 -0.617168 0)
(6.2082 -0.70209 -2.36312e-18)
(6.35402 -0.746559 5.00621e-18)
(6.48406 -0.750366 -2.33313e-18)
(6.59179 -0.717027 2.68872e-19)
(6.67575 -0.651986 2.5407e-19)
(6.73718 -0.561341 -1.91718e-18)
(6.77869 -0.451153 1.63992e-18)
(6.80355 -0.327138 -2.19374e-19)
(6.81542 -0.194561 -2.08507e-19)
(6.81823 -0.0581736 3.92799e-19)
(6.81602 0.0778711 1.84992e-19)
(6.81271 0.210121 1.59605e-18)
(6.81189 0.335965 -2.18814e-20)
(6.81678 0.453802 -1.47184e-18)
(6.82974 0.559692 -3.13818e-19)
(2.44739 -2.94108 0)
(7.70591 -8.08981 1.13921e-19)
(11.0644 -11.8265 1.31353e-19)
(17.5585 -16.4482 5.62631e-17)
(27.9246 -21.2983 -1.11948e-16)
(36.7681 -25.1674 1.07604e-16)
(42.1407 -27.3445 -5.29676e-17)
(44.3351 -28.2627 0)
(44.3256 -28.5547 -1.69913e-19)
(42.873 -28.7057 3.74225e-17)
(40.3929 -28.9661 -3.82846e-17)
(37.0799 -29.357 -2.8056e-17)
(32.6702 -29.5397 5.17171e-17)
(26.9007 -29.0056 -5.65945e-18)
(19.6916 -27.3543 -5.8398e-18)
(11.4301 -24.5574 -1.22339e-17)
(2.83697 -21.0331 -5.23866e-20)
(-4.94736 -17.3408 -3.85284e-18)
(-10.4628 -14.1072 3.90146e-18)
(-12.576 -11.9356 1.13316e-19)
(-11.3958 -11.0699 8.54848e-20)
(-8.38116 -11.2344 -5.03965e-20)
(-5.30447 -11.7987 -1.5197e-17)
(-3.16813 -12.2044 7.47113e-19)
(-2.10318 -12.2538 1.49384e-17)
(-1.85383 -12.0349 2.37812e-19)
(-2.13637 -11.6629 -1.38687e-17)
(-2.7351 -11.1827 2.74833e-17)
(-3.48315 -10.5927 -2.59483e-17)
(-4.23732 -9.88803 1.2312e-17)
(-4.87245 -9.07691 0)
(-5.28938 -8.18081 -1.98753e-17)
(-5.42821 -7.22901 3.76231e-17)
(-5.27359 -6.258 -1.79154e-17)
(-4.84756 -5.29996 1.47463e-17)
(-4.19554 -4.3769 -1.55e-17)
(-3.36628 -3.49656 -2.63409e-19)
(-2.40129 -2.66403 0)
(-1.33637 -1.88562 1.39817e-20)
(-0.20602 -1.17436 -9.04041e-18)
(0.960667 -0.539853 9.5374e-18)
(2.14159 0.0163494 -2.05633e-19)
(3.31926 0.498675 1.90008e-19)
(4.47277 0.904397 0)
(5.57296 1.22571 0)
(6.59758 1.45904 5.16219e-18)
(7.5245 1.60383 -5.71338e-18)
(8.32452 1.65798 -2.94756e-19)
(8.96664 1.62033 -4.09926e-18)
(9.42288 1.49559 8.00806e-18)
(9.66919 1.29689 -3.52332e-18)
(9.68802 1.04717 0)
(9.47325 0.779084 2.98427e-18)
(9.0391 0.5302 -2.80897e-18)
(8.42951 0.333336 0)
(7.72076 0.205604 2.382e-18)
(7.01071 0.142598 -2.20644e-18)
(6.39569 0.122555 1.94674e-18)
(5.94539 0.117823 -1.71346e-18)
(5.68849 0.10571 0)
(5.61431 0.0735305 3.99828e-19)
(5.68589 0.0185048 1.98675e-19)
(5.85576 -0.054555 -1.45794e-18)
(6.07805 -0.136131 2.25137e-19)
(6.31534 -0.215013 1.35616e-18)
(6.54091 -0.28104 0)
(6.73839 -0.326914 1.5083e-19)
(6.89987 -0.348766 0)
(7.02357 -0.345693 0)
(7.11144 -0.318852 -2.02827e-18)
(7.16733 -0.270635 1.97745e-18)
(7.19591 -0.204132 1.60347e-18)
(7.20214 -0.122861 1.79675e-19)
(7.19116 -0.0306202 -1.4882e-18)
(7.16831 0.0686601 -1.78121e-18)
(7.13893 0.171129 1.53668e-18)
(7.10815 0.273256 -1.79908e-19)
(7.08049 0.372079 -1.37301e-18)
(7.05983 0.465754 2.96946e-18)
(7.04933 0.551838 -9.61055e-19)
(0.273644 0.759218 3.30986e-17)
(7.92145 -1.33601 -2.48551e-17)
(19.8036 -5.29916 -2.48154e-17)
(29.7249 -9.43216 2.53818e-17)
(35.37 -12.4245 -1.25783e-19)
(36.7354 -14.0787 -1.22265e-19)
(33.6046 -13.8229 0)
(26.013 -11.2094 1.70945e-17)
(14.7803 -6.42204 -1.75195e-17)
(1.72287 -0.338506 0)
(-10.8273 5.81377 -8.25825e-18)
(-20.9024 10.9841 1.36757e-17)
(-27.534 14.6132 -3.00711e-18)
(-30.8833 16.7705 -2.98272e-18)
(-32.0044 17.944 2.66091e-19)
(-32.0218 18.611 -9.11365e-20)
(-31.6548 19.1055 -1.3178e-19)
(-31.0771 19.5982 0)
(-30.1091 20.0778 -2.76208e-18)
(-28.5202 20.4107 2.83178e-18)
(-26.3222 20.4646 -2.55965e-19)
(-23.8389 20.1936 -1.45248e-18)
(-21.482 19.6647 1.12173e-18)
(-19.4381 19.0624 -5.49983e-19)
(-17.6666 18.5107 5.58123e-19)
(-16.0618 18.0493 -2.34866e-19)
(-14.5531 17.6722 1.23202e-18)
(-13.1207 17.3746 3.72298e-19)
(-11.7659 17.1613 -3.24768e-18)
(-10.4802 17.0359 4.08929e-20)
(-9.23345 16.9901 2.11649e-18)
(-7.98452 17.0021 2.45865e-18)
(-6.69413 17.05 -2.44044e-18)
(-5.33055 17.1085 0)
(-3.88048 17.1491 3.29089e-19)
(-2.35189 17.1452 3.09064e-19)
(-0.769283 17.0822 0)
(0.828598 16.94 5.49168e-18)
(2.39815 16.7031 -5.77148e-18)
(3.89788 16.3746 -2.35293e-19)
(5.29023 15.9682 0)
(6.53557 15.4897 2.02729e-19)
(7.59405 14.9408 4.28828e-18)
(8.43243 14.3289 -4.41269e-18)
(9.02567 13.6659 0)
(9.35584 12.9602 -3.18671e-18)
(9.42239 12.2192 3.80843e-18)
(9.24194 11.4429 0)
(8.85492 10.6296 0)
(8.32194 9.77661 -2.0025e-19)
(7.72058 8.88502 -1.81662e-19)
(7.13334 7.95702 0)
(6.63944 7.0069 1.68879e-18)
(6.29301 6.06004 -1.8254e-18)
(6.10512 5.15107 -1.62663e-18)
(6.04132 4.3188 1.3873e-19)
(6.04245 3.59505 3.05017e-18)
(6.05647 2.99284 -2.95626e-18)
(6.05992 2.50291 -1.89101e-19)
(6.05898 2.10079 1.24588e-18)
(6.07623 1.75854 -1.88771e-19)
(6.13435 1.45426 0)
(6.24416 1.17604 0)
(6.40043 0.921092 1.24361e-18)
(6.5853 0.692166 -1.36461e-18)
(6.77615 0.493724 0)
(6.95329 0.329225 1.36475e-19)
(7.10394 0.200036 0)
(7.2224 0.105582 1.03029e-18)
(7.30804 0.0440133 -1.00546e-18)
(7.363 0.01279 2.35519e-19)
(7.39067 0.00894871 2.04156e-18)
(7.39506 0.029116 -1.76309e-18)
(7.38069 0.0694499 2.07877e-19)
(7.35257 0.125668 0)
(7.31611 0.193222 0)
(7.2767 0.267585 0)
(7.23931 0.344665 -1.55778e-18)
(7.20821 0.421665 -1.4747e-19)
(7.18672 0.494516 2.55757e-18)
(-7.74558 2.2903 2.22202e-18)
(-26.1866 10.3846 1.90514e-18)
(-42.6262 14.6794 -1.95074e-18)
(-49.6937 18.4967 -6.7703e-19)
(-47.8832 17.7584 8.07886e-19)
(-38.0223 14.3829 1.11893e-19)
(-22.9604 9.29303 1.07711e-19)
(-6.64256 4.04372 0)
(7.37058 0.117606 3.77371e-20)
(17.1371 -1.67538 0)
(22.435 -1.20696 1.04658e-19)
(24.0316 1.1461 1.28747e-17)
(23.0476 4.75238 -1.30371e-17)
(20.5579 8.98416 -1.70503e-17)
(17.3232 13.3896 1.71394e-17)
(13.8452 17.6565 -1.99168e-17)
(10.565 21.4526 2.09302e-17)
(7.99259 24.3867 0)
(6.61919 26.0375 0)
(6.5565 26.0834 0)
(7.3907 24.6811 1.93282e-17)
(8.48408 22.4146 -3.76375e-17)
(9.44998 19.9733 1.61696e-18)
(10.2312 17.8538 3.29072e-17)
(10.8341 16.2113 -1.61183e-17)
(11.2354 15.0086 0)
(11.4003 14.1515 -1.78478e-19)
(11.3313 13.5529 0)
(11.0763 13.1389 9.14607e-18)
(10.709 12.8517 -9.08713e-18)
(10.2926 12.6445 3.15811e-20)
(9.86416 12.4831 0)
(9.43266 12.3442 -4.80964e-18)
(8.99143 12.2089 8.80828e-18)
(8.52364 12.0601 -4.01822e-18)
(8.00982 11.8825 2.54943e-18)
(7.43543 11.6624 -4.55239e-18)
(6.79762 11.3914 1.99835e-18)
(6.1086 11.0646 0)
(5.39076 10.6669 0)
(4.67995 10.1864 0)
(4.01759 9.61935 -2.09661e-19)
(3.43507 8.96539 1.7003e-19)
(2.94901 8.23597 -2.84406e-20)
(2.56186 7.4533 0)
(2.26776 6.64489 -8.10975e-19)
(2.0637 5.84341 7.41501e-19)
(1.94765 5.07712 1.01821e-18)
(1.92487 4.37234 2.38864e-20)
(2.0002 3.74976 6.21728e-20)
(2.17125 3.21722 4.24205e-20)
(2.41952 2.77025 -1.18782e-18)
(2.71958 2.40561 0)
(3.03492 2.11309 0)
(3.32396 1.87931 -1.16645e-18)
(3.55405 1.69231 1.21119e-18)
(3.7154 1.54176 0)
(3.82766 1.41794 0)
(3.93367 1.31067 7.32646e-20)
(4.08244 1.20953 1.63346e-19)
(4.30932 1.10569 0)
(4.62328 0.993921 0)
(5.00606 0.873249 -1.40592e-19)
(5.42227 0.746146 -1.38474e-19)
(5.83352 0.617083 1.25554e-18)
(6.20965 0.491216 -2.17115e-18)
(6.53348 0.373541 -1.30877e-19)
(6.79964 0.268479 2.05529e-18)
(7.01041 0.179764 -2.11554e-18)
(7.17149 0.110416 1.92684e-18)
(7.28925 0.0626605 -3.60935e-19)
(7.36951 0.0377459 -9.01018e-19)
(7.41751 0.0357143 1.71314e-18)
(7.4384 0.0552524 -2.22648e-20)
(7.43759 0.0937247 -3.17719e-18)
(7.42097 0.147426 1.72256e-18)
(7.3946 0.212009 0)
(7.3643 0.283126 3.48783e-19)
(7.33532 0.357273 0)
(7.31201 0.428489 -1.27811e-18)
(2.85865 -1.47209 0)
(12.8518 -3.66332 -2.77232e-20)
(28.2662 -6.28482 3.27472e-20)
(42.3277 -7.59832 2.82189e-17)
(50.4235 -7.44655 -5.52638e-17)
(53.8598 -6.8927 2.68363e-17)
(54.157 -6.68046 -1.06014e-19)
(52.5498 -7.22577 0)
(49.8566 -8.64519 0)
(46.5271 -10.8295 0)
(42.7743 -13.5232 -1.01681e-19)
(38.7056 -16.4363 -8.70596e-20)
(34.3708 -19.3291 0)
(29.7328 -21.9689 -1.04511e-20)
(24.7346 -24.0303 2.28665e-19)
(19.1913 -25.1745 -9.33273e-18)
(12.6787 -25.1358 9.05178e-18)
(4.05908 -23.7152 -4.8129e-20)
(-7.79162 -20.4638 0)
(-21.5583 -15.6947 7.7179e-20)
(-32.331 -11.3734 1.41404e-19)
(-35.6284 -9.50593 1.98087e-18)
(-31.9834 -9.95761 -1.27587e-19)
(-25.5561 -11.1591 -1.99053e-18)
(-19.7249 -11.9993 2.13355e-19)
(-15.521 -12.2656 4.25361e-20)
(-12.6955 -12.1433 -6.96782e-19)
(-10.7872 -11.8258 7.54192e-19)
(-9.46525 -11.4165 5.18978e-20)
(-8.52858 -10.9557 -1.29443e-19)