/*--------------------------------*- C++ -*----------------------------------*\
| =========                 |                                                 |
| \\      /  F ield         | OpenFOAM: The Open Source CFD Toolbox           |
|  \\    /   O peration     | Version:  2012                                  |
|   \\  /    A nd           | Website:  www.openfoam.com                      |
|    \\/     M anipulation  |                                                 |
\*---------------------------------------------------------------------------*/
FoamFile
{
    version     2.0;
    format      ascii;
    class       volVectorField;
    location    "0.48";
    object      U;
}
// * * * * * * * * * * * * * * * * * * * * * * * * * * * * * * * * * * * * * //

dimensions      [0 1 -1 0 0 0 0];


internalField   nonuniform List<vector> 
42400
(
(4.76026 -4.80149 -2.69998e-17)
(24.5353 -19.0382 -3.63002e-17)
(41.296 -36.4038 3.69281e-17)
(51.0011 -42.2525 0)
(49.595 -40.9025 0)
(43.4777 -34.7024 3.33773e-19)
(35.5498 -26.7731 0)
(27.1438 -18.368 -2.29473e-19)
(18.5335 -9.84384 0)
(9.83894 -1.44827 -1.20574e-19)
(1.52251 6.32929 -6.83812e-20)
(-5.66107 12.8158 2.01321e-20)
(-11.0077 17.4464 -2.28784e-17)
(-14.1794 20.0127 2.33491e-17)
(-15.3021 20.7043 -9.30474e-20)
(-14.8066 19.9497 0)
(-13.1827 18.2256 0)
(-10.8459 15.9255 0)
(-8.13193 13.3251 0)
(-5.3176 10.6216 0)
(-2.61885 7.97804 0)
(-0.185933 5.53071 -3.26433e-19)
(1.87218 3.3765 -2.14727e-17)
(3.49215 1.57496 2.4538e-18)
(4.6611 0.154547 1.89929e-17)
(5.41241 -0.886573 -2.46535e-19)
(5.81454 -1.5786 -2.21945e-19)
(5.95631 -1.9732 3.95141e-19)
(5.9302 -2.13307 0)
(5.81639 -2.12206 0)
(5.67292 -1.99669 5.10839e-18)
(5.53317 -1.80363 -5.15799e-18)
(5.40497 -1.57537 1.90528e-19)
(5.26994 -1.337 -2.16358e-18)
(5.08869 -1.10832 2.04739e-18)
(4.82247 -0.897894 0)
(4.44951 -0.703227 0)
(3.96307 -0.53132 0)
(3.36795 -0.39851 0)
(2.69116 -0.309242 -5.72107e-20)
(1.97069 -0.245395 5.74297e-20)
(1.23786 -0.174678 1.06318e-19)
(0.513203 -0.0642283 1.20983e-19)
(-0.189392 0.115452 -4.54166e-19)
(-0.857664 0.373019 2.7005e-19)
(-1.48349 0.701446 -3.93185e-19)
(-2.05702 1.08734 8.21125e-19)
(-2.56741 1.51359 -4.40597e-19)
(-3.00454 1.96105 -4.02376e-21)
(-3.35873 2.40913 6.20288e-19)
(-3.62142 2.83665 -1.28736e-18)
(-3.78638 3.22292 -9.80875e-20)
(-3.85099 3.54939 7.69401e-19)
(-3.81678 3.8015 -6.98086e-20)
(-3.68903 3.96995 0)
(-3.47564 4.05115 0)
(-3.18563 4.04665 0)
(-2.82778 3.96173 9.07266e-20)
(-2.40996 3.80371 9.22304e-20)
(-1.93902 3.58057 0)
(-1.42129 3.29999 1.58385e-18)
(-0.863241 2.96899 -1.64722e-18)
(-0.272122 2.59382 -1.48656e-18)
(0.34364 2.18013 1.45867e-18)
(0.974676 1.73327 0)
(1.61171 1.25854 0)
(2.24387 0.760271 -1.19818e-18)
(2.86442 0.242575 1.17132e-18)
(3.47282 -0.287578 1.24526e-19)
(4.07197 -0.822335 0)
(4.66622 -1.35152 0)
(5.2573 -1.86166 9.32406e-20)
(5.83997 -2.33651 8.26038e-20)
(6.4001 -2.75889 0)
(6.91637 -3.11376 6.12462e-20)
(7.36465 -3.39142 4.30353e-19)
(7.72327 -3.58973 -4.17453e-19)
(7.97754 -3.71395 -5.97025e-20)
(8.11509 -3.78301 -1.96342e-19)
(8.12509 -3.8264 -3.50022e-21)
(9.29661 -7.19188 0)
(17.6904 -10.2724 -8.22597e-17)
(11.7096 -6.02268 8.44757e-17)
(7.16724 -0.453405 0)
(5.92904 -1.49235 0)
(7.37021 -5.03113 -6.29421e-17)
(9.06616 -9.24652 6.40561e-17)
(9.31062 -12.473 2.29887e-19)
(7.36104 -13.7895 0)
(3.48153 -13.0802 1.2093e-19)
(-1.35278 -10.7984 6.86058e-20)
(-5.97782 -7.66984 1.91914e-17)
(-9.53176 -4.40897 -7.35509e-18)
(-11.7001 -1.49672 -1.2655e-17)
(-12.6203 0.883108 -6.52291e-19)
(-12.603 2.73667 6.8477e-19)
(-11.9415 4.12335 0)
(-10.8563 5.09461 -1.46304e-20)
(-9.5111 5.69019 0)
(-8.02697 5.95698 0)
(-6.5026 5.93347 0)
(-5.00247 5.66114 -1.67759e-17)
(-3.56979 5.18834 3.6624e-19)
(-2.22975 4.57448 1.79857e-17)
(-0.996898 3.88377 0)
(0.119853 3.17785 1.1196e-19)
(1.11575 2.50775 2.2249e-19)
(1.99212 1.91055 -3.96152e-19)
(2.7552 1.40787 -1.27878e-17)
(3.41297 1.00985 1.29284e-17)
(3.97063 0.719032 -2.24417e-19)
(4.42549 0.530462 -2.06582e-19)
(4.76958 0.43728 -8.2415e-18)
(4.99589 0.434516 8.30683e-18)
(5.09782 0.525535 6.41666e-18)
(5.0675 0.713046 -6.46052e-18)
(4.90255 0.993789 0)
(4.61144 1.35837 1.03184e-19)
(4.21345 1.79302 0)
(3.73031 2.27441 1.54444e-19)
(3.18559 2.77252 -2.30974e-18)
(2.60012 3.25068 2.44745e-18)
(1.99453 3.6734 -5.41334e-20)
(1.39364 4.02832 4.22996e-20)
(0.819781 4.31626 3.17107e-20)
(0.288423 4.54335 2.17655e-20)
(-0.192319 4.71672 -1.26152e-20)
(-0.618856 4.84151 -4.99081e-19)
(-0.990552 4.91973 5.05194e-19)
(-1.30851 4.95221 0)
(-1.57433 4.94128 3.46888e-22)
(-1.78847 4.89174 4.93375e-20)
(-1.94869 4.80954 2.33413e-19)
(-2.04971 4.69954 -2.21474e-19)
(-2.08448 4.56405 -5.13382e-20)
(-2.0463 4.4029 1.06134e-18)
(-1.93085 4.21441 -1.17373e-18)
(-1.7374 3.99642 -9.06596e-20)
(-1.4692 3.74695 -9.21762e-20)
(-1.13329 3.46449 1.35396e-18)
(-0.740089 3.14802 -1.33257e-18)
(-0.302884 2.79694 9.00708e-20)
(0.162935 2.41085 7.56786e-20)
(0.641279 1.98949 0)
(1.11782 1.53316 -1.04732e-18)
(1.58583 1.04451 3.92575e-20)
(2.04792 0.524936 1.23329e-18)
(2.51662 -0.0266986 0)
(3.01288 -0.606954 -2.40704e-19)
(3.55787 -1.20571 1.07703e-19)
(4.16246 -1.80521 7.50701e-19)
(4.81956 -2.38036 -8.24601e-19)
(5.50269 -2.90199 -6.63021e-19)
(6.17126 -3.34241 6.28777e-19)
(6.77988 -3.68127 -1.1289e-19)
(7.28813 -3.90982 3.07529e-19)
(7.66807 -4.03199 -2.47115e-19)
(7.90895 -4.06042 5.97447e-20)
(8.01549 -4.01478 -4.56525e-20)
(7.97289 -3.97003 4.16252e-20)
(11.6112 -10.3842 -3.09464e-17)
(18.9277 -22.0806 3.20946e-19)
(15.573 -19.0181 1.18421e-20)
(2.21584 -13.8849 3.14302e-19)
(-10.8201 -5.85928 0)
(-25.4368 1.84865 -6.44777e-17)
(-39.9281 8.27172 1.19558e-16)
(-51.6112 12.0926 -5.4831e-17)
(-57.9457 12.1238 2.93509e-17)
(-57.8757 8.39748 -1.18939e-17)
(-52.6605 2.18781 -1.81998e-17)
(-44.8018 -4.60574 7.23637e-20)
(-36.4672 -10.403 6.9457e-20)
(-28.8103 -14.4477 -8.14859e-18)
(-22.1916 -16.7015 8.3127e-18)
(-16.601 -17.4911 2.21263e-19)
(-11.9258 -17.2227 1.13857e-17)
(-8.05053 -16.2474 -1.16573e-18)
(-4.87131 -14.8338 -1.10724e-17)
(-2.28478 -13.1784 1.39714e-19)
(-0.182483 -11.4406 -1.1312e-19)
(1.54728 -9.74423 -9.01613e-20)
(3.00588 -8.18028 0)
(4.28181 -6.79838 -6.9419e-20)
(5.44109 -5.61448 2.92126e-19)
(6.51927 -4.61901 -1.43667e-18)
(7.52706 -3.78412 1.31899e-18)
(8.45695 -3.0745 -2.62078e-18)
(9.29216 -2.4563 2.65121e-18)
(10.013 -1.9011 3.18893e-18)
(10.6017 -1.38751 -6.26791e-18)
(11.044 -0.899665 2.61297e-19)
(11.3319 -0.424215 3.08818e-18)
(11.4636 0.0501013 0)
(11.438 0.533587 0)
(11.254 1.03689 1.33782e-19)
(10.9147 1.56926 0)
(10.4274 2.13549 -9.05276e-20)
(9.80392 2.73287 -1.92969e-18)
(9.06018 3.34763 3.50801e-18)
(8.21228 3.95121 -1.82904e-18)
(7.2846 4.51358 0)
(6.32419 5.02141 0)
(5.37494 5.45801 -8.38047e-19)
(4.44645 5.80153 7.74873e-19)
(3.53318 6.05484 2.01822e-20)
(2.62654 6.247 0)
(1.72158 6.41299 0)
(0.827947 6.57492 -9.35319e-20)
(-0.0259269 6.73128 9.31003e-20)
(-0.798844 6.85927 -3.46231e-22)
(-1.4487 6.92684 0)
(-1.94354 6.9066 -3.15795e-19)
(-2.2675 6.78467 2.71345e-19)
(-2.42114 6.56246 -7.48569e-19)
(-2.41782 6.25293 7.85509e-19)
(-2.27894 5.87501 -9.13013e-19)
(-2.02982 5.44849 2.00819e-18)
(-1.69721 4.99065 -2.11439e-18)
(-1.30798 4.51454 -4.51371e-20)
(-0.888277 4.02842 1.09871e-18)
(-0.462099 3.53595 1.13155e-18)
(-0.0485802 3.03674 -1.18732e-18)
(0.3424 2.52741 0)
(0.715585 2.00256 9.30867e-19)
(1.09305 1.45327 -1.18123e-20)
(1.50755 0.862962 -1.28064e-18)
(1.99729 0.226548 0)
(2.60005 -0.444122 2.36786e-19)
(3.33034 -1.12845 7.31221e-19)
(4.17209 -1.79668 -7.14989e-19)
(5.08227 -2.41251 0)
(6.00031 -2.93934 0)
(6.85983 -3.34712 -6.44621e-20)
(7.60025 -3.61808 5.15854e-20)
(8.1767 -3.75051 1.58462e-19)
(8.56725 -3.75905 -2.5792e-19)
(8.77622 -3.67055 0)
(8.8252 -3.5285 3.29394e-21)
(8.71917 -3.43329 -2.01847e-19)
(-6.80572 4.57966 -5.0009e-17)
(-12.3774 6.24314 7.44987e-17)
(-9.63677 3.4141 -3.81416e-17)
(-12.4943 4.27074 -3.83318e-17)
(-22.6276 12.5966 3.89866e-17)
(-34.1999 22.9479 0)
(-41.7098 31.1047 -7.38276e-17)
(-42.1884 34.6764 7.52914e-17)
(-35.7918 33.4551 -7.08411e-17)
(-24.946 28.8684 7.23991e-17)
(-12.7738 22.9036 -6.6802e-17)
(-1.71807 17.2073 1.31883e-16)
(6.96981 12.6904 -1.25037e-16)
(12.983 9.59496 1.17237e-16)
(16.5211 7.76755 -1.08187e-16)
(17.9927 6.88156 5.2009e-17)
(17.8762 6.5572 4.05614e-17)
(16.6635 6.43492 -7.55152e-17)
(14.8282 6.23058 3.529e-17)
(12.7887 5.76636 -1.38994e-19)
(10.8777 4.97788 4.128e-20)
(9.32725 3.89633 1.44298e-17)
(8.2666 2.61408 -1.45203e-17)
(7.73118 1.24984 -5.29408e-20)
(7.68241 -0.0718693 0)
(8.02137 -1.23136 -2.65383e-20)
(8.61596 -2.13655 0)
(9.32464 -2.7263 1.73495e-18)
(10.0152 -2.97959 9.34557e-19)
(10.5821 -2.91247 -2.77616e-18)
(10.9567 -2.56782 -3.57138e-18)
(11.1063 -2.00372 3.60279e-18)
(11.0274 -1.2809 -5.75712e-20)
(10.736 -0.453512 -5.02724e-20)
(10.2579 0.436281 -2.60514e-18)
(9.62006 1.3594 2.65467e-18)
(8.8454 2.29869 0)
(7.94994 3.24585 1.28901e-18)
(6.94306 4.19743 -1.30797e-18)
(5.83253 5.1498 -3.2662e-20)
(4.63416 6.09571 -1.27646e-20)
(3.37159 7.02492 0)
(2.06784 7.88473 0)
(0.764175 8.60156 0)
(-0.463447 9.1249 -1.21532e-20)
(-1.53868 9.40952 -8.92692e-20)
(-2.40643 9.4268 6.89564e-20)
(-3.04226 9.18796 0)
(-3.4586 8.74492 0)
(-3.69484 8.17444 1.99702e-19)
(-3.79712 7.55346 -1.66411e-19)
(-3.80049 6.93937 3.92853e-19)
(-3.72287 6.3637 -2.70002e-19)
(-3.56949 5.83721 8.25375e-20)
(-3.34104 5.35932 -5.1542e-19)
(-3.04015 4.92559 6.60199e-19)
(-2.67485 4.53151 -1.31989e-18)
(-2.25956 4.17338 1.21591e-18)
(-1.81432 3.84754 0)
(-1.36269 3.549 -8.23641e-20)
(-0.927903 3.27004 -1.28358e-18)
(-0.527516 2.99918 8.67965e-20)
(-0.166739 2.7208 2.52262e-18)
(0.167527 2.41545 -2.31327e-18)
(0.509052 2.06118 1.026e-18)
(0.908359 1.63763 1.12696e-18)
(1.42548 1.13957 -8.39272e-19)
(2.10489 0.573974 -1.27308e-19)
(2.9579 -0.048392 -9.86601e-19)
(3.96425 -0.701009 9.63277e-19)
(5.07517 -1.34526 -2.04005e-19)
(6.22097 -1.93765 -7.74898e-19)
(7.32164 -2.43601 6.69889e-19)
(8.29783 -2.80566 0)
(9.08217 -3.02559 -2.47951e-19)
(9.63023 -3.09351 1.93979e-19)
(9.9289 -3.02778 5.09011e-20)
(9.9986 -2.86521 3.21317e-20)
(9.88652 -2.65716 -2.53207e-19)
(9.63576 -2.50945 2.46927e-19)
(-3.14768 2.68547 1.57509e-17)
(1.34847 3.32731 0)
(13.2458 -4.42112 0)
(24.9977 -8.34487 8.70352e-20)
(29.5146 -8.66193 0)
(30.9838 -5.6513 0)
(31.9156 -1.57889 0)
(33.9666 1.939 5.14611e-19)
(37.6169 4.16175 0)
(42.3614 5.01855 -2.88206e-19)
(47.2848 4.86933 1.08565e-17)
(51.4678 4.25978 -2.22391e-17)
(54.16 3.76298 1.06575e-17)
(54.8114 3.87553 0)
(53.1187 4.9118 1.68942e-19)
(49.1372 6.89657 -3.95494e-19)
(43.3672 9.53808 0)
(36.6736 12.3077 1.16452e-17)
(30.0432 14.5935 -2.41653e-17)
(24.3239 15.9006 -2.60974e-19)
(20.0195 15.9981 1.23797e-17)
(17.2694 14.9558 -3.51284e-20)
(15.96 13.0387 0)
(15.8307 10.5904 -1.01134e-17)
(16.5221 7.97349 1.04018e-17)
(17.6289 5.51582 -7.74064e-18)
(18.7678 3.459 7.82426e-18)
(19.6332 1.93706 5.01562e-18)
(20.0324 0.972598 -5.02202e-18)
(19.8969 0.495385 0)
(19.2654 0.377328 -1.56857e-18)
(18.2476 0.475801 1.5848e-18)
(16.981 0.671924 6.24827e-20)
(15.595 0.892243 2.10782e-19)
(14.189 1.111 -1.61629e-19)
(12.8239 1.33894 -1.45266e-19)
(11.525 1.60772 9.46081e-20)
(10.2902 1.95551 4.29374e-19)
(9.1007 2.41628 -4.31402e-19)
(7.93206 3.01316 -1.22398e-19)
(6.76298 3.75126 1.69836e-19)
(5.57995 4.61822 1.00023e-20)
(4.39071 5.59249 0)
(3.2137 6.64143 3.07701e-20)
(2.06972 7.70659 -4.30119e-19)
(0.990421 8.72195 1.10742e-18)
(0.0118251 9.62514 -1.19891e-18)
(-0.836553 10.3602 5.65174e-19)
(-1.53566 10.8863 0)
(-2.07628 11.1838 6.914e-20)
(-2.45576 11.2537 -7.52086e-19)
(-2.67448 11.1136 7.83024e-19)
(-2.73472 10.7911 5.01025e-20)
(-2.64245 10.3187 -7.6285e-19)
(-2.41077 9.73063 5.94473e-19)
(-2.06297 9.06182 -7.71635e-19)
(-1.63354 8.34728 -8.294e-19)
(-1.1659 7.62065 1.56034e-18)
(-0.706855 6.912 -1.36254e-18)
(-0.29846 6.24509 1.42499e-18)
(0.0315141 5.63446 0)
(0.279313 5.0824 -7.62478e-20)
(0.472073 4.5771 -1.13169e-18)
(0.667225 4.09392 9.69538e-19)
(0.941143 3.60164 2.55225e-19)
(1.36928 3.07187 0)
(2.00446 2.4856 9.80947e-19)
(2.86623 1.83929 -8.54113e-19)
(3.93563 1.14767 -1.21025e-19)
(5.16013 0.438929 -8.91002e-20)
(6.4631 -0.250092 1.77795e-19)
(7.75351 -0.87829 2.50502e-20)
(8.93504 -1.40547 -4.58923e-19)
(9.91692 -1.79858 4.04336e-19)
(10.6275 -2.03806 -3.18795e-21)
(11.0281 -2.123 0)
(11.122 -2.07345 2.23415e-19)
(10.9548 -1.9283 -2.0277e-19)
(10.6015 -1.73815 0)
(10.158 -1.59514 5.08339e-19)
(3.25368 -2.75535 3.41267e-19)
(8.26017 -8.96083 -1.95524e-17)
(11.8683 -16.7261 2.25043e-17)
(12.4107 -23.8258 -4.72603e-17)
(11.1749 -27.9704 2.47023e-17)
(9.09555 -29.42 1.44461e-19)
(7.15376 -28.765 2.79122e-17)
(5.94605 -26.9309 -2.89189e-17)
(5.55592 -24.5484 -1.2898e-19)
(5.58799 -21.8304 1.56708e-19)
(5.49638 -18.7297 -2.96167e-17)
(4.88111 -15.1555 -2.90957e-17)
(3.52265 -11.0583 6.06707e-17)
(1.33911 -6.4361 -5.65699e-17)
(-1.66785 -1.27481 1.10689e-16)
(-5.39364 4.44847 -5.41388e-17)
(-9.58901 10.6953 0)
(-13.843 17.277 0)
(-17.6144 23.8237 3.10609e-17)
(-20.2513 29.8208 -7.36928e-18)
(-21.1193 34.6466 -2.39913e-17)
(-19.8972 37.8625 9.78237e-18)
(-16.6471 39.3352 -1.37411e-17)
(-11.7994 39.1681 3.76573e-18)
(-6.06039 37.6723 -5.30273e-18)
(-0.241124 35.3116 -2.88946e-18)
(4.92098 32.5844 8.35644e-18)
(8.88207 29.896 -1.55115e-19)
(11.3616 27.4908 1.31275e-19)
(12.361 25.4371 -2.13369e-19)
(12.1238 23.6491 0)
(11.0447 21.954 -1.08767e-17)
(9.55498 20.1781 2.10648e-17)
(8.01846 18.2232 -1.01312e-17)
(6.66979 16.0965 0)
(5.60559 13.8939 6.32097e-18)
(4.81245 11.7582 -6.34367e-18)
(4.21186 9.83523 0)
(3.70454 8.24155 0)
(3.20028 7.05011 1.51944e-18)
(2.63373 6.28692 -1.5591e-18)
(1.97059 5.93608 -1.65277e-19)
(1.20616 5.94875 0)
(0.364758 6.25232 7.814e-19)
(-0.511519 6.7635 2.43985e-19)
(-1.37153 7.39814 -1.15333e-18)
(-2.16664 8.07518 -1.50613e-19)
(-2.85465 8.71978 2.0994e-19)
(-3.40252 9.27249 0)
(-3.78922 9.69292 -1.51141e-18)
(-4.00555 9.95983 2.85593e-18)
(-4.05304 10.0679 -1.47052e-18)
(-3.9429 10.0233 -1.27536e-19)
(-3.6957 9.83991 -1.21343e-18)
(-3.3413 9.53647 2.03996e-19)
(-2.91758 9.13488 1.87666e-18)
(-2.46654 8.65904 -6.74285e-19)
(-2.02772 8.13339 0)
(-1.63031 7.58124 0)
(-1.28599 7.02285 7.11921e-20)
(-0.984677 6.4736 6.15284e-20)
(-0.694014 5.94204 0)
(-0.363422 5.42834 8.2899e-19)
(0.0673004 4.92409 -8.15773e-19)
(0.65563 4.41456 -9.12027e-19)
(1.44287 3.88286 -4.83379e-20)
(2.44439 3.31713 6.34013e-19)
(3.64531 2.71624 -6.74576e-19)
(5.00157 2.08807 6.58785e-19)
(6.44505 1.45024 5.02162e-20)
(7.8895 0.829241 3.32533e-19)
(9.2363 0.256768 -3.37395e-19)
(10.3835 -0.235345 -7.92402e-20)
(11.2404 -0.620719 9.79149e-20)
(11.746 -0.883775 1.87394e-19)
(11.8849 -1.02372 -1.78857e-19)
(11.6937 -1.05623 4.36642e-19)
(11.2551 -1.01142 -9.56649e-19)
(10.6747 -0.93011 -9.56388e-20)
(10.0847 -0.863261 -8.61869e-20)
(-26.4816 14.7229 3.58661e-18)
(-69.6489 43.3818 9.14271e-20)
(-91.965 51.823 7.88564e-19)
(-78.263 43.456 -4.83653e-18)
(-47.5959 21.5912 4.03616e-18)
(-17.107 0.484789 -9.42108e-18)
(5.76462 -16.2372 -1.87214e-18)
(21.1873 -28.8509 1.1096e-17)
(30.6544 -38.1896 -1.34431e-17)
(35.3118 -44.8068 1.33777e-17)
(36.3097 -49.2482 -1.36842e-17)
(34.8745 -52.1093 1.37074e-17)
(32.0355 -53.8291 -1.37856e-17)
(28.5495 -54.6471 1.4168e-17)
(24.9756 -54.7261 1.10905e-19)
(21.6555 -54.1402 9.13913e-20)
(18.8187 -52.9358 -3.10794e-17)
(16.5852 -51.1468 3.15709e-17)
(14.9868 -48.8002 -1.65914e-20)
(13.9823 -45.9342 -7.94536e-20)
(13.4568 -42.6505 -3.16414e-17)
(13.1935 -39.0498 3.20383e-17)
(13.0024 -35.2495 0)
(12.733 -31.3936 -5.16831e-20)
(12.284 -27.6136 0)
(11.5827 -24.0141 0)
(10.5574 -20.6674 -1.20844e-19)
(9.14757 -17.5773 7.046e-18)
(7.32527 -14.6875 -6.97156e-18)
(5.12897 -11.9361 1.66233e-19)
(2.71221 -9.29777 4.63754e-20)
(0.345925 -6.81231 -1.21426e-19)
(-1.65285 -4.59622 8.22194e-20)
(-3.01823 -2.79799 0)
(-3.6192 -1.53076 -3.0124e-19)
(-3.48081 -0.805135 0)
(-2.75393 -0.517991 0)
(-1.67329 -0.512744 -2.51776e-19)
(-0.497745 -0.625182 0)
(0.552593 -0.704802 0)
(1.32152 -0.639379 5.5901e-18)
(1.72098 -0.367667 -5.44912e-18)
(1.72802 0.125459 0)
(1.37222 0.819813 0)
(0.718965 1.67041 0)
(-0.142157 2.62248 -2.54896e-19)
(-1.11274 3.6202 1.50689e-19)
(-2.09428 4.60048 2.85477e-18)
(-2.99739 5.50217 -2.98634e-18)
(-3.75063 6.27475 2.42782e-18)
(-4.30834 6.88221 -2.68475e-18)
(-4.65235 7.30735 2.42396e-19)
(-4.78986 7.5511 1.20312e-19)
(-4.74784 7.62879 0)
(-4.56504 7.56504 0)
(-4.28319 7.38898 -8.77357e-19)
(-3.93862 7.13037 4.22321e-20)
(-3.55591 6.81684 8.49568e-19)
(-3.14453 6.4722 -5.93544e-19)
(-2.69885 6.11523 5.76749e-19)
(-2.20068 5.75895 7.41528e-19)
(-1.62331 5.40986 -1.31345e-19)
(-0.936253 5.0676 -1.16107e-18)
(-0.11061 4.7253 5.29882e-19)
(0.874625 4.37159 9.8441e-21)
(2.02586 3.99398 6.83729e-20)
(3.33102 3.5826 2.35781e-19)
(4.75786 3.13283 -4.00917e-19)
(6.25334 2.64755 1.66462e-19)
(7.7441 2.13799 3.87152e-20)
(9.13894 1.62277 -9.41052e-20)
(10.3359 1.1252 1.45356e-19)
(11.2374 0.66966 0)
(11.7716 0.277581 2.09402e-20)
(11.9145 -0.0362112 0)
(11.7001 -0.26615 -6.35223e-19)
(11.2156 -0.417429 -9.59582e-20)
(10.5807 -0.505582 6.90835e-19)
(9.91787 -0.554494 -5.9982e-19)
(9.33831 -0.584185 -3.10642e-19)
(-13.7468 6.52124 2.69908e-17)
(-30.3893 15.5756 -4.04649e-17)
(-38.283 24.815 1.58155e-19)
(-40.2053 29.6106 -3.76428e-17)
(-38.6085 33.4413 3.83477e-17)
(-36.3115 35.2321 -3.2795e-17)
(-34.4504 35.6251 6.42091e-17)
(-33.126 35.2679 -3.05731e-17)
(-32.0632 34.0225 2.53658e-17)
(-30.5092 31.5942 -2.52787e-17)
(-27.5616 27.6551 0)
(-22.7203 22.0789 4.18529e-19)
(-15.9512 15.1201 -1.45731e-19)
(-7.68849 7.24501 0)
(1.51323 -1.01424 0)
(10.9718 -9.01817 0)
(20.0132 -16.3254 0)
(28.0541 -22.5226 1.02289e-19)
(34.6064 -27.3354 0)
(39.3259 -30.6475 -1.20943e-17)
(42.0647 -32.4691 1.24348e-17)
(42.8728 -32.9017 3.02704e-17)
(41.9564 -32.1062 -3.07803e-17)
(39.623 -30.2605 -3.1335e-17)
(36.1919 -27.5414 3.22273e-17)
(31.9325 -24.1433 -2.90872e-17)
(27.0959 -20.3029 2.96316e-17)
(21.9832 -16.2893 -2.47126e-17)
(16.934 -12.3593 2.67714e-18)
(12.2435 -8.678 2.28173e-17)
(8.10217 -5.35608 0)
(4.61618 -2.4651 4.79327e-19)
(1.83898 -0.0500075 4.43073e-19)
(-0.209696 1.85722 0)
(-1.54152 3.24296 3.00645e-19)
(-2.20025 4.10409 0)
(-2.28021 4.46319 0)
(-1.92529 4.41211 8.82154e-18)
(-1.32825 4.09551 -1.61605e-17)
(-0.707766 3.66577 7.85153e-18)
(-0.247847 3.26427 6.28357e-18)
(-0.0650712 2.98758 -6.5307e-18)
(-0.197938 2.87386 -1.89984e-19)
(-0.613738 2.91302 0)
(-1.23033 3.05747 4.89727e-18)
(-1.97005 3.24571 -4.32272e-18)
(-2.755 3.4512 0)
(-3.52506 3.66553 0)
(-4.23662 3.88418 -2.99447e-18)
(-4.85028 4.10176 3.38173e-18)
(-5.33094 4.30699 2.89297e-18)
(-5.65351 4.48433 -2.69017e-18)
(-5.8075 4.61929 -2.07864e-18)
(-5.79708 4.70283 3.61315e-18)
(-5.63654 4.73295 -1.65592e-18)
(-5.34415 4.7141 -2.94566e-19)
(-4.93674 4.65525 0)
(-4.42662 4.56761 8.97995e-20)
(-3.82067 4.46233 -4.99125e-19)
(-3.12096 4.34859 9.06205e-19)
(-2.32587 4.23188 -4.06126e-19)
(-1.43137 4.11279 0)
(-0.432743 3.98651 -2.56149e-20)
(0.673856 3.84359 0)
(1.8866 3.67376 -9.84242e-21)
(3.19545 3.4658 3.17276e-20)
(4.57708 3.20903 7.69036e-20)
(5.99131 2.89735 4.39778e-19)
(7.3783 2.53119 -3.31167e-19)
(8.65837 2.11789 1.0713e-19)
(9.7381 1.67141 6.82743e-19)
(10.5265 1.21127 -8.41038e-19)
(10.9599 0.760489 8.27319e-19)
(11.0265 0.342823 -8.04839e-19)
(10.777 -0.0205388 1.07728e-18)
(10.3128 -0.314276 -7.71854e-19)
(9.75633 -0.531755 -1.01854e-18)
(9.21766 -0.676211 9.87685e-19)
(8.772 -0.758683 -2.30001e-19)
(8.44945 -0.801184 2.40309e-19)
(22.6065 -7.43806 5.61136e-17)
(59.8202 -17.4955 8.08262e-17)
(84.512 -20.9654 -1.62376e-16)
(101.668 -17.4185 1.5972e-16)
(113.119 -11.7204 -7.99742e-17)
(120.186 -3.72322 -1.57468e-19)
(122.678 5.84855 6.86084e-17)
(120.784 16.6987 -1.33605e-16)
(115.214 28.5703 6.91572e-18)
(106.843 40.98 5.88888e-17)
(96.7088 53.2194 -2.73317e-19)
(85.8967 64.478 -3.78463e-17)
(75.447 73.9762 3.85968e-17)
(65.9513 81.1553 -2.46219e-17)
(57.6111 85.7711 2.5112e-17)
(50.2388 87.7602 1.39827e-17)
(43.5692 87.211 -1.42503e-17)
(37.4203 84.3346 -1.04685e-19)
(31.7315 79.3651 0)
(26.5798 72.576 -4.30715e-18)
(22.1428 64.2999 4.28724e-18)
(18.6476 54.9441 1.92253e-19)
(16.3388 45.0389 5.11189e-18)
(15.3634 35.313 -5.40364e-18)
(15.3545 26.5209 -1.19899e-19)
(15.5044 19.1972 0)
(15.2743 13.4877 -2.359e-19)
(14.6185 9.20919 -5.52607e-19)
(13.6958 6.13739 -1.42052e-17)
(12.6206 4.16126 1.4576e-17)
(11.438 3.15588 1.37566e-17)
(10.1949 2.92629 -1.4174e-17)
(8.96786 3.24015 -8.57655e-20)
(7.84952 3.88088 -1.2637e-17)
(6.91868 4.65014 2.40996e-17)
(6.22914 5.35308 -1.17937e-17)
(5.79965 5.84247 -1.00381e-17)
(5.60516 6.04979 1.03965e-17)
(5.57315 5.99501 -9.555e-21)
(5.59956 5.77336 -2.45859e-19)
(5.51956 5.4837 2.26875e-19)
(5.17496 5.22301 -6.76093e-18)
(4.45107 5.06823 7.92665e-19)
(3.3094 5.04512 6.1821e-18)
(1.82408 5.14752 -5.41221e-18)
(0.136623 5.32887 5.09444e-18)
(-1.57396 5.50714 0)
(-3.13528 5.61509 3.92983e-18)
(-4.42375 5.62359 -3.87125e-18)
(-5.38476 5.53329 2.64978e-18)
(-6.01892 5.3667 -5.29224e-19)
(-6.3579 5.15354 -3.35607e-19)
(-6.44306 4.92 -3.10109e-19)
(-6.31336 4.68478 -2.85708e-19)
(-6.00118 4.45954 -1.46882e-18)
(-5.53247 4.25098 8.60908e-20)
(-4.92837 4.06271 0)
(-4.20691 3.89637 -6.07096e-19)
(-3.38402 3.75194 4.44039e-19)
(-2.47375 3.62741 0)
(-1.48787 3.5183 -1.53173e-20)
(-0.43536 3.41728 4.9482e-20)
(0.676875 3.31428 0)
(1.8432 3.19791 5.22193e-20)
(3.05381 3.05419 0)
(4.29014 2.86805 8.48253e-19)
(5.52032 2.62846 -1.84583e-18)
(6.69439 2.32904 9.62674e-19)
(7.74434 1.96933 -9.83298e-20)
(8.59269 1.55666 -1.07207e-19)
(9.17162 1.10715 1.24107e-18)
(9.44949 0.64472 -1.08707e-18)
(9.45213 0.198093 1.84221e-19)
(9.26172 -0.203922 1.84663e-19)
(8.98718 -0.537467 -3.22406e-19)
(8.72213 -0.78739 -1.41095e-19)
(8.51853 -0.948837 -1.51904e-18)
(8.38764 -1.02685 -4.52752e-20)
(8.3163 -1.03676 1.48023e-18)
(8.2835 -1.00951 3.66088e-19)
(16.5791 -8.8346 0)
(37.306 -22.475 -1.54932e-19)
(48.2223 -28.7229 2.01214e-19)
(47.9909 -33.8715 3.77568e-17)
(42.1772 -35.4838 -7.34444e-17)
(32.7177 -36.6272 6.69982e-17)
(22.2707 -37.9137 -3.18347e-17)
(12.08 -39.3725 0)
(2.45296 -40.8392 3.10063e-19)
(-6.58666 -41.9036 1.51018e-17)
(-15.1444 -42.2635 -1.51362e-17)
(-23.3325 -41.7187 -7.87518e-18)
(-31.2147 -40.1829 1.30393e-17)
(-38.7773 -37.6744 -2.63227e-18)
(-45.9351 -34.3049 -2.48983e-18)
(-52.566 -30.2473 8.17381e-19)
(-58.5307 -25.6856 -2.05935e-19)
(-63.6725 -20.7935 -5.70695e-18)
(-67.7777 -15.7356 5.97045e-18)
(-70.4821 -10.7135 9.09234e-20)
(-71.1096 -6.05514 -1.19466e-19)
(-68.5029 -2.28468 -3.93996e-19)
(-61.0227 -0.0802315 -8.1231e-18)
(-47.9971 0.273693 1.95637e-19)
(-32.0794 -0.407898 8.14175e-18)
(-18.2489 -0.704578 -6.93303e-20)
(-8.94056 -0.200132 -7.41194e-18)
(-3.1225 0.396938 1.52076e-17)
(0.744286 0.42855 -1.40917e-17)
(3.26586 -0.0237889 6.60567e-18)
(4.54738 -0.476896 0)
(4.6948 -0.665293 -1.02777e-17)
(3.91759 -0.588494 1.93312e-17)
(2.46721 -0.317183 -9.24393e-18)
(0.614999 0.0743336 8.45426e-18)
(-1.335 0.48277 -8.96834e-18)
(-3.07191 0.77301 -2.97594e-19)
(-4.37036 0.84082 0)
(-5.18002 0.668934 -4.94229e-20)
(-5.60963 0.32408 -6.77161e-18)
(-5.86678 -0.0948557 7.25591e-18)
(-6.12908 -0.485822 -1.89973e-19)
(-6.5018 -0.771984 1.80296e-19)
(-7.00299 -0.911966 0)
(-7.58087 -0.894348 0)
(-8.15221 -0.733956 4.93012e-18)
(-8.63601 -0.462779 -5.4717e-18)
(-8.96959 -0.119979 -2.60587e-19)
(-9.11674 0.254658 -3.62629e-18)
(-9.06807 0.627736 6.88292e-18)
(-8.83389 0.975739 -2.93492e-18)
(-8.43485 1.28503 0)
(-7.89431 1.54984 1.82393e-18)
(-7.23409 1.76961 -1.7119e-18)
(-6.47322 1.94682 0)
(-5.62834 2.08536 7.7655e-19)
(-4.71462 2.18959 -7.07885e-19)
(-3.74589 2.26347 2.22841e-19)
(-2.73507 2.31026 -2.33175e-19)
(-1.69322 2.3319 0)
(-0.629096 2.32829 -6.23068e-20)
(0.450062 2.2966 -2.57214e-20)
(1.53863 2.2337 5.36744e-19)
(2.62796 2.13327 4.5845e-20)
(3.70027 1.98589 -6.1235e-19)
(4.72634 1.7855 0)
(5.66422 1.52969 -7.69106e-20)
(6.46386 1.22148 0)
(7.08005 0.871838 0)
(7.49247 0.500137 1.70169e-18)
(7.72401 0.131708 -1.65965e-18)
(7.84145 -0.207308 -1.47061e-18)
(7.92764 -0.495316 -2.20894e-19)
(8.04033 -0.718234 1.46549e-18)
(8.19026 -0.870181 1.85864e-18)
(8.35264 -0.953273 -1.62518e-18)
(8.4943 -0.976441 1.83958e-19)
(8.59329 -0.95299 1.6336e-18)
(8.64283 -0.90037 -3.5991e-18)
(8.64841 -0.839413 1.21225e-18)
(20.1925 -8.4263 -8.00636e-18)
(62.5812 -22.2678 6.46175e-18)
(93.1514 -36.2956 1.1611e-17)
(98.7252 -37.5546 -1.19011e-17)
(84.2162 -33.5972 -2.14178e-19)
(67.1814 -28.2144 -2.13833e-19)
(54.5293 -24.471 0)
(45.473 -22.2107 -2.75671e-17)
(38.1233 -20.7717 2.82269e-17)
(31.5795 -19.7661 0)
(25.5818 -19.0487 3.2682e-17)
(20.0857 -18.5668 -6.66988e-17)
(15.0965 -18.2786 2.44942e-19)
(10.6251 -18.1215 6.69023e-17)
(6.69123 -17.9948 -3.37086e-17)
(3.34193 -17.788 -2.36186e-19)
(0.702078 -17.4395 1.387e-19)
(-0.927165 -16.9509 0)
(-0.987891 -16.3931 -2.63169e-17)
(1.2295 -15.9368 2.65866e-17)
(6.28003 -15.7978 1.21648e-19)
(14.3257 -16.118 -2.00528e-17)
(24.8404 -16.7894 2.05879e-17)
(35.4648 -17.0898 -1.59961e-17)
(41.1595 -15.6175 1.62617e-17)
(37.2246 -11.311 6.99631e-20)
(25.627 -5.47559 -8.55224e-18)
(13.5677 -1.11286 2.69886e-18)
(5.48566 0.397425 9.82503e-18)
(1.15773 -0.172429 -1.97248e-18)
(-1.07367 -1.60621 -1.987e-18)
(-2.34441 -3.11267 8.6353e-19)
(-3.19964 -4.36815 -1.00585e-18)
(-3.85835 -5.2691 0)
(-4.389 -5.82645 2.23555e-19)
(-4.79184 -6.08621 2.27547e-19)
(-5.05081 -6.13048 0)
(-5.17355 -6.046 6.21772e-18)
(-5.20561 -5.89386 -6.46372e-18)
(-5.22082 -5.7129 -2.08215e-19)
(-5.28911 -5.52192 0)
(-5.45385 -5.31745 1.90612e-19)
(-5.72428 -5.08713 4.73355e-18)
(-6.07755 -4.81592 -4.77456e-18)
(-6.46967 -4.49545 0)
(-6.8469 -4.12396 -3.24202e-18)
(-7.158 -3.70649 3.89258e-18)
(-7.36215 -3.25418 0)
(-7.43296 -2.78178 0)
(-7.35858 -2.30496 -1.74884e-19)
(-7.13902 -1.8382 -1.46947e-19)
(-6.78241 -1.39356 0)
(-6.30151 -0.980381 9.15349e-19)
(-5.71139 -0.605462 -1.00227e-18)
(-5.02789 -0.273259 -4.30597e-19)
(-4.26685 0.0136986 2.46154e-19)
(-3.44413 0.25319 1.36544e-19)
(-2.57442 0.444669 2.80553e-19)
(-1.67095 0.589032 1.88947e-19)
(-0.746114 0.686545 -3.19245e-19)
(0.188826 0.738309 5.34989e-20)
(1.12153 0.743457 0)
(2.03533 0.70009 0)
(2.911 0.609188 -9.42828e-19)
(3.72567 0.475434 1.06116e-18)
(4.45628 0.306186 0)
(5.08794 0.113205 -1.43512e-19)
(5.62402 -0.0875946 0)
(6.09176 -0.278708 -1.06536e-18)
(6.53434 -0.444356 1.03972e-18)
(6.98763 -0.572876 -2.86501e-19)
(7.45726 -0.657974 -2.32411e-18)
(7.91508 -0.69964 2.03317e-18)
(8.31735 -0.704193 -2.75925e-19)
(8.62834 -0.682306 0)
(8.83376 -0.645448 0)
(8.94054 -0.60271 0)
(8.96841 -0.559623 2.18251e-18)
(8.94012 -0.520676 2.44543e-19)
(8.87633 -0.489301 -3.71824e-18)
(4.94124 -1.67889 4.70245e-19)
(12.7188 -6.02081 3.04445e-18)
(18.4702 -9.06178 -3.12077e-18)
(18.1846 -11.9793 7.63678e-18)
(12.9827 -12.5427 -7.89769e-18)
(7.42551 -13.153 -8.8677e-20)
(3.81229 -13.6149 -9.04374e-20)
(1.57903 -13.7801 0)
(0.129247 -13.6476 -5.35953e-20)
(-0.840351 -13.2648 0)
(-1.43596 -12.6703 -9.67558e-20)
(-1.65241 -11.904 -1.77583e-17)
(-1.3975 -11.058 1.79775e-17)
(-0.488447 -10.2474 1.9009e-17)
(1.26577 -9.55478 -1.91277e-17)
(3.95299 -9.01015 2.00976e-17)
(7.64937 -8.70384 -2.09232e-17)
(12.5078 -8.77261 0)
(18.3246 -9.15835 0)
(24.4673 -9.84263 0)
(30.753 -11.2684 -2.22305e-17)
(37.7995 -14.0413 4.47952e-17)
(46.1521 -18.5543 -1.35798e-18)
(54.5137 -24.0819 -4.13943e-17)
(58.1222 -28.2486 2.07792e-17)
(50.1762 -28.6838 0)
(31.2058 -25.4215 4.63889e-19)
(11.6842 -20.9428 0)
(-0.401791 -17.7116 -1.1252e-17)
(-5.30506 -16.3772 1.11337e-17)
(-6.32473 -16.162 -1.02512e-19)
(-5.9286 -16.1701 0)
(-5.32575 -15.9824 6.84926e-18)
(-4.9039 -15.5324 -1.27965e-17)
(-4.76557 -14.8798 6.04774e-18)
(-4.86867 -14.1102 -4.52472e-18)
(-5.10566 -13.3044 8.54513e-18)
(-5.37271 -12.5211 -4.01342e-18)
(-5.60891 -11.7917 0)
(-5.79717 -11.1201 0)
(-5.94452 -10.4924 0)
(-6.06387 -9.88776 2.25569e-18)
(-6.16306 -9.28756 -6.42576e-18)
(-6.2416 -8.67841 4.02453e-18)
(-6.29367 -8.0567 0)
(-6.30855 -7.42373 -2.815e-18)
(-6.27423 -6.78424 2.70296e-18)
(-6.17962 -6.14566 1.92694e-18)
(-6.01612 -5.51693 -4.20945e-19)
(-5.77827 -4.90735 -3.34419e-19)
(-5.46398 -4.32573 -3.1326e-19)
(-5.07422 -3.77985 -8.93164e-19)
(-4.61263 -3.27623 0)
(-4.08504 -2.82006 0)
(-3.49904 -2.41518 1.25854e-19)
(-2.86349 -2.06416 -1.85511e-19)
(-2.1881 -1.76832 0)
(-1.48334 -1.52749 0)
(-0.759442 -1.34013 -6.15708e-20)
(-0.02646 -1.20356 -8.58092e-20)
(0.705784 -1.11411 0)
(1.42944 -1.06494 0)
(2.13885 -1.04665 1.61454e-19)
(2.83202 -1.05024 1.66375e-19)
(3.51386 -1.06547 -1.39126e-18)
(4.1956 -1.08164 2.50137e-18)
(4.88981 -1.08876 1.80392e-19)
(5.6015 -1.07843 -2.53707e-18)
(6.31933 -1.04496 2.70429e-18)
(7.0135 -0.986767 -2.51683e-18)
(7.6434 -0.907191 4.36688e-19)
(8.17115 -0.813673 1.223e-18)
(8.57405 -0.715444 -2.4425e-18)
(8.84973 -0.620709 -7.42588e-20)
(9.01293 -0.53475 4.69582e-18)
(9.08752 -0.459635 -2.60207e-18)
(9.09851 -0.39509 0)
(9.06701 -0.339722 -5.5393e-19)
(9.00803 -0.293651 0)
(8.93222 -0.257581 2.13972e-18)
(17.826 -5.66784 0)
(45.7893 -14.8029 2.33915e-20)
(56.1607 -19.3651 -1.85537e-20)
(42.3066 -16.5916 -1.35873e-17)
(23.4396 -12.7523 2.64498e-17)
(15.8434 -10.8795 -1.2656e-17)
(15.3807 -8.27323 9.167e-20)
(14.8855 -4.93177 0)
(13.451 -1.65784 0)
(11.4975 2.0857 0)
(9.04163 6.29017 1.00133e-19)
(6.04459 10.6921 1.28475e-19)
(2.5882 14.9943 0)
(-1.00991 19.0236 2.03226e-21)
(-4.34569 22.6632 -1.87327e-19)
(-7.27533 25.8031 1.32524e-17)
(-9.97074 28.2104 -1.30234e-17)
(-12.551 28.8221 -3.13909e-19)
(-15.4726 27.3591 0)
(-19.9406 26.4606 5.15315e-19)
(-26.3879 26.6591 -4.06102e-19)
(-32.4106 25.6098 2.85602e-17)
(-34.8831 22.0894 -2.01446e-18)
(-34.0697 16.642 -2.64626e-17)
(-32.2922 10.6213 -6.38358e-19)
(-31.4937 5.20941 2.29586e-19)
(-31.7524 1.26937 -1.4085e-17)
(-31.2956 -1.10408 1.32312e-17)
(-28.6746 -2.67904 1.58634e-19)
(-24.2109 -4.14564 2.77411e-19)
(-19.0923 -5.65674 2.32355e-19)
(-14.3222 -7.09328 -3.81107e-18)
(-10.4447 -8.29124 3.84944e-18)