/*--------------------------------*- C++ -*----------------------------------*\
| =========                 |                                                 |
| \\      /  F ield         | OpenFOAM: The Open Source CFD Toolbox           |
|  \\    /   O peration     | Version:  2012                                  |
|   \\  /    A nd           | Website:  www.openfoam.com                      |
|    \\/     M anipulation  |                                                 |
\*---------------------------------------------------------------------------*/
FoamFile
{
    version     2.0;
    format      ascii;
    class       volScalarField;
    location    "0.82";
    object      p;
}
// * * * * * * * * * * * * * * * * * * * * * * * * * * * * * * * * * * * * * //

dimensions      [0 2 -2 0 0 0 0];


internalField   nonuniform List<scalar> 
42400
(
-1083.79
-978.163
-813.562
-586.945
-289.341
108.792
652.025
1337.81
2087.76
2779.93
3279.79
3477.76
3393.39
3156.44
2856.37
2531.19
2216.99
1944.37
1725.08
1555.24
1421.31
1300.87
1165.66
995.549
788.834
564.545
351.453
179.549
69.0981
18.5859
8.15528
15.7431
27.9249
40.3526
52.9869
66.0189
79.3014
92.4961
105.211
117.001
127.417
136.119
142.879
147.487
150.017
150.259
148.536
145.027
140.27
134.557
128.146
121.287
114.2
107.069
100.034
93.2
86.639
80.3998
74.5138
68.9988
63.862
59.1008
54.7053
50.6597
46.9437
43.5349
40.4097
37.5452
34.9199
32.5134
30.3066
28.2801
26.4132
24.6826
23.0618
21.5192
20.0176
18.5109
16.947
15.1474
11871.3
11576.1
11276.8
10937.4
10445.7
9842.54
9143.64
8342.13
7363.77
6011.96
4118.53
2062.32
618.269
-42.896
-305.902
-377.846
-299.246
-137.962
41.6388
211.724
369.659
517.657
650.826
758.56
834.29
874.23
877.504
845.814
784.753
704.056
615.864
531.248
457.365
396.867
349.286
312.675
284.726
263.319
246.686
233.329
222.075
212.085
202.783
193.915
185.22
176.604
167.784
158.714
149.443
140.059
130.668
121.38
112.299
103.517
95.108
87.1309
79.6265
72.6202
66.1238
60.1373
54.6514
49.6487
45.1056
40.994
37.2824
33.9374
30.9247
28.2106
25.7629
23.5507
21.5452
19.719
18.0458
16.4995
15.054
13.6826
12.3579
11.0518
9.73882
8.30781
-7873.53
-7416.31
-6798.55
-6099.46
-5326.22
-4540.43
-3731.85
-2918.75
-2168.11
-1544.16
-1100.36
-865.582
-737.119
-595.581
-491.902
-504.678
-575.146
-598.27
-545.41
-450.256
-343.929
-235.992
-126.233
-14.6473
96.296
202.523
299.569
383.45
451.304
501.89
535.595
553.886
558.77
552.542
537.461
515.562
488.571
458.216
425.873
392.753
359.834
327.809
297.178
268.294
241.385
216.572
193.881
173.269
154.646
137.884
122.837
109.352
97.2769
86.4669
76.7905
68.1301
60.3819
53.4549
47.2691
41.7536
36.8447
32.4846
28.6196
25.2
22.1787
19.512
17.1587
15.0807
13.2427
11.6127
10.1609
8.86023
7.68543
6.61296
5.6207
4.68785
3.79544
2.92565
2.06406
1.13006
60.968
24.8449
-81.0215
-264.484
-478.199
-707.21
-914.811
-1035.51
-1028.63
-924.074
-807.737
-735.185
-653.443
-469.645
-187.051
101.208
329.677
497.788
631.404
751.579
865.776
971.548
1064.12
1139.99
1197.3
1235.37
1254.41
1255.22
1238.89
1206.78
1160.52
1102.01
1033.38
956.832
875.131
791.057
707.252
625.723
548.105
475.623
409.113
349.056
295.632
248.774
208.226
173.586
144.34
119.901
99.6443
82.9419
69.1968
57.8666
48.4796
40.6425
34.0386
28.4215
23.6034
19.4441
15.8383
12.7024
9.98032
7.61751
5.57117
3.80437
2.28422
0.981049
-0.132128
-1.08003
-1.88538
-2.56909
-3.15048
-3.64751
-4.07693
-4.45432
-4.79414
-5.10945
-5.41147
-5.71061
-6.0149
-6.39557
5878.03
5773.36
5717.24
5800.87
5980.47
6133.53
6179.57
6139.35
6007.27
5751.87
5394.45
5006.08
4677.48
4469.28
4382.28
4369.78
4370.05
4335.5
4247.51
4106.68
3925.53
3719.23
3500.41
3277.03
3052.91
2829.95
2609.14
2390.54
2174.87
1964.17
1761.01
1567.36
1384.01
1210.84
1047.19
892.988
748.815
615.665
494.698
386.983
293.21
213.566
147.704
94.7823
53.571
22.589
0.228577
-15.129
-25.0164
-30.8065
-33.667
-34.5424
-34.1621
-33.0637
-31.6228
-30.0856
-28.6127
-27.2486
-26.0325
-24.9604
-24.0137
-23.1703
-22.4085
-21.709
-21.0561
-20.4375
-19.8446
-19.2714
-18.7147
-18.1734
-17.6477
-17.1395
-16.6515
-16.1869
-15.7494
-15.3424
-14.9687
-14.6314
-14.3331
-14.139
3789.6
3744.36
3644.66
3490.8
3359.52
3282.85
3231.29
3183.95
3117.51
3000.74
2823.71
2604.79
2381.84
2191.64
2043.25
1914.53
1782.85
1639.15
1482.39
1319.78
1163.11
1016.52
888.381
779.387
683.845
589.84
482.596
351.753
195.555
21.5379
-156.567
-323.872
-468.192
-580.957
-658.145
-700.237
-711.156
-697.077
-664.921
-621.133
-571.268
-519.468
-468.471
-419.862
-374.43
-332.476
-294.066
-259.19
-227.802
-199.819
-175.104
-153.472
-134.702
-118.564
-104.82
-93.2231
-83.5116
-75.4103
-68.6498
-62.981
-58.1863
-54.084
-50.5273
-47.4013
-44.6175
-42.1088
-39.8255
-37.7305
-35.7968
-34.0042
-32.3379
-30.7867
-29.3424
-27.9985
-26.7496
-25.5914
-24.5196
-23.5309
-22.6228
-21.8535
-1534.97
-1682.78
-1899.5
-2185.97
-2515.76
-2748.34
-2839.11
-2794.65
-2646.07
-2429.01
-2143.04
-1772.04
-1370.17
-1118.29
-1284.2
-1993.28
-3053.61
-4140.25
-5046.33
-5699.3
-6087.14
-6230.75
-6177.1
-5981.98
-5699.11
-5370.69
-5022.72
-4666.57
-4304.2
-3936.31
-3566.02
-3199.43
-2843.75
-2506.06
-2191.04
-1901.92
-1640.86
-1408.78
-1205.4
-1029.48
-878.788
-750.65
-642.224
-550.357
-472.56
-406.376
-349.64
-300.884
-259.104
-223.593
-193.811
-169.268
-149.425
-133.651
-121.241
-111.468
-103.642
-97.1717
-91.593
-86.5795
-81.9247
-77.5143
-73.2956
-69.2525
-65.3868
-61.7068
-58.2207
-54.9338
-51.8472
-48.9582
-46.2614
-43.7492
-41.4127
-39.2426
-37.2292
-35.3631
-33.6349
-32.0361
-30.5597
-29.2571
-19066.1
-18787.4
-18576.4
-18423.6
-18210.5
-17823.8
-17209.6
-16371.9
-15332.7
-14090.1
-12526.6
-10452.3
-7970.76
-5607.38
-3830.16
-2677.88
-1937.93
-1433.26
-1091.94
-884.492
-784.495
-767.575
-814.15
-907.149
-1029.73
-1165.84
-1300.29
-1419.32
-1513.07
-1575.8
-1605.64
-1603.86
-1574.55
-1522.63
-1452.58
-1368.7
-1275.32
-1176.5
-1075.85
-976.436
-880.779
-790.711
-707.468
-632.088
-564.292
-503.091
-447.951
-398.512
-354.404
-315.312
-280.985
-251.172
-225.547
-203.676
-185.027
-169.039
-155.19
-143.043
-132.258
-122.583
-113.838
-105.89
-98.6412
-92.015
-85.9484
-80.3873
-75.284
-70.5957
-66.2839
-62.3141
-58.655
-55.279
-52.161
-49.2791
-46.6136
-44.147
-41.8635
-39.7492
-37.7931
-36.0381
-1988.84
-1879.39
-1831.89
-1781.42
-1574.08
-1100.74
-421.677
310.571
928.266
1297.17
1338.4
1076.17
719.716
527.75
560.266
741.966
991.287
1209.71
1315.61
1290.08
1166.01
991.734
805.994
629.42
467.416
318.086
178.243
45.9082
-79.278
-196.285
-303.066
-397.102
-476.206
-538.32
-582.627
-610.035
-622.421
-622.153
-611.745
-593.59
-569.767
-542.053
-511.978
-480.526
-448.453
-416.731
-385.876
-356.288
-328.282
-302.079
-277.817
-255.553
-235.267
-216.877
-200.253
-185.24
-171.673
-159.39
-148.242
-138.095
-128.83
-120.345
-112.554
-105.382
-98.7678
-92.658
-87.0071
-81.7758
-76.9293
-72.4365
-68.2693
-64.4023
-60.8123
-57.4782
-54.3808
-51.5026
-48.8274
-46.341
-44.0316
-41.9347
14980.8
14540
13918.4
13219
12513.4
11905.5
11342.3
10746.9
10079.4
9341.18
8558.54
7765.33
6997.94
6269.86
5545.78
4782.3
3991.93
3235.39
2570.13
2017.79
1564.19
1184.57
860.815
584.97
354.188
165.078
11.7665
-113.001
-215.911
-301.322
-370.216
-420.764
-450.616
-459.922
-454.061
-440.045
-424.129
-409.868
-398.138
-388.228
-378.997
-369.519
-359.224
-347.841
-335.328
-321.809
-307.517
-292.726
-277.719
-262.761
-248.08
-233.854
-220.21
-207.227
-194.941
-183.355
-172.454
-162.209
-152.588
-143.558
-135.084
-127.138
-119.69
-112.716
-106.188
-100.082
-94.3743
-89.0406
-84.0575
-79.4022
-75.0531
-70.9895
-67.1922
-63.6433
-60.3265
-57.2266
-54.3294
-51.6223
-49.0948
-46.7754
1967.2
1726.68
1411.41
1037.58
602.991
170.567
-227.835
-577.64
-867.722
-1088.65
-1236.38
-1313.91
-1333.21
-1313.82
-1277.93
-1241.38
-1209.53
-1181.29
-1160.68
-1157.19
-1175.76
-1206.08
-1220.54
-1184.12
-1076.55
-910.264
-719.989
-542.384
-399.065
-294.562
-223.259
-177.538
-152.111
-143.561
-147.474
-159.655
-176.115
-194.113
-211.553
-226.973
-239.404
-248.315
-253.614
-255.53
-254.472
-250.93
-245.414
-238.412
-230.366
-221.657
-212.602
-203.443
-194.362
-185.479
-176.868
-168.564
-160.581
-152.916
-145.561
-138.504
-131.737
-125.254
-119.049
-113.118
-107.457
-102.063
-96.9283
-92.0487
-87.4167
-83.0244
-78.8638
-74.9262
-71.2032
-67.6859
-64.3659
-61.2348
-58.2842
-55.5063
-52.8944
-50.4712
-12581
-12239.5
-11824.3
-11309.5
-10582.8
-9645.64
-8557.29
-7438.25
-6378.97
-5406.87
-4520.4
-3718.67
-3005.24
-2385.44
-1866.73
-1459.89
-1176.81
-1026.07
-1004.5
-1089.94
-1245.29
-1420.52
-1558.33
-1612.24
-1567.03
-1441.49
-1273.86
-1096.01
-928.06
-779.625
-654.669
-554.606
-478.429
-421.987
-378.966
-343.829
-313.89
-288.465
-267.92
-252.494
-240.906
-231.955
-224.815
-218.803
-213.354
-208.052
-202.642
-197.009
-191.147
-185.119
-179.017
-172.936
-166.952
-161.113
-155.438
-149.925
-144.557
-139.311
-134.167
-129.109
-124.133
-119.239
-114.433
-109.726
-105.126
-100.645
-96.2919
-92.0738
-87.9971
-84.0665
-80.2853
-76.6555
-73.1779
-69.8526
-66.6788
-63.6549
-60.7789
-58.048
-55.4599
-53.0318
7696.57
7593.36
7387.86
7034.45
6550.84
6001.01
5421.28
4836.61
4262.05
3699.08
3146.53
2612.18
2110.53
1658.97
1275.99
980.199
787.916
705.571
714.828
765.697
793.719
758.855
658.088
500.405
304.92
110.755
-45.8101
-155.422
-225.494
-266.724
-287.632
-294.433
-291.86
-283.526
-272.066
-259.357
-246.739
-235.19
-225.147
-216.088
-208.199
-201.285
-194.93
-188.862
-182.912
-177.008
-171.158
-165.426
-159.899
-154.662
-149.78
-145.281
-141.156
-137.361
-133.826
-130.471
-127.218
-123.998
-120.761
-117.476
-114.13
-110.726
-107.272
-103.785
-100.282
-96.7781
-93.2902
-89.8328
-86.4197
-83.0633
-79.7752
-76.5653
-73.4426
-70.4146
-67.4878
-64.6672
-61.9568
-59.3592
-56.8762
-54.52
1234.34
1122.22
994.167
942.169
961.485
1056.21
1177.35
1297.61
1399.88
1459.66
1454.76
1376.12
1229.18
1029.79
803.392
587.642
426.443
345.279
331.841
345.904
355.296
350.218
335.13
319.988
311.484
307.872
303.427
292.998
273.641
245.205
209.775
170.501
130.584
92.6287
58.3831
28.7293
3.80436
-16.8464
-33.9538
-48.2423
-59.9876
-69.9217
-78.2563
-85.0922
-90.5516
-94.7937
-98.0134
-100.423
-102.231
-103.616
-104.716
-105.614
-106.344
-106.896
-107.236
-107.317
-107.096
-106.543
-105.646
-104.412
-102.865
-101.039
-98.9722
-96.706
-94.2775
-91.7209
-89.0668
-86.3429
-83.5739
-80.782
-77.9874
-75.2081
-72.4599
-69.7569
-67.1112
-64.5331
-62.0314
-59.6128
-57.2824
-55.0467
-9640
-9482.04
-9300.63
-9077.48
-8815
-8475.26
-7977.19
-7265.1
-6401.08
-5544.25
-4830.7
-4293.97
-3888.64
-3550.92
-3240.71
-2949.93
-2675.92
-2404.29
-2126.95
-1846.32
-1555.19
-1243.1
-925.645
-638.48
-404.144
-221.905
-81.2049
27.6878
111.399
174.107
218.685
247.34
261.977
264.447
256.638
240.493
217.961
190.946
161.312
130.743
100.089
71.1004
44.5632
20.9102
0.328004
-17.2293
-31.9796
-44.2492
-54.4118
-62.8343
-69.8375
-75.6752
-80.5303
-84.5252
-87.7396
-90.2296
-92.0416
-93.222
-93.8214
-93.8961
-93.5058
-92.7114
-91.5715
-90.1399
-88.4652
-86.5906
-84.5539
-82.389
-80.1258
-77.7914
-75.4098
-73.0029
-70.59
-68.1885
-65.8136
-63.4785
-61.1946
-58.9713
-56.8153
-54.7274
9681.67
9458.48
9181.5
8779.16
8096.42
7155.13
6082.32
5108.91
4365.14
3767.21
3200.97
2680.29
2268.77
1980.47
1789.86
1661
1549.42
1407
1212.15
1004.99
860.452
809.46
818.761
851.35
891.428
927.997
949.732
949.865
926.58
881.291
817.717
741.115
657.541
572.569
490.308
413.404
343.123
279.657
222.946
172.765
129.134
91.4092
59.2158
32.1196
9.59511
-8.91832
-24.0759
-36.4611
-46.6286
-55.0503
-62.0928
-68.0174
-72.9976
-77.1448
-80.5282
-83.2027
-85.2164
-86.618
-87.4599
-87.7974
-87.6876
-87.1866
-86.3479
-85.2207
-83.8498
-82.2774
-80.5358
-78.6593
-76.6766
-74.6138
-72.4942
-70.3389
-68.167
-65.9953
-63.8391
-61.7114
-59.6239
-57.5859
-55.6036
-53.6727
4120.87
4436.58
4840.9
5169.36
5436.12
5682.59
5917.99
6057.28
6008.2
5743.54
5328.45
4871.53
4450.77
4093.6
3797.75
3552.26
3344.32
3159.65
2982.36
2798.82
2604.79
2406.53
2212.8
2027.4
1845.27
1660.52
1467.79
1267.24
1064.63
868.369
688.624
533.535
406.314
305.753
227.726
166.879
118.392
78.6384
45.8152
18.6243
-3.79654
-22.0244
-36.5397
-47.8249
-56.4
-62.8145
-67.6161
-71.2985
-74.2597
-76.7763
-79.0049
-81.0041
-82.7696
-84.2699
-85.4639
-86.3268
-86.8474
-87.0284
-86.8841
-86.4365
-85.7123
-84.7407
-83.5515
-82.1739
-80.6358
-78.9635
-77.1812
-75.3113
-73.3744
-71.3892
-69.3732
-67.342
-65.31
-63.2901
-61.2938
-59.3315
-57.4121
-55.5429
-53.7277
-51.9573
-2792.47
-2823.43
-2844.88
-2850.04
-2898.39
-2989.49
-3105.76
-3223.42
-3328.07
-3417.14
-3488.81
-3534.18
-3537.11
-3477.63
-3340.59
-3123.1
-2834.27
-2495.21
-2136.75
-1792.5
-1488
-1232.76
-1022.17
-845.914
-694.763
-562.67
-446.68
-347.043
-266.266
-206.597
-168.505
-149.483
-144.613
-148.728
-157.241
-166.474
-173.942
-177.851
-178.084
-175.061
-169.115
-160.904
-151.325
-141.293
-131.59
-122.807
-115.324
-109.311
-104.745
-101.443
-99.125
-97.4864
-96.2508
-95.2035
-94.1927
-93.1248
-91.9474
-90.6369
-89.1884
-87.6083
-85.91
-84.1101
-82.2264
-80.2764
-78.2764
-76.2416
-74.1855
-72.1202
-70.0566
-68.0042
-65.9718
-63.9674
-61.998
-60.0702
-58.1897
-56.3617
-54.5908
-52.8799
-51.2292
-49.6262
-3279.28
-3384.17
-3521.45
-3658.08
-3794.07
-3894.64
-3958.99
-3995.98
-4016.25
-4024.45
-4014.65
-3975.47
-3901.85
-3801.26
-3687.46
-3570.2
-3451.1
-3329.42
-3207.19
-3089.96
-2983.9
-2891.93
-2811.19
-2732.91
-2644.63
-2533.34
-2388.48
-2205.82
-1989.48
-1750.69
-1505.67
-1269.85
-1054.14
-864.22
-701.944
-566.817
-456.8
-369.368
-301.884
-250.33
-211.716
-183.657
-163.917
-150.448
-141.46
-135.461
-131.272
-128.03
-125.161
-122.333
-119.392
-116.295
-113.061
-109.731
-106.353
-102.97
-99.6168
-96.3209
-93.1008
-89.9693
-86.9338
-83.9986
-81.1651
-78.4331
-75.801
-73.2665
-70.827
-68.4797
-66.2217
-64.0506
-61.9638
-59.9593
-58.0353
-56.1904
-54.4233
-52.7329
-51.1184
-49.5777
-48.1068
-46.6923
-8100.93
-7651.87
-7056.98
-6400.9
-5673.66
-4973.69
-4333.75
-3771.37
-3283.24
-2836.22
-2380.42
-1884.06
-1362.75
-871.719
-466.157
-172.586
12.3596
110.82
149.181
148.084
121.442
79.325
29.5691
-22.2346
-73.1407
-122.025
-168.595
-212.513
-252.686
-287.319
-314.488
-332.937
-342.544
-344.221
-339.622
-330.783
-319.248
-306.3
-292.271
-277.968
-263.764
-249.876
-236.419
-223.424
-210.901
-198.866
-187.345
-176.366
-165.957
-156.137
-146.923
-138.328
-130.355
-122.995
-116.223
-110
-104.279
-99.0122
-94.1549
-89.6656
-85.5086
-81.6529
-78.0715
-74.7408
-71.6398
-68.7498
-66.0535
-63.5353
-61.181
-58.9775
-56.9132
-54.9775
-53.1609
-51.4551
-49.8526
-48.3469
-46.9324
-45.6024
-44.3496
-43.1628
-8061.67
-7841.47
-7551.88
-7215.86
-6796.1
-6390.83
-6054.24
-5796.19
-5585.01
-5376.41
-5138.41
-4860.14
-4541.05
-4178.06
-3775.32
-3353.59
-2938.06
-2547
-2192.51
-1881.61
-1615.65
-1391.75
-1204.45
-1047.99
-916.319
-803.849
-706.111
-619.813
-542.644
-472.962
-409.498
-351.308
-297.853
-249.047
-205.195
-166.802
-134.333
-107.978
-87.4319
-71.7922
-59.6885
-49.6327
-40.4543
-31.5835
-23.0085
-14.9871
-7.75289
-1.40293
4.07944
8.76084
12.7234
16.0332
18.7544
20.955
22.7085
24.0901
25.1724
26.0206
26.6885
27.2146
27.6194
27.9061
28.0816
28.0897
27.9263
27.576
27.0382
26.3304
25.4857
24.546
23.554
22.5477
21.5572
20.6048
19.7064
18.8698
18.0973
17.3816
16.7099
16.0654
976.426
1017.62
1093.51
1193.73
1309
1390.66
1422.04
1405.9
1355.98
1285.69
1204.65
1117.54
1024.99
925.454
818.037
700.749
572.245
431.915
281.023
125.29
-26.9662
-167.998
-291.721
-393.634
-471.041
-523.147
-551.128
-558.292
-548.99
-527.28
-496.421
-459.135
-418.325
-377.329
-338.847
-303.825
-271.603
-240.723
-209.451
-176.31
-139.957
-100.844
-61.4423
-25.394
4.44176
26.6333
41.2744
49.4791
52.7712
52.7498
51.3407
49.4567
47.5522
45.8522
44.4294
43.2808
42.3719
41.6588
41.0949
40.6334
40.2261
39.8248
39.3822
38.8518
38.1953
37.3852
36.4104
35.2794
34.0192
32.6702
31.276
29.8768
28.5049
27.1839
25.9291
24.7485
23.643
22.6037
21.621
20.6783
5790.09
5612.84
5376.24
5053.62
4603.22
4065.6
3462.69
2814.72
2139.94
1454.84
782.581
166.343
-323.546
-610.388
-668.807
-564.101
-408.336
-277.85
-185.668
-115.512
-53.9912
3.59542
58.2224
109.898
157.999
201.501
239.024
268.633
288.168
295.742
290.03
270.442
237.69
195.044
148.019
102.117
60.7752
25.9415
-0.0847077
-14.5638
-16.9001
-10.0429
1.83624
15.2926
27.6512
37.3523
43.9948
48.1038
50.9458
52.9248
53.9695
54.4593
54.6237
54.5498
54.2876
53.8831
53.3853
52.841
52.2859
51.7362
51.1831
50.5941
49.9197
49.1071
48.1141
46.9202
45.5299
43.9703
42.2844
40.5205
38.7329
36.9618
35.239
33.5861
32.0154
30.5317
29.1337
27.8107
26.557
25.3495
-5251.04
-4992.24
-4659.64
-4251.79
-3770.78
-3234.97
-2673.16
-2120.16
-1594.47
-1097.11
-628.312
-189.949
218.799
592.331
913.019
1162.38
1331.28
1421.72
1447.17
1428
1382.38
1321.32
1249.45
1168.83
1081.5
989.493
895.396
802.662
715.237
637.156
571.738
518.058
467.209
411.518
353.414
300.382
255.119
215.07
180.727
154.48
136.969
127.523
123.875
123.196
122.918
121.622
118.821
114.667
109.161
103.185
97.1804
91.3489
85.8344
80.7326
76.1074
72.0046
68.4571
65.4816
63.0707
61.183
59.7373
58.6122
57.6557
56.7043
55.6173
54.316
52.7767
51.0217
49.107
47.0963
45.0624
43.0532
41.1031
39.2326
37.4517
35.7628
34.1634
32.6415
31.1921
29.7727
11440
11280.8
11048.3
10636.9
9905.27
8775.8
7191.08
5352.71
3689.73
2450.78
1525.72
747.94
93.3651
-416.347
-788.195
-1043.58
-1203.02
-1286.45
-1313.44
-1301.89
-1264.73
-1208.85
-1138.56
-1057.77
-970.369
-881.321
-795.474
-715.094
-638.164
-559.036
-472.419
-376.989
-275.749
-177.6
-92.0992
-24.8872
24.1721
58.8346
83.55
101.696
115.214
125.081
131.762
135.504
136.78
135.898
133.192
129.087
123.922
118.034
111.712
105.192
98.6766
92.3504
86.3818
80.923
76.101
72.0057
68.6777
66.0978
64.1825
62.7792
61.6873
60.7335
59.7416
58.5675
57.1474
55.495
53.6694
51.6746
49.647
47.6337
45.6651
43.7602
41.9287
40.1737
38.4952
36.8833
35.3344
33.7935
-9950.46
-9110.77
-8124.4
-7306.6
-6613.23
-6053.11
-5570.45
-5128.87
-4716.44
-4364.31
-4098.12
-3889.97
-3690.4
-3468.56
-3213.9
-2927.04
-2618.2
-2301.98
-1993.68
-1706.89
-1450.44
-1226.69
-1032.89
-864.169
-715.569
-583.028
-463.696
-355.739
-258.188
-171.416
-96.5794
-33.7464
18.9977
64.0687
102.422
133.916
158.469
176.494
188.794
196.335
200.005
200.523
198.468
194.317
188.483
181.319
173.132
164.196
154.753
145.028
135.226
125.557
116.21
107.373
99.2133
91.8772
85.472
80.0573
75.637
72.154
69.4888
67.4832
65.9567
64.6561
63.3935
62.0363
60.5098
58.8041
56.9507
55.0698
53.1415
51.2084
49.3006
47.4351
45.6216
43.8653
42.1706
40.5206
38.9331
37.3236
-2067.31
-2006.09
-1867.15
-1648.56
-1389.61
-1130.43
-901.568
-736.483
-659.514
-676.584
-765.955
-882.355
-971.693
-982.766
-871.722
-613.353
-226.794
210.535
599.564
881.427
1053.93
1141.88
1171.79
1164.84
1136.23
1095.36
1047.03
993.29
935.258
875
815.422
758.856
706.133
657.234
611.568
568.663
528.127
489.454
452.31
416.522
382.031
349.34
318.687
290.221
264.035
240.152
218.519
199.02
181.499
165.776
151.675
139.041
127.743
117.683
108.785
100.991
94.2463
88.4933
83.6599
79.6541
76.3608
73.6389
71.3277
69.2845
67.3817
65.5482
63.7012
61.8364
59.9302
58.0034
56.0773
54.1702
52.2955
50.4609
48.6697
46.9218
45.2181
43.5643
41.9464
40.2488
12903.5
12745.9
12524.7
12174.9
11664.7
11070.8
10429.4
9747.08
9020.79
8249.47
7441.02
6600.7
5714.35
4746.09
3694.75
2691.25
1926.02
1427.52
1068.65
775.748
564.746
445.389
401.715
413.197
459.035
519.37
578.908
628.607
665.017
687.328
695.46
689.761
671.222
641.436
603.213
559.796
514.227
468.936
425.68
385.599
349.322
316.585
287.165
260.837
237.365
216.491
197.955
181.496
166.869
153.853
142.254
131.909
122.685
114.475
107.192
100.763
95.1242
90.2097
85.9513
82.2731
79.0921
76.3198
73.8664
71.6523
69.5975
67.614
65.6824
63.7603
61.8664
59.9996
58.1601
56.3487
54.5672
52.8164
51.0955
49.4027
47.7398
46.1009
44.4784
42.7168
-4678.06
-3992.3
-3139.11
-2368.31
-1606.95
-959.173
-424.503
-29.6408
208.983
315.793
338.932
317.008
268.436
203.542
142.666
109.068
98.8091
78.0308
25.7858
-41.8212
-95.341
-115.286
-94.1845
-37.6903
39.0025
117.887
185.016
234.354
266.626
285.623
295.184
298.038
295.871
289.781
280.617
269.139
256.072
242.076
227.712
213.436
199.592
186.409
174.03
162.538
151.968
142.322
133.574
125.682
118.592
112.243
106.571
101.512
97.004
92.9899
89.417
86.237
83.4049
80.8778
78.6137
76.571
74.7081
72.984
71.3599
69.801
68.2781
66.7672
65.2534
63.7277
62.1885
60.6375
59.0775
57.512
55.9442
54.3765
52.8102
51.2457
49.6882
48.1368
46.5861
44.8629
-6703.76
-6525.22
-6344.8
-6242.65
-6104.17
-5885.83
-5551.23
-5128.34
-4656.75
-4155.98
-3636.01
-3112.15
-2605.99
-2138.01
-1721.13
-1361.42
-1062.07
-823.596
-640.498
-501.032
-390.608
-294.832
-205.159
-117.786
-36.1293
30.876
75.6293
96.4377
97.3284
85.1729
66.6388
46.6026
28.1435
13.0057
1.97887
-4.81376
-7.69816
-7.27062
-4.2488
0.637446
6.71963
13.4331
20.3304
27.0758
33.4321
39.2443
44.4253
48.9419
52.8019
56.0416
58.7147
60.8839
62.614
63.967
64.9999
65.762
66.2946
66.6309
66.7959
66.808
66.6796
66.4189
66.0314
65.5215
64.8936
64.1534
63.308
62.3658
61.3366
60.2303
59.0572
57.8264
56.5469
55.2261
53.8701
52.4838
51.0766
49.6546
48.2178
46.5845
2483.61
2371.42
2204.77
1975.35
1676.16
1430.21
1284.46
1207.89
1164.84
1149.82
1165.93
1206.72
1257.58
1301.85
1324.6
1313.7
1260.87
1162.33
1017.9
832.898
618.19
386.7
153.011
-67.5195
-261.506
-419.628
-537.544
-615.31
-656.162
-665.172
-648.288
-611.796
-561.829
-503.999
-443.088
-382.822
-325.804
-273.588
-226.938
-186.02
-150.598
-120.19
-94.1969
-71.9889
-52.9713
-36.62
-22.4958
-10.2422
0.424495
9.72993
17.8546
24.9449
31.1222
36.4883
41.1304
45.1241
48.5354
51.4221
53.835
55.8187
57.4127
58.6518
59.5678
60.1894
60.5436
60.6558
60.5502
60.2499
59.7768
59.1516
58.3933
57.5196
56.5464
55.4883
54.3573
53.1635
51.9203
50.641
49.3328
47.8123
10224.2
10024.9
9803.49
9496.79
9025.8
8464.59
7872.51
7272.81
6651.53
5989.11
5286.01
4562.41
3845.32
3154.76
2498.72
1877.77
1291.68
743.41
240.84
-207.452
-592.828
-905.789
-1138.99
-1288.59
-1356.57
-1353.08
-1295.09
-1202.2
-1092.2
-978.377
-869.087
-768.651
-678.587
-598.673
-527.783
-464.482
-407.385
-355.346
-307.65
-263.954
-224.22
-188.537
-156.919
-129.17
-104.903
-83.6507
-64.9671
-48.4774
-33.8851
-20.9564
-9.50262
0.632456
9.58165
17.4605
24.3715
30.4073
35.6517
40.1808
44.0633
47.3604
50.1273
52.4128
54.261
55.7118
56.8018
57.5648
58.0325
58.2349
58.2004
57.9558
57.5264
56.9359
56.2065
55.3586
54.4105
53.3777
52.2772
51.1269
49.9464
48.5651
-11026.2
-10596.2
-10095.2
-9572.51
-8988.57
-8311.07
-7490.47
-6537.51
-5531.44
-4589.32
-3808.28
-3216.67
-2780.62
-2451.74
-2204.69
-2035.05
-1939.21
-1903.56
-1906.56
-1923.35
-1928.33
-1900.44
-1825.75
-1701.67
-1536.06
-1343.85
-1142.42
-947.521
-770.728
-618.938
-495.272
-399.888
-330.17
-281.072
-246.464
-220.82
-200.189
-182.188
-165.536
-149.592
-134.094
-119.052
-104.567
-90.7117
-77.4891
-64.8577
-52.7994
-41.3308
-30.4824
-20.2936
-10.7993
-2.02339
6.0235
13.3435
19.952
25.876
31.1507
35.8164
39.9139
43.4829
46.56
49.1788
51.3701
53.1624
54.5828
55.6577
56.4132
56.8754
57.0706
57.0255
56.7665
56.3201
55.7123
54.9686
54.1137
53.1711
52.1653
51.127
50.1242
49.0786
-4096.49
-4122.04
-4272.57
-4559.21
-4948.12
-5251.19
-5345.85
-5197.03
-4838.39
-4333.33
-3750.05
-3146.86
-2563.08
-2021.06
-1535.57
-1120.54
-788.89
-548.864
-400.576
-334.219
-330.135
-362.111
-402.263
-425.735
-417.612
-376.521
-310.405
-231.062
-149.577
-74.4227
-11.1388
37.1728
68.874
84.1319
85.4608
76.7048
62.214
45.7536
29.8824
15.9479
4.4553
-4.56538
-11.2355
-15.669
-17.9617
-18.245
-16.7369
-13.7234
-9.53061
-4.49674
1.05732
6.84533
12.6265
18.2133
23.4763
28.3411
32.7771
36.7817
40.3666
43.5486
46.3448
48.7706
50.8397
52.5641
53.9556
55.027
55.7921
56.2674
56.472
56.4275
56.1582
55.6899
55.0498
54.265
53.362
52.3649
51.2972
50.186
49.0654
47.8016
9511.73
9244.12
8845.37
8290.21
7563.26
6851.62
6247.53
5743.14
5274.22
4781.21
4243.61
3678.92
3123.59
2615.05
2183.18
1848.57
1622.1
1502.14
1470.43
1492.16
1523.78
1525.28
1467.64
1335.14
1135.68
900.239
668.062
469.008
316.869
207.113
118.387
32.5575
-49.867
-117.238
-160.981
-182.676
-188.537
-183.884
-171.916
-154.767
-134.293
-112.185
-89.965
-68.8371
-49.5964
-32.6577
-18.1295
-5.90757
4.23746
12.5847
19.4212
25.0137
29.6018
33.3964
36.5801
39.309
41.7107
43.88
45.8773
47.7315
49.4474
51.0132
52.4085
53.6097
54.595
55.3468
55.8537
56.1117
56.1245
55.9031
55.4648
54.8321
54.0312
53.09
52.0365
50.8974
49.6974
48.4637
47.2314
45.899
-4564.81
-4407.68
-4172.81
-3872.22
-3532.91
-3199.96
-2891.31
-2624.05
-2417.9
-2285.69
-2223.79
-2221.08
-2259.89
-2320.45
-2383.14
-2429.7
-2445.11
-2419.69
-2351.34
-2247.66
-2126.16
-2008.76
-1914.98
-1855.05
-1828.77
-1816.98
-1786.35
-1703.76
-1557.26
-1376.48
-1205.94
-1053.61
-898.885
-730.555
-555.679
-385.83
-232.675
-107.735
-18.4105
36.2303
64.5406
75.9178
78.1045
75.637
71.0824
65.9336
61.0304
56.8037
53.4274
50.9206
49.2088
48.1737
47.6853
47.6225
47.8829
48.3849
49.0638
49.8672
50.7495
51.6679
52.5803
53.4457
54.2242
54.8794
55.3782
55.6944
55.8093
55.7121
55.4011
54.883
54.1721
53.2889
52.2578
51.1061
49.8613
48.5503
47.1978
45.8298
44.4862
43.1308
-4206.58
-4338.19
-4474.5
-4537.71
-4517.95
-4423.98
-4296.68
-4161.4
-4024.18
-3884.96
-3743.54
-3600.85
-3458.12
-3315.73
-3172.8
-3027.95
-2880.36
-2730.48
-2579.76
-2429.22
-2277.33
-2119.22
-1947.62
-1754.42
-1534.37
-1290.75
-1036.76
-798.74
-609.272
-472.504
-361.826
-262.093
-178.505
-119.066
-84.4101
-69.2273
-65.6178
-66.2903
-66.0009
-61.7732
-53.4808
-41.8613
-28.6765
-15.1786
-2.2933
9.29075
19.2078
27.4227
34.1054
39.4879
43.7865
47.173
49.7901
51.7649
53.2172
54.2598
54.9946
55.5073
55.8632
56.1057
56.2586
56.3297
56.3145
56.2008
55.9726
55.6143
55.1135
54.4637
53.6648
52.7241
51.6546
50.474
49.2022
47.8594
46.4647
45.0353
43.5849
42.124
40.6696
39.1907
1368.6
1711.96
2224.55
2841.16
3510.36
4085.77
4544.2
4908.21
5174.38
5316.03
5319.6
5195.17
4968.22
4671.9
4339.69
3999.21
3669.27
3359.96
3074.69
2812.43
2569.73
2343.36
2132.82
1940.78
1771.28
1625.69
1495.63
1355.5
1179.22
977.66
795.294
657.736
554.209
464.765
377.957
293.398
217.413
157.064
115.85
92.0931
80.8795
77.0413
77.2465
79.9193
83.9701
88.1155
91.1366
92.3166
91.5295
89.2053
86.1953
82.9065
79.5888
76.4153
73.4803
70.8222
68.4447
66.3306
64.4504
62.7678
61.2424
59.8334
58.5008
57.2082
55.924
54.6236
53.2901
51.9152
50.4987
49.0474
47.5726
46.0877
44.6053
43.1352
41.6841
40.2559
38.8534
37.4801
36.1484
34.8537
8706.17
8473.58
8075.92
7427.58
6471.06
5357.91
4230.48
3191.24
2278.46
1490.89
820.106
261.429
-184.404
-518.209
-744.291
-874.931
-929.118
-926.548
-881.089
-797.925
-678.305
-528.287
-360.852
-190.864
-30.9401
109.389
221.718
300.927
348.596
371.793
380.635
386.096
393.835
402.244
406.179
401.764
387.665
365.237
337.425
307.286
277.208
248.63
222.23
198.263
176.796
157.851
141.426
127.537
116.203
107.194
99.818
93.7253
88.6446
84.3204
80.5484
77.1793
74.1076
71.26
68.5845
66.0432
63.6076
61.2551
58.9684
56.7345
54.5449
52.3957
50.2876
48.2264
46.2215
44.285
42.4294
40.6649
38.9969
37.4247
35.9424
34.5401
33.2084
31.942
30.7456
29.5778
-7961.38
-7769.66
-7554.04
-7331.66
-7137.85
-6943.59
-6685.01
-6285.93
-5698.9
-4940.09
-4094.69
-3289.21
-2631.39
-2153.4
-1826.56
-1607.49
-1461.59
-1365.89
-1304.35
-1263.59
-1231.37
-1197.9
-1157.12
-1107.17
-1050.44
-992.059
-936.213
-883.158
-830.397
-774.749
-715.1
-651.547
-583.745
-511.208
-434.154
-353.694
-272.258
-193.38
-120.942
-58.146
-6.74608
33.0984
62.444
82.9514
96.3918
104.671
109.188
111.071
110.875
109.227
106.607
103.34
99.6416
95.6628
91.5116
87.2692
83.0003
78.7584
74.5879
70.5253
66.5993
62.8311
59.2348
55.8183
52.5848
49.5342
46.6647
43.974
41.4599
39.1206
36.9533
34.9529
33.1103
31.4117
29.8391
28.3717
26.9907
25.6843
24.4532
23.294
14.8761
12.7698
10.2597
7.49929
4.61277
1.67191
-1.28009
-4.19903
-7.02852
-9.7109
-12.1449
-14.2378
-15.8843
-16.9908
-17.495
-17.3813
-16.6876
-15.5002
-13.9397
-12.1418
-10.2359
-8.33146
-6.50997
-4.82649
-3.31284
-1.98409
-0.839593
0.133619
0.947681
1.62093
2.174
2.6269
2.99526
3.30023
3.55665
3.76999
3.94601
4.09041
4.20416
4.28969
4.34689
4.37607
4.37753
4.35186
4.3004
4.22512
4.12845
4.01311
3.88169
3.73632
3.58366
3.42245
3.25539
3.08447
2.91123
2.73696
2.56286
2.38978
2.21977
2.05284
1.89059
1.73454
1.58586
1.44604
1.31727
1.20145
1.09882
1.00944
0.933135
0.869147
0.816155
0.772401
0.735919
0.704724
0.676935
0.650804
0.624719
0.59719
0.56684
0.532382
0.492617
0.446441
0.392856
0.330962
0.259919
0.178902
0.0870608
-0.0165217
-0.13288
-0.26323
-0.409061
-0.572249
-0.755219
-0.961093
-1.19377
-1.45781
-1.75813
-2.09955
-2.48631
-2.9219
-3.40913
-3.95054
-4.54878
-5.20686
-5.92791
-6.71462
-7.56835
-8.48821
-9.47026
-10.5067
-11.5857
-12.6909
-13.8017
-14.894
-15.9409
-16.9143
-17.7861
-18.53
-19.1231
-19.547
-19.789
-19.8434
-19.7102
-19.3962
-18.9142
-18.2816
-17.5196
-16.6518
-15.7028
-14.6979
-13.6614
-12.6161
-11.5829
-10.5799
-9.62238
-8.72223
-7.88822
-7.12593
-6.43794
-5.82409
-5.28202
-4.80763
-4.39574
-4.04061
-3.73649
-3.47787
-3.25975
-3.07773
-2.92803
-2.80748
-2.71351
-2.64398
-2.5971
-2.57126
-2.56496
-2.57681
-2.60564
-2.65063
-2.71133
-2.78771
-2.87992
-2.98808
-3.11202
-3.25105
-3.40379
-3.56816
-3.74129
-3.91969
-4.09926
-4.2755
-4.4436
-4.59866
-4.73587
-4.85066
-4.93894
-4.99724
-5.02286
-5.01402
-4.97002
-4.89091
-4.77771
-4.63225
-4.45708
-4.2553
-4.0304
-3.78613
-3.52636
-3.2549
-2.97544
-2.69132
-2.40568
-2.12099
-1.83986
-1.56343
-1.29459
-1.03144
-0.780705
-0.530607
-0.307168
-0.0628565
18.9596
16.2024
13.3036
10.2812
7.21444
4.15528
1.12986
-1.81359
-4.64574
-7.30702
-9.72091
-11.808
-13.4867
-14.6841
-15.3509
-15.4743
-15.083
-14.2446
-13.0551
-11.6228
-10.0538
-8.44136
-6.86027
-5.36479
-3.98947
-2.75293
-1.6603
-0.706523
0.118182
0.827188
1.43586
1.95934
2.41024
2.79953
3.14545
3.45241
3.70997
3.93041
4.10817
4.24956
4.35407
4.42127
4.45194
4.44786
4.4114
4.34556
4.25384
4.13996
4.00796
3.86215
3.70185
3.53368
3.35954
3.18138
3.00099
2.81989
2.63926
2.46053
2.28412
2.11243
1.94645
1.78754
1.63723
1.49731
1.36952
1.25526
1.1551
1.06907
0.996699
0.936889
0.888006
0.848036