/*--------------------------------*- C++ -*----------------------------------*\
| =========                 |                                                 |
| \\      /  F ield         | OpenFOAM: The Open Source CFD Toolbox           |
|  \\    /   O peration     | Version:  2012                                  |
|   \\  /    A nd           | Website:  www.openfoam.com                      |
|    \\/     M anipulation  |                                                 |
\*---------------------------------------------------------------------------*/
FoamFile
{
    version     2.0;
    format      ascii;
    class       surfaceScalarField;
    location    "0.82";
    object      phi;
}
// * * * * * * * * * * * * * * * * * * * * * * * * * * * * * * * * * * * * * //

dimensions      [0 3 -1 0 0 0 0];
oriented        oriented;


internalField   nonuniform List<scalar> 
84340
(
4.27177e-05
-0.000266612
0.000223894
-1.32572e-05
-0.000428639
0.000484614
-0.000150035
-0.000505661
0.000642438
-0.000262322
-0.000610738
0.000723025
-0.000364471
-0.000716206
0.000818355
-0.000524485
-0.000790953
0.000950966
-0.000802375
-0.000813223
0.00109111
-0.0011692
-0.000809573
0.0011764
-0.00146656
-0.00083601
0.00113337
-0.00139422
-0.000989667
0.000917323
-0.000706371
-0.00122376
0.000535916
0.000328367
-0.00107043
3.56924e-05
0.00114524
-0.000347471
-0.000469404
0.00159028
0.000393679
-0.000838714
0.00175837
0.000807556
-0.000975645
0.00170034
0.00101015
-0.000952128
0.00144431
0.00111357
-0.000857539
0.00104589
0.0011389
-0.000740477
0.000570669
0.00109872
-0.000623499
7.59402e-05
0.00101006
-0.000515326
-0.000388998
0.000884114
-0.000419177
-0.000787063
0.000738432
-0.000340367
-0.00111674
0.000618638
-0.000288965
-0.00137321
0.000526274
-0.000269804
-0.00157047
0.000475488
-0.000278225
-0.00169259
0.000422349
-0.00030023
-0.00173364
0.000350673
-0.00030962
-0.00171607
0.000242148
-0.000259718
-0.00166174
9.68833e-05
-0.000151216
-0.00159045
-5.78991e-05
-1.33904e-05
-0.00151566
-0.000183912
0.00010912
-0.00144033
-0.000258538
0.000183214
-0.00136244
-0.000284739
0.000206842
-0.00128011
-0.000279566
0.000197238
-0.00118467
-0.000259627
0.000164193
-0.00107227
-0.000235476
0.000123071
-0.00094258
-0.000212248
8.25589e-05
-0.000798277
-0.000192116
4.78125e-05
-0.000645262
-0.000175448
2.2433e-05
-0.000491139
-0.000162333
8.20955e-06
-0.000343225
-0.00015278
4.86599e-06
-0.000206953
-0.000147109
1.08378e-05
-8.4209e-05
-0.000146603
2.38591e-05
2.13888e-05
-0.000147269
4.16716e-05
0.000113554
-0.000152049
5.98834e-05
0.000184823
-0.00015678
8.55108e-05
0.000239918
-0.000167938
0.000112843
0.000276739
-0.000183029
0.000146208
0.000302421
-0.000200907
0.000175226
0.000320614
-0.000220934
0.000202742
0.000334162
-0.000242641
0.000229092
0.000345387
-0.00026565
0.000254426
0.000356035
-0.000289666
0.000279018
0.000367159
-0.000314457
0.000303333
0.000379062
-0.000339833
0.000327931
0.000391392
-0.000365629
0.000353298
0.000403372
-0.000391691
0.000379711
0.000414052
-0.000417862
0.000407183
0.000422555
-0.000443962
0.000435459
0.000428244
-0.000469776
0.000464086
0.00043081
-0.000495041
0.000492475
0.00043029
-0.000519429
0.000519948
0.000427073
-0.000542549
0.000545767
0.000421881
-0.00056396
0.000569152
0.000415757
-0.000583196
0.00058932
0.000410038
-0.000599808
0.000605527
0.000406306
-0.000613412
0.000617143
0.000406312
-0.000623735
0.00062373
0.000411859
-0.000630662
0.000625114
0.000424677
-0.000634279
0.000621461
0.00044627
-0.000634905
0.000613312
0.000477786
-0.000633111
0.000601595
0.000519906
-0.000629701
0.000587581
0.000572779
-0.000625664
0.000572792
0.000636021
-0.000622093
0.000558851
0.000708783
-0.000620069
0.000547306
0.000789887
-0.000620568
0.000539465
0.000877998
-0.000624389
0.000536279
0.000971733
-0.000632179
0.000538445
-0.000645828
0.000547405
0.00107016
-0.00080011
0.000533498
-0.0022927
0.00106395
-0.00410888
0.00131051
-0.00619734
0.00147772
-0.00849613
0.00158259
-0.0108767
0.00158965
-0.0131937
0.00150374
-0.0153563
0.00135306
-0.017303
0.00111067
-0.0189747
0.000681977
-0.0201944
-4.05159e-06
-0.0207141
-0.000550646
-0.0204791
-0.00058248
-0.0196336
-0.000451836
-0.0182578
-0.000568294
-0.0163059
-0.000941677
-0.0139543
-0.00123809
-0.0115994
-0.00121595
-0.00954994
-0.000950768
-0.00789475
-0.000645137
-0.00659499
-0.000415644
-0.00557528
-0.000281276
-0.0047414
-0.000215249
-0.00402753
-0.000187588
-0.00337274
-0.000179305
-0.00276971
-0.000180683
-0.00223265
-0.000186387
-0.00179633
-0.000194171
-0.0014953
-0.000204151
-0.00133703
-0.000216165
-0.00129209
-0.000228858
-0.00131096
-0.000239666
-0.00134892
-0.000246776
-0.00137875
-0.000249734
-0.0013893
-0.000249079
-0.00137908
-0.000245697
-0.00135078
-0.000240542
-0.00130821
-0.000234693
-0.00125314
-0.000230514
-0.00118819
-0.000227285
-0.00111627
-0.000224694
-0.00103909
-0.000224291
-0.000959107
-0.00022659
-0.00087469
-0.000231687
-0.000787144
-0.000239594
-0.000693822
-0.000250102
-0.000598665
-0.000263096
-0.000503479
-0.000278215
-0.00040935
-0.000295036
-0.000317175
-0.000313109
-0.000227801
-0.000332015
-0.000142057
-0.000351393
-6.07564e-05
-0.000370967
1.53328e-05
-0.000390546
8.55273e-05
-0.000410028
0.000149268
-0.00042937
0.000206148
-0.00044857
0.000255918
-0.000467632
0.000298497
-0.000486541
0.000333969
-0.000505247
0.000362576
-0.000523647
0.000384742
-0.000541596
0.000401099
-0.000558906
0.000412506
-0.000575367
0.000420075
-0.000590765
0.000425165
-0.000604898
0.000429349
-0.000617596
0.000434347
-0.000628733
0.000441933
-0.000638248
0.000453818
-0.000646163
0.000471519
-0.000652607
0.000496241
-0.000657833
0.000528769
-0.000662228
0.000569397
-0.000666293
0.00061792
-0.000670616
0.000673667
-0.000675816
0.000735593
-0.000682495
0.000802401
-0.000691197
0.000872759
-0.000702538
-0.000718536
0.000945466
0.000384749
0.000148749
0.000685959
0.000762741
0.000530565
0.00146591
-2.79476e-06
0.00201108
-0.000724406
0.0023042
-0.00142492
0.00229017
-0.0019221
0.00200091
-0.00215372
0.00158468
-0.00227425
0.0012312
-0.00260093
0.00100866
-0.00336807
0.000763084
-0.0042775
0.000358782
-0.00477
-8.99769e-05
-0.00477376
-0.000448072
-0.00455682
-0.000785239
-0.00428959
-0.0012089
-0.00399101
-0.00153667
-0.00364836
-0.0015586
-0.0032616
-0.00133753
-0.00285506
-0.00105167
-0.00245607
-0.000814636
-0.00208427
-0.000653078
-0.00174773
-0.000551789
-0.00144589
-0.000489433
-0.0011746
-0.000450593
-0.000930485
-0.000424796
-0.000712391
-0.000404482
-0.000522027
-0.000384535
-0.000363839
-0.000362339
-0.000241203
-0.0003388
-0.0001549
-0.000315162
-0.000102988
-0.000291578
-8.22448e-05
-0.00026752
-8.69108e-05
-0.000245069
-0.00011119
-0.0002248
-0.000149659
-0.000207229
-0.000200987
-0.000189213
-0.000259287
-0.000176394
-0.000320977
-0.000168824
-0.000381535
-0.000166727
-0.000436061
-0.000170168
-0.00048133
-0.000179022
-0.000515011
-0.000192909
-0.000535442
-0.000211256
-0.000541701
-0.000233335
-0.000533463
-0.00025834
-0.00051118
-0.000285379
-0.000475865
-0.00031353
-0.000429006
-0.000341896
-0.000372459
-0.000369656
-0.000308343
-0.000396132
-0.000238909
-0.000420827
-0.000166418
-0.000443458
-9.30095e-05
-0.000463955
-2.06085e-05
-0.000482429
4.91454e-05
-0.000499124
0.000114932
-0.000514357
0.00017575
-0.000528449
0.000230897
-0.000541688
0.000279942
-0.000554292
0.000322721
-0.000566427
0.000359311
-0.000578185
0.000390026
-0.000589621
0.000415422
-0.000600764
0.000436284
-0.000611627
0.000453607
-0.000622222
0.000468564
-0.000632553
0.000482454
-0.000642622
0.000496637
-0.000652431
0.000512454
-0.00066198
0.000531136
-0.000671288
0.000553708
-0.000680406
0.000580911
-0.000689431
0.000613136
-0.000698517
0.000650402
-0.000707882
0.000692376
-0.00071779
0.000738427
-0.000728546
0.000787732
-0.000740502
0.000839391
-0.000754197
-0.00077122
0.000892075
-0.000103882
0.000252631
-0.000232673
0.000891532
-0.00032777
0.00156101
-0.000256261
0.00193958
0.000110122
0.00193782
0.000785544
0.00161475
0.00169501
0.00109145
0.00272993
0.000549764
0.00382075
0.000140381
0.00492448
-9.50755e-05
0.00591533
-0.00022777
0.00667117
-0.000397052
0.00716575
-0.00058456
0.00742734
-0.000709659
0.00736899
-0.000726888
0.00682223
-0.000662144
0.00585962
-0.000574066
0.00481108
-0.00051006
0.00394823
-0.000474679
0.00334314
-0.000446591
0.00294901
-0.000420501
0.00269951
-0.00040358
0.00255074
-0.000403022
0.00247949
-0.000418175
0.00246925
-0.000440359
0.00250009
-0.000455632
0.002549
-0.000453398
0.00259466
-0.000430194
0.00262046
-0.000388133
0.00261332
-0.000331664
0.00256432
-0.000266155
0.00246962
-0.000196886
0.00233078
-0.000128679
0.00214659
-6.08775e-05
0.00192547
-3.67998e-06
0.00167791
4.03292e-05
0.00141871
6.99907e-05
0.0011575
8.48201e-05
0.000903242
8.54306e-05
0.000663377
7.31375e-05
0.000444025
4.91842e-05
0.00024976
1.52428e-05
8.36159e-05
-2.67646e-05
-5.27626e-05
-7.4877e-05
-0.000158915
-0.000127182
-0.00023542
-0.000181836
-0.00028375
-0.000237047
-0.000306172
-0.000291108
-0.000305611
-0.000342456
-0.000285499
-0.000389769
-0.000249581
-0.00043205
-0.000201715
-0.000468693
-0.000145674
-0.000499499
-8.49547e-05
-0.000524674
-2.26143e-05
-0.000544769
3.8851e-05
-0.00056059
9.75517e-05
-0.000573058
0.000152246
-0.000583144
0.000202214
-0.000591656
0.000247173
-0.000599252
0.000287149
-0.000606403
0.000322411
-0.000613446
0.000353393
-0.000620603
0.000380658
-0.000628028
0.000404862
-0.000635831
0.000426736
-0.000644096
0.000447069
-0.000652886
0.000466685
-0.000662238
0.000486419
-0.000672164
0.000507082
-0.000682643
0.000529424
-0.00069363
0.000554084
-0.000705066
0.000581543
-0.000716889
0.000612084
-0.00072906
0.000645771
-0.000741569
0.000682435
-0.000754454
0.000721698
-0.000767809
0.000763024
-0.000781828
0.000805745
-0.000796919
-0.000814424
0.000848949
-0.000221626
0.000474257
-0.000550698
0.0012206
-0.000652164
0.00166247
-0.000332757
0.00162017
0.000305117
0.00129994
0.000987628
0.000932234
0.00144742
0.000631659
0.00153696
0.000460217
0.00128793
0.000389411
0.000833746
0.000359111
0.000294862
0.000311114
-0.000308256
0.000206066
-0.000936157
4.33405e-05
-0.00149231
-0.000153503
-0.00185164
-0.000367557
-0.0019261
-0.000587688
-0.00169968
-0.000800484
-0.00126999
-0.000939749
-0.000736415
-0.00100826
-0.000182722
-0.00100028
0.00035168
-0.000954903
0.000832715
-0.000884615
0.00123313
-0.00080344
0.00153597
-0.000721015
0.00173508
-0.000639465
0.00184829
-0.000568848
0.00191681
-0.000521918
0.00197467
-0.000488051
0.0020461
-0.000459567
0.00214516
-0.000430723
0.00227209
-0.000393085
0.00241544
-0.000340233
0.00255736
-0.000270596
0.00268072
-0.000184243
0.0027619
-8.48549e-05
0.00278152
2.07108e-05
0.00272817
0.000123342
0.00260006
0.000212928
0.00240455
0.000280943
0.00215662
0.000321063
0.00187569
0.000330115
0.0015825
0.000308436
0.00129634
0.000259393
0.00103235
0.000189109
0.000800556
0.000104616
0.000605964
1.27567e-05
0.000449484
-8.05677e-05
0.000329106
-0.000170731
0.000241078
-0.000254428
0.00018088
-0.00032957
0.00014392
-0.00039509
0.000125905
-0.000450678
0.000122933
-0.000496527
0.000131425
-0.000533165
0.000148085
-0.000561429
0.000169987
-0.000582491
0.000194749
-0.00059782
0.000220539
-0.000608934
0.000246177
-0.000617294
0.000270997
-0.000624071
0.000294717
-0.000630123
0.000317301
-0.000636029
0.000338864
-0.000642167
0.000359619
-0.000648783
0.000379836
-0.000656048
0.000399826
-0.000664086
0.000419928
-0.000672988
0.000440504
-0.000682814
0.000461924
-0.000693584
0.000484559
-0.000705279
0.000508761
-0.000717832
0.000534838
-0.000731142
0.000563026
-0.000745078
0.00059347
-0.000759503
0.000626194
-0.000774293
0.000661094
-0.000789354
0.00069794
-0.000804656
0.000736392
-0.00082028
0.000776001
-0.000836528
-0.000854553
0.00081613
-7.96211e-05
0.000553878
-0.000252343
0.00139333
-0.00034877
0.0017589
-0.000356209
0.00162761
-0.000418924
0.00136266
-0.000635897
0.00114921
-0.00100845
0.00100421
-0.0014641
0.00091587
-0.00193913
0.000864439
-0.00241852
0.000838503
-0.00295474
0.000847329
-0.0036352
0.000886534
-0.00450124
0.000909381
-0.00546944
0.000814689
-0.00633907
0.000502074
-0.00697224
4.54842e-05
-0.00733874
-0.000433978
-0.00745095
-0.000827543
-0.00734075
-0.00111846
-0.00702943
-0.0013116
-0.0065863
-0.00139803
-0.00609322
-0.00137769
-0.00562745
-0.00126921
-0.00524535
-0.00110312
-0.00496989
-0.000914922
-0.00480126
-0.00073748
-0.00472743
-0.000595749
-0.00471243
-0.000503056
-0.004711
-0.000460993
-0.00467993
-0.000461798
-0.0045826
-0.000490411
-0.0043936
-0.000529231
-0.00410011
-0.000564089
-0.00370184
-0.000582508
-0.00321575
-0.000570948
-0.0026693
-0.000525739
-0.00209399
-0.000451964
-0.00152326
-0.000357804
-0.000987509
-0.000254812
-0.000506537
-0.000159908
-9.40922e-05
-8.233e-05
0.000243811
-2.94677e-05
0.000507433
-4.22902e-06
0.000701932
-5.39015e-06
0.000835073
-2.85252e-05
0.000915705
-6.78749e-05
0.000952914
-0.000117776
0.000955012
-0.00017283
0.000929456
-0.000228872
0.000883182
-0.000283297
0.000822995
-0.000334902
0.000755616
-0.000383299
0.00068725
-0.000428162
0.000622866
-0.000468782
0.000565682
-0.000504245
0.000517176
-0.000533984
0.000477535
-0.000558179
0.000446295
-0.000577695
0.000422715
-0.000593715
0.000406025
-0.000607381
0.000395494
-0.000619593
0.000390447
-0.000630982
0.000390246
-0.000641966
0.000394295
-0.000652833
0.000402042
-0.000663796
0.000412996
-0.00067504
0.000426741
-0.000686732
0.000442947
-0.00069902
0.000461379
-0.000712017
0.000481889
-0.000725789
0.000504401
-0.000740345
0.00052889
-0.00075563
0.000555352
-0.00077154
0.000583781
-0.000787932
0.000614141
-0.000804652
0.000646347
-0.000821561
0.000680261
-0.000838569
0.000715678
-0.000855697
0.000752319
-0.000873169
-0.000891955
0.000789721
-0.000140401
0.00069428
-0.000220469
0.00147339
-0.000336694
0.00187512
-0.000772809
0.00206372
-0.00155924
0.00214909
-0.00252627
0.00211624
-0.00348962
0.00196756
-0.00429847
0.00172472
-0.00485961
0.00142558
-0.00523351
0.0012124
-0.00569593
0.00130975
-0.00654335
0.00173395
-0.00775747
0.0021235
-0.00905606
0.00211328
-0.0102097
0.00165569
-0.0111189
0.000954706
-0.0118018
0.000248909
-0.012262
-0.000367302
-0.0124733
-0.000907154
-0.0124053
-0.00137966
-0.0120366
-0.00176674
-0.011355
-0.00205929
-0.0103833
-0.00224088
-0.00915028
-0.00233614
-0.00770557
-0.00235964
-0.00611349
-0.00232956
-0.00444848
-0.00226075
-0.0028005
-0.00215104
-0.00124812
-0.00201337
0.000144514
-0.00185444
0.00133363
-0.00167953
0.00228977
-0.00148537
0.00301948
-0.0012938
0.00354121
-0.00110424
0.00388695
-0.000916689
0.00409571
-0.0007345
0.00420539
-0.000561638
0.00424958
-0.000401992
0.00425455
-0.000259782
0.00423368
-0.000139042
0.00419405
-4.26965e-05
0.00413623
2.83454e-05
0.0040534
7.86075e-05
0.00394872
9.92912e-05
0.00381795
0.000102241
0.00365472
9.53563e-05
0.00345824
7.87051e-05
0.00323002
5.53873e-05
0.0029745
2.66502e-05
0.00269832
-7.11478e-06
0.00240976
-4.63434e-05
0.00211805
-9.15937e-05
0.00183265
-0.000142755
0.00156245
-0.000198588
0.00131511
-0.000256903
0.00109632
-0.000315194
0.000909422
-0.000371278
0.000755341
-0.000423615
0.000632935
-0.000471308
0.00053954
-0.000513985
0.000471607
-0.00055166
0.000425245
-0.000584619
0.000396616
-0.000613338
0.000382191
-0.000638408
0.000378882
-0.000660486
0.000384091
-0.000680249
0.000395711
-0.000698352
0.00041209
-0.000715399
0.000431982
-0.000731909
0.000454487
-0.000748294
0.000478985
-0.000764843
0.00050508
-0.000781726
0.00053254
-0.000799
0.000561247
-0.00081664
0.000591154
-0.000834559
0.000622247
-0.000852655
0.00065452
-0.000870842
0.000687942
-0.000889119
0.000722421
-0.000907648
-0.000927229
0.000757695
0.000879544
-0.000185264
0.00241891
-6.59762e-05
0.00377473
0.000519308
0.00451208
0.00132638
0.00463863
0.00202253
0.00435286
0.00240202
0.00396899
0.00235143
0.00381367
0.00188003
0.00412193
0.00111733
0.0050056
0.00032873
0.0064581
-0.000142755
0.00834624
-0.000154187
0.0103854
8.43618e-05
0.0121944
0.000304301
0.013483
0.000367064
0.0141269
0.000310764
0.0141547
0.000221149
0.0136445
0.000142866
0.01269
4.73394e-05
0.011399
-8.86121e-05
0.00986552
-0.000233285
0.0081946
-0.000388367
0.00649353
-0.000539805
0.00482935
-0.000671961
0.00325407
-0.000784352
0.00180355
-0.000879041
0.000497454
-0.000954659
-0.000646227
-0.00100735
-0.00162567
-0.00103393
-0.00244649
-0.00103361
-0.0031183
-0.00100772
-0.00364582
-0.000957854
-0.004046
-0.000893618
-0.00433579
-0.000814452
-0.00452603
-0.000726448
-0.00462621
-0.00063432
-0.00464458
-0.000543266
-0.0045916
-0.000454969
-0.00447668
-0.000374708
-0.00430943
-0.000306285
-0.00409974
-0.000252392
-0.00385716
-0.000214236
-0.00358508
-0.000193469
-0.00330219
-0.000183596
-0.00302199
-0.000177958
-0.00274422
-0.000182416
-0.00247203
-0.000193482
-0.00220649
-0.00021016
-0.00194811
-0.000231729
-0.00169745
-0.000257778
-0.00145588
-0.000287906
-0.00122594
-0.000321533
-0.00101094
-0.000357762
-0.000814109
-0.000395415
-0.000637726
-0.000433286
-0.000482658
-0.000470261
-0.000348472
-0.000505465
-0.000233748
-0.000538338
-0.000136427
-0.000568629
-5.40858e-05
-0.000596326
1.58203e-05
-0.000621566
7.57666e-05
-0.000644566
0.000128
-0.000665571
0.000174438
-0.000684846
0.000216625
-0.000702674
0.000255743
-0.000719366
0.000292653
-0.000735262
0.000327963
-0.000750709
0.00036209
-0.000766036
0.000395325
-0.000781529
0.000427882
-0.000797399
0.000459933
-0.000813777
0.00049164
-0.000830708
0.000523166
-0.000848166
0.000554681
-0.000866074
0.000586362
-0.000884336
0.000618384
-0.000902864
0.000650901
-0.000921636
0.000684014
-0.000940761
-0.000960885
0.00071767
0.000468813
-0.000654078
0.0017144
-0.00131156
0.00332493
-0.00109122
0.0046648
-1.34887e-05
0.00532578
0.00136155
0.00525263
0.00247517
0.00451197
0.00309209
0.0032019
0.0031901
0.00142927
0.00288996
-0.000605379
0.00236338
-0.00251604
0.00176791
-0.00388454
0.00121431
-0.00461189
0.000811712
-0.00491299
0.000605407
-0.00499225
0.000446323
-0.00488638
0.000204888
-0.00456804
-9.71865e-05
-0.00402444
-0.000400736
-0.0033285
-0.000648597
-0.0026217
-0.000795412
-0.00200922
-0.000845768
-0.00156602
-0.000831563
-0.00131948
-0.000786352
-0.0012585
-0.000732934
-0.00135963
-0.000683228
-0.00159669
-0.000641983
-0.00194145
-0.000609893
-0.00236173
-0.000587082
-0.00282143
-0.000574227
-0.00328366
-0.000571383
-0.00371569
-0.000575685
-0.00409222
-0.000581328
-0.00440218
-0.000583659
-0.00463463
-0.000581998
-0.00478269
-0.000578391
-0.00484676
-0.000570245
-0.0048331
-0.00055693
-0.00474888
-0.000539182
-0.0046041
-0.000519496
-0.00440999
-0.000500396
-0.00417761
-0.000484772
-0.00391772
-0.000474119
-0.00364266
-0.000468528
-0.00335857
-0.000467695
-0.00306552
-0.000471001
-0.00277016
-0.000477779
-0.00247602
-0.000487626
-0.0021862
-0.000499975
-0.00190373
-0.000514202
-0.00163185
-0.000529654
-0.00137407
-0.000545683
-0.00113393
-0.00056168
-0.000914558
-0.000577132
-0.000718281
-0.000591691
-0.000546347
-0.00060522
-0.000398792
-0.000617816
-0.000274485
-0.000629772
-0.000171318
-0.000641505
-8.64983e-05
-0.000653448
-1.68754e-05
-0.000665948
4.07511e-05
-0.000679193
8.93688e-05
-0.000693183
0.000131568
-0.00070777
0.000169441
-0.000722719
0.000204565
-0.000737797
0.000238043
-0.000752845
0.000270588
-0.000767808
0.00030262
-0.00078274
0.00033435
-0.000797767
0.000365868
-0.000813047
0.000397192
-0.000828724
0.000428315
-0.000844901
0.000459237
-0.000861629
0.00048998
-0.000878909
0.000520605
-0.0008967
0.000551212
-0.000914942
0.000581929
-0.000933582
0.000612901
-0.000952607
0.000644246
-0.000972106
-0.000992588
0.000675949
-0.000454609
-0.000199469
-0.000873526
-0.000892646
-0.000570531
-0.00139422
0.000534356
-0.00111838
0.00216105
-0.000265148
0.00398008
0.000656139
0.00569586
0.00137631
0.00703063
0.00185533
0.0077862
0.00213439
0.00788614
0.00226344
0.0073792
0.00227485
0.00639491
0.0021986
0.00516182
0.0020448
0.00395755
0.00180967
0.00292116
0.00148271
0.00205881
0.00106724
0.00136197
0.000599656
0.000806909
0.000154324
0.000340995
-0.000182683
-7.63503e-05
-0.000378067
-0.000486255
-0.000435863
-0.000911831
-0.000405986
-0.00135927
-0.000338914
-0.0018207
-0.000271506
-0.00227779
-0.000226137
-0.00270884
-0.000210932
-0.00309698
-0.000221749
-0.00343446
-0.000249603
-0.00372137
-0.000287323
-0.00396067
-0.000332076
-0.00415113
-0.000385225
-0.00428127
-0.000451193
-0.00433253
-0.000532395
-0.00428206
-0.000632471
-0.00414798
-0.000712465
-0.00395666
-0.000761571
-0.00373872
-0.000774871
-0.00351733
-0.000760567
-0.00330379
-0.000733036
-0.00309999
-0.000704198
-0.00290395
-0.000680813
-0.00271288
-0.000665187
-0.00252422
-0.00065719
-0.00233614
-0.000655768
-0.00214753
-0.000659612
-0.00195794
-0.000667371
-0.00176782
-0.000677752
-0.00157829
-0.0006895
-0.00139105
-0.000701438
-0.00120819
-0.000712519
-0.00103198
-0.000721893
-0.000864693
-0.000728967
-0.000708379
-0.000733446
-0.000564709
-0.000735362
-0.00043486
-0.000735068
-0.00031947
-0.000733207
-0.000218602
-0.00073064
-0.000131763
-0.000728344
-5.79416e-05
-0.000727269
4.31281e-06
-0.000728203
5.67611e-05
-0.000731641
0.000101308
-0.00073773
0.000139825
-0.000746287
0.000173999
-0.000756892
0.000205233
-0.000769031
0.00023461
-0.000782222
0.000262917
-0.000796114
0.000290685
-0.000810508
0.000318253
-0.000825335
0.000345818
-0.000840612
0.000373477
-0.000856383
0.000401266
-0.000872689
0.000429187
-0.00088955
0.000457238
-0.000906961
0.000485435
-0.000924896
0.000513815
-0.000943323
0.000542447
-0.000962213
0.000571409
-0.00098157
0.00060077
-0.00100147
-0.00102231
0.00063049
-0.000525993
0.000326524
-0.00184811
0.000429471
-0.00345984
0.000217516
-0.00470744
0.000129219
-0.00524484
0.000272252
-0.00511362
0.000524925
-0.00454616
0.000808842
-0.00376184
0.00107101
-0.00287306
0.00124561
-0.00191485
0.00130523
-0.000905597
0.0012656
0.000143098
0.00114991
0.00121622
0.000971683
0.00229029
0.0007356
0.00332544
0.000447563
0.00427276
0.00011992
0.00507623
-0.000203819
0.0057111
-0.000480544
0.00619755
-0.000669136
0.00657442
-0.000754931
0.00689163
-0.000753072
0.00717283
-0.000687186
0.00740776
-0.00057385
0.0075591
-0.000422842
0.00758544
-0.000252478
0.00743625
-6.17417e-05
0.00711609
9.84091e-05
0.00664937
0.000217117
0.00606843
0.000293616
0.00540367
0.000332687
0.00468176
0.000336681
0.00392896
0.00030161
0.00317334
0.000223224
0.0024312
0.000109669
0.00173407
-1.53407e-05
0.00110103
-0.00012853
0.000550802
-0.00022464
8.71332e-05
-0.000296899
-0.00029025
-0.000355654
-0.000586459
-0.000407989
-0.000808738
-0.000458534
-0.000965605
-0.00050832
-0.00106529
-0.000557501
-0.00111554
-0.000605522
-0.00112345
-0.0006517
-0.00109559
-0.000695233
-0.00103816
-0.000735181
-0.000957139
-0.000770523
-0.000858305
-0.000800271
-0.000747228
-0.000823596
-0.000629179
-0.000839941
-0.000509034
-0.000849112
-0.000391151
-0.000851329
-0.000279256
-0.000847256
-0.000176354
-0.00083797
-8.46408e-05
-0.00082492
-5.4508e-06
-0.00080983
6.07675e-05
-0.000794562
0.000114424
-0.000780927
0.000156686
-0.000770465
0.000189296
-0.00076425
0.000214329
-0.000762762
0.000233929
-0.000765887
0.000250078
-0.000773042
0.00026444
-0.000783393
0.000278291
-0.000796074
0.000292532
-0.000810354
0.000307737
-0.000825713
0.000324231
-0.000841829
0.000342147
-0.000858528
0.000361485
-0.000875721
0.000382155
-0.000893359
0.00040402
-0.000911415
0.000426931
-0.000929872
0.000450756
-0.000948721
0.000475394
-0.000967961
0.000500781
-0.0009876
0.000526881
-0.00100767
0.000553663
-0.00102825
-0.00104967
0.000581021
0.000614693
-0.000288169
0.00131812
-0.000273958
0.00152494
1.06985e-05
0.00121327
0.000440888
0.000538554
0.000946967
-0.000282179
0.00134566
-0.000970073
0.00149674
-0.0013295
0.00143044
-0.00133313
0.00124924
-0.00106833
0.00104043
-0.00065781
0.000855079
-0.000212067
0.000704163
0.000183608
0.000576007
0.000465306
0.000453903
0.000590126
0.000322742
0.000533017
0.00017703
0.000302121
2.70777e-05
-7.62252e-05
-0.000102198
-0.000575352
-0.00017001
-0.00112997
-0.000200316
-0.00166779
-0.000215253
-0.00211827
-0.000236703
-0.00240421
-0.000287906
-0.0024486
-0.000378454
-0.00224239
-0.000458688
-0.00183597
-0.000468158
-0.00136194
-0.000375622
-0.000899531
-0.000245296
-0.000492104
-0.000113811
-0.000153231
-6.18623e-06
0.000116044
6.74065e-05
0.00031249
0.000105164
0.000425807
0.000109907
0.000447308
8.81685e-05
0.000384129
4.78382e-05
0.000260571
-4.97194e-06
0.000102936
-6.70045e-05
-5.74102e-05
-0.000136553
-0.000198694
-0.00021437
-0.000323229
-0.000283454
-0.00042796
-0.000353803
-0.000511382
-0.000424897
-0.000572219
-0.000496665
-0.000609474
-0.000568267
-0.000622973
-0.000638202
-0.000613542
-0.000704664
-0.000583133
-0.00076559
-0.000534722
-0.000818935
-0.000472044
-0.00086295
-0.00039925
-0.000896391
-0.000320539
-0.000918652
-0.000239835
-0.000929816
-0.000160536
-0.000930629
-8.53838e-05
-0.000922408
-1.64268e-05
-0.000906928
4.49453e-05
-0.000886292
9.79304e-05
-0.000862815
0.000142255
-0.000838886
0.000178134
-0.000816804
0.000206225
-0.000798556
0.000227568
-0.000785593
0.000243469
-0.000778663
0.000255357
-0.000777774
0.000264637
-0.000782322
0.000272575
-0.000791331
0.000280225
-0.000803724
0.000288407
-0.000818537
0.000297717
-0.000835023
0.000308544
-0.000852657
0.000321101
-0.000871086
0.000335453
-0.000890073
0.000351554
-0.00090946
0.000369283
-0.000929144
0.000388481
-0.000949071
0.000408987
-0.000969227
0.000430653
-0.000989627
0.000453358
-0.0010103
0.000477003
-0.00103131
0.000501498
-0.00105274
-0.00107487
0.000526704
-0.000143358
-0.000144811
6.13041e-05
-0.00047862
0.000581805
-0.000509803
0.00103637
-1.36809e-05
0.00126842
0.00071492
0.00145186
0.00116222
0.00187409
0.00107451
0.00262675
0.000677779
0.0035691
0.000306882
0.00448492
0.000124607
0.00521741
0.000122588
0.00570611
0.000215461
0.00593803
0.000344087
0.00591126
0.000480673
0.0056209
0.000613104
0.00506571
0.000732221
0.00426087
0.000831919
0.00326683
0.00089184
0.00215406
0.000942766
0.000972576
0.000981164
-0.000236034
0.000993356
-0.00141059
0.000937849
-0.00246584
0.000767347
-0.00331863
0.000474341
-0.00390421
0.000126892
-0.00420551
-0.000166864
-0.0042381
-0.000343031
-0.00407755
-0.000405848
-0.00379948
-0.000391877
-0.00346709
-0.000338581
-0.00312599
-0.000273687
-0.00280529
-0.000215536
-0.00252035
-0.000175033
-0.00227481
-0.00015737
-0.00206344
-0.000163539
-0.00187731
-0.000191099
-0.00170923
-0.000235085
-0.00155806
-0.000287722
-0.0014282
-0.000344228
-0.00130711
-0.000404546
-0.00119642
-0.000464494
-0.00109406
-0.000527259
-0.000996628
-0.000594092
-0.000900623
-0.000664272
-0.00080351
-0.000735314
-0.000704399
-0.000803775
-0.000603914
-0.000866075
-0.000503761
-0.000919087
-0.000406232
-0.000960478
-0.00031374
-0.000988882
-0.000228415
-0.00100398
-0.000151802
-0.00100643
-8.46798e-05
-0.000997751
-2.70428e-05
-0.000980045
2.17607e-05
-0.000955731
6.2784e-05
-0.000927315
9.72148e-05
-0.000897246
0.000126158
-0.00086783
0.000150522
-0.000841167
0.000170999
-0.000819034
0.000188134
-0.000802728
0.000202402
-0.000792931
0.00021429
-0.000789663
0.000224343
-0.000792374
0.000233168
-0.000800156
0.000241417
-0.000811972
0.000249729
-0.000826849
0.000258673
-0.000843968
0.000268702
-0.000862686
0.00028012
-0.000882503
0.000293084
-0.000903037
0.000307626
-0.000924003
0.000323692
-0.00094521
0.000341173
-0.000966552
0.000359938
-0.000987991
0.000379854
-0.00100954
0.000400801
-0.00103125
0.000422671
-0.00105318
0.000445364
-0.00107544
-0.00109825
0.000468744
-1.96477e-05
-0.000125163
0.00011045
-0.000608717
0.000542114
-0.000941467
0.00140992
-0.000881489
0.002757
-0.000632158
0.00442626
-0.000507043
0.00608733
-0.000586557
0.00744197
-0.000676863
0.00834705
-0.000598196
0.00882004
-0.000348383
0.00895521
-1.25751e-05
0.00882692
0.000343743
0.00847541
0.000695598
0.00791491
0.00104118
0.00715563
0.00137238
0.00626608
0.00162177
0.00542754
0.00167047
0.00484229
0.00147709
0.00462271
0.00116235
0.00470613
0.000897743
0.00493696
0.000762521
0.00517437
0.000700438
0.00533899
0.000602728
0.0053657
0.000447637
0.00520991
0.000282673
0.00489592
0.000147134
0.00449349
5.93996e-05
0.00406381
2.38267e-05
0.00363942
3.25187e-05
0.0032316
6.92382e-05
0.00284285
0.000115061
0.00247417
0.000153147
0.00212779
0.000171347
0.00180737
0.000163041
0.00151664
0.000127193
0.00125772
6.78222e-05
0.00103025
-7.61328e-06
0.000833604
-9.10768e-05
0.00066598
-0.000176605
0.000520019
-0.000258584
0.000404584
-0.000349059
0.000315004
-0.00043768
0.000249081
-0.000528169
0.000203775
-0.000618967
0.00017534
-0.000706879
0.000159689
-0.000788124
0.000152738
-0.000859124
0.000150641
-0.000916991
0.000149988
-0.000959825
0.000148005
-0.000986899
0.000142767
-0.000998737
0.00013338
-0.000997042
0.000120064
-0.000984436
0.00010406
-0.00096404
8.73287e-05
-0.000938999
7.21122e-05
-0.000912098
6.04469e-05
-0.00088558
5.37732e-05
-0.000861157
5.27296e-05
-0.000840124
5.7147e-05
-0.000823451
6.62172e-05
-0.000811798
7.8765e-05
-0.000805479
9.35457e-05
-0.000804444
0.000109493
-0.000808323
0.000125865
-0.000816529
0.000142275
-0.000828382
0.000158627
-0.000843201
0.000175011
-0.000860352
0.000191589
-0.000879265
0.000208523
-0.000899437
0.000225934
-0.000920448
0.000243896
-0.000941965
0.000262444
-0.000963758
0.000281585
-0.000985694
0.000301314
-0.00100772
0.000321613
-0.00102984
0.000342459
-0.0010521
0.000363824
-0.00107455
0.000385677
-0.00109729
-0.00112053
0.00040795
0.000411407
-0.000536571
0.000772585
-0.000969895
0.000845479
-0.00101436
0.000813185
-0.000849195
0.000706751
-0.000525724
0.000275606
-7.58986e-05
-0.000681832
0.000370881
-0.00200165
0.000642957
-0.00325863
0.000658781
-0.00412903
0.000522017
-0.00454505
0.000403447
-0.00457432
0.000373012
-0.00429949
0.000420766
-0.00378253
0.000524218
-0.00306866
0.000658514
-0.00221079
0.000763895
-0.00127147
0.00073115
-0.000320432
0.000526048
0.000590032
0.000251886
0.00143425
5.35264e-05
0.00221288
-1.61093e-05
0.00287136
4.19565e-05
0.0033637
0.000110386
0.00367196
0.00013938
0.00380426
0.000150375
0.0037878
0.000163592
0.00366309
0.000184108
0.0034726
0.000214321
0.00325535
0.000249768
0.00303931
0.000285275
0.00283966
0.000314715
0.00265995
0.000332857
0.00249533
0.000335963
0.00233641
0.000321958
0.00217319
0.000290415
0.00199886
0.000242155