/*--------------------------------*- C++ -*----------------------------------*\
| =========                 |                                                 |
| \\      /  F ield         | OpenFOAM: The Open Source CFD Toolbox           |
|  \\    /   O peration     | Version:  2012                                  |
|   \\  /    A nd           | Website:  www.openfoam.com                      |
|    \\/     M anipulation  |                                                 |
\*---------------------------------------------------------------------------*/
FoamFile
{
    version     2.0;
    format      ascii;
    class       volVectorField;
    location    "0.82";
    object      U;
}
// * * * * * * * * * * * * * * * * * * * * * * * * * * * * * * * * * * * * * //

dimensions      [0 1 -1 0 0 0 0];


internalField   nonuniform List<vector> 
42400
(
(8.80308 -7.89993 -9.70765e-18)
(15.5415 -14.3117 -1.17872e-17)
(15.3827 -15.3274 1.23154e-17)
(14.6462 -15.554 0)
(15.9147 -17.82 0)
(16.988 -19.438 -5.65536e-19)
(16.4086 -19.5776 0)
(13.5128 -18.5185 5.72287e-19)
(8.6817 -16.4581 0)
(3.23915 -12.6026 5.40367e-19)
(-2.64133 -5.24937 4.63307e-19)
(-10.9993 7.54794 -3.53378e-19)
(-21.7281 24.6359 -5.44959e-17)
(-30.6587 38.3209 5.55143e-17)
(-34.3383 43.8579 -1.72003e-19)
(-33.6615 43.4274 0)
(-30.9417 39.8598 0)
(-27.5713 34.5504 0)
(-24.2696 28.5164 0)
(-21.3717 22.5919 0)
(-19.0756 17.3603 0)
(-17.7861 13.3364 -2.79602e-19)
(-17.9753 10.9517 -2.19636e-17)
(-19.5794 10.3064 3.55809e-18)
(-21.853 10.8901 1.85551e-17)
(-23.6879 11.6533 -2.37353e-19)
(-23.7703 11.3969 -2.06081e-19)
(-21.0792 9.17185 3.49278e-19)
(-15.8031 4.85806 0)
(-9.51516 -0.498938 0)
(-4.12262 -5.25656 2.70153e-19)
(-0.632194 -8.29197 -2.73354e-19)
(1.06746 -9.52193 1.76208e-19)
(1.6041 -9.52673 -1.09268e-18)
(1.57739 -8.91179 9.53362e-19)
(1.37163 -8.03972 0)
(1.17412 -7.0801 0)
(1.05528 -6.10994 0)
(1.03067 -5.17338 0)
(1.08749 -4.30046 -2.97406e-18)
(1.2014 -3.51566 2.98322e-18)
(1.35514 -2.83746 -3.41388e-18)
(1.53887 -2.27636 1.25059e-19)
(1.74658 -1.83633 6.94644e-18)
(1.97341 -1.51209 -3.38977e-18)
(2.2042 -1.2957 3.4085e-18)
(2.42289 -1.17645 -6.99621e-18)
(2.62256 -1.13882 3.34475e-18)
(2.80513 -1.16604 2.19631e-19)
(2.97874 -1.23665 -3.17178e-18)
(3.1486 -1.33574 6.14653e-18)
(3.31858 -1.45344 1.95276e-19)
(3.49203 -1.58227 -3.11908e-18)
(3.67051 -1.71664 3.08319e-19)
(3.85316 -1.85265 0)
(4.03684 -1.98781 0)
(4.21691 -2.12072 0)
(4.388 -2.25068 -2.13977e-19)
(4.54491 -2.37707 -1.93935e-19)
(4.68312 -2.4989 0)
(4.79896 -2.61444 -2.63219e-18)
(4.88958 -2.72104 2.73106e-18)
(4.95282 -2.81511 2.17843e-18)
(4.98728 -2.89228 -2.1378e-18)
(4.99247 -2.94769 0)
(4.96905 -2.97646 0)
(4.91911 -2.97412 1.48626e-18)
(4.84633 -2.93716 -1.45301e-18)
(4.75594 -2.86348 -1.38008e-19)
(4.6546 -2.75277 0)
(4.54998 -2.60679 0)
(4.45038 -2.42948 -1.01158e-19)
(4.36404 -2.22677 -9.11856e-20)
(4.2985 -2.00611 0)
(4.25986 -1.77577 -7.38495e-20)
(4.25223 -1.54401 -6.25357e-19)
(4.27732 -1.3183 6.06556e-19)
(4.33463 -1.10474 1.04534e-19)
(4.42648 -0.903328 4.40039e-19)
(4.56013 -0.716967 3.08989e-19)
(-5.03324 1.11626 0)
(-12.0855 -1.62485 1.53299e-16)
(-10.42 -10.5377 -1.56935e-16)
(-9.99463 -26.8473 0)
(-10.9184 -40.466 0)
(-14.1915 -53.1367 1.39457e-16)
(-18.723 -64.3857 -1.41829e-16)
(-21.9589 -75.1545 -5.76528e-19)
(-19.4793 -89.2189 0)
(-5.90122 -114.752 -5.47357e-19)
(13.4871 -150.572 -4.72119e-19)
(17.6009 -158.383 -2.22145e-17)
(-6.01308 -125.248 1.82001e-17)
(-37.7143 -92.4617 5.15812e-18)
(-55.6007 -73.0414 -5.97142e-18)
(-61.5946 -56.1468 6.1578e-18)
(-62.7315 -39.9133 0)
(-60.4266 -26.3599 -1.10394e-19)
(-55.4157 -16.7114 0)
(-48.7296 -10.9159 0)
(-41.0711 -8.24737 0)
(-33.1033 -7.85166 -1.1774e-17)
(-25.5222 -8.77929 -2.23855e-18)
(-18.7375 -10.0888 1.5437e-17)
(-12.8371 -11.1258 0)
(-7.87174 -11.6414 6.19499e-20)
(-3.93013 -11.6196 2.12784e-19)
(-1.05957 -11.1788 -3.59021e-19)
(0.769636 -10.5594 -1.6872e-17)
(1.69169 -9.98978 1.70417e-17)
(1.9284 -9.56415 -4.15473e-19)
(1.72938 -9.24612 -3.95098e-19)
(1.31378 -8.96414 -9.85439e-18)
(0.836649 -8.65764 1.013e-17)
(0.385954 -8.29927 8.05649e-18)
(0.00172655 -7.88954 -8.27134e-18)
(-0.302935 -7.44546 0)
(-0.523693 -6.98829 2.74051e-19)
(-0.660527 -6.53451 0)
(-0.714512 -6.09762 4.79627e-19)
(-0.68997 -5.68975 -4.89224e-18)
(-0.593309 -5.31959 5.35044e-18)
(-0.431111 -4.99213 -2.66451e-19)
(-0.20855 -4.70633 2.63227e-19)
(0.0698535 -4.45677 7.03959e-20)
(0.399281 -4.23591 2.51419e-19)
(0.767841 -4.03905 -2.42675e-19)
(1.15949 -3.86614 -3.53876e-18)
(1.5608 -3.71317 3.53347e-18)
(1.96173 -3.57612 0)
(2.35386 -3.45184 -1.90631e-19)
(2.73019 -3.33813 -3.62271e-19)
(3.08517 -3.23386 -2.2224e-18)
(3.41481 -3.13893 2.22511e-18)
(3.71655 -3.05401 2.49543e-19)
(3.98905 -2.98017 -3.60991e-18)
(4.23186 -2.91845 3.9848e-18)
(4.4451 -2.86949 2.14147e-19)
(4.6291 -2.83325 1.94057e-19)
(4.78418 -2.80901 -2.49825e-18)
(4.91057 -2.79514 2.45848e-18)
(5.00852 -2.78916 -1.43004e-19)
(5.07827 -2.78801 -9.5223e-20)
(5.12042 -2.78803 0)
(5.13616 -2.78519 1.26922e-18)
(5.12743 -2.77525 -1.23901e-19)
(5.09707 -2.75404 -1.35131e-18)
(5.04876 -2.71767 0)
(4.98697 -2.66288 2.26703e-19)
(4.91679 -2.58737 -7.8032e-20)
(4.84373 -2.49014 -7.14741e-19)
(4.77349 -2.37172 7.97363e-19)
(4.71161 -2.23426 6.58427e-19)
(4.66307 -2.08138 -5.97668e-19)
(4.63188 -1.91786 1.13912e-19)
(4.62068 -1.74914 -3.92183e-19)
(4.63058 -1.58079 3.21465e-19)
(4.66159 -1.4177 -1.0455e-19)
(4.71576 -1.26208 2.88007e-19)
(4.79597 -1.13058 -2.43477e-19)
(-16.4572 15.1361 3.52814e-17)
(-44.6651 43.8882 -1.94779e-19)
(-71.2978 62.9747 1.20852e-19)
(-91.8947 79.4243 -1.75667e-19)
(-107.613 86.597 0)
(-112.976 86.0048 6.09223e-17)
(-110.279 80.1069 -1.1183e-16)
(-103.463 72.5823 5.06651e-17)
(-96.4895 65.7487 -2.87649e-17)
(-89.3255 59.2142 8.41808e-18)
(-77.4082 45.3194 2.1129e-17)
(-57.9094 21.1326 -7.65088e-20)
(-34.3605 -1.43988 7.77178e-21)
(-11.7728 -19.1303 -9.33617e-18)
(14.2993 -40.8728 9.56721e-18)
(48.8197 -69.0783 9.57181e-20)
(76.7532 -89.4862 1.08343e-17)
(82.2601 -90.6563 -1.45692e-19)
(69.7361 -77.7372 -1.09798e-17)
(52.3105 -61.1905 4.60318e-20)
(37.8134 -46.9356 -8.11763e-20)
(27.7336 -36.2609 -1.16425e-19)
(21.0283 -28.5222 0)
(16.5115 -22.8266 6.23843e-20)
(13.4255 -18.54 3.15896e-18)
(11.3266 -15.2633 -8.18264e-18)
(9.91769 -12.7359 5.47721e-18)
(8.97672 -10.7735 -9.24495e-18)
(8.32629 -9.24779 9.36273e-18)
(7.82183 -8.04343 1.2392e-17)
(7.36669 -7.0949 -2.40221e-17)
(6.90201 -6.3406 -4.78732e-19)
(6.39801 -5.74162 1.32577e-17)
(5.85616 -5.26727 0)
(5.29526 -4.8972 0)
(4.7367 -4.61802 3.11001e-19)
(4.19691 -4.42389 0)
(3.69242 -4.30646 1.37749e-19)
(3.24021 -4.25413 -1.00114e-17)
(2.85376 -4.25482 1.94767e-17)
(2.54512 -4.29325 -9.71576e-18)
(2.32141 -4.35469 0)
(2.18367 -4.4266 0)
(2.12897 -4.49762 -6.29968e-18)
(2.1516 -4.55819 5.96613e-18)
(2.24353 -4.60059 3.00426e-19)
(2.39517 -4.61957 0)
(2.59456 -4.61112 0)
(2.82887 -4.57301 -3.56865e-18)
(3.08544 -4.505 3.54896e-18)
(3.35262 -4.40888 1.90797e-19)
(3.62029 -4.28828 0)
(3.88019 -4.14824 2.39578e-18)
(4.12603 -3.99473 -2.15943e-18)
(4.35338 -3.83396 3.12157e-18)
(4.55942 -3.67189 -3.41758e-18)
(4.74252 -3.51367 2.38777e-18)
(4.90193 -3.36343 -4.81069e-18)
(5.03743 -3.22409 4.19436e-18)
(5.14912 -3.09742 -2.26948e-19)
(5.23737 -2.98411 -1.68394e-18)
(5.30281 -2.8839 -1.28701e-18)
(5.3464 -2.79579 1.35926e-18)
(5.36949 -2.71813 0)
(5.3739 -2.64874 -6.81865e-19)
(5.36191 -2.58504 9.78319e-20)
(5.33616 -2.52414 8.54355e-19)
(5.29959 -2.46299 0)
(5.25531 -2.39857 -1.14505e-19)
(5.20652 -2.32814 -3.0888e-19)
(5.15642 -2.24947 3.62036e-19)
(5.10812 -2.16118 0)
(5.06455 -2.0629 0)
(5.02831 -1.95537 4.60861e-20)
(5.00151 -1.84038 -4.0054e-20)
(4.98563 -1.7206 -1.29456e-19)
(4.98149 -1.59918 1.82974e-19)
(4.98951 -1.4794 0)
(5.01119 -1.36408 -4.0427e-20)
(5.04672 -1.2679 -1.51866e-20)
(-13.2875 9.72026 -3.62673e-19)
(-48.3067 36.1681 3.01717e-19)
(-86.8666 63.1951 1.88192e-19)
(-110.257 81.071 2.93504e-18)
(-114.642 85.726 -2.66587e-18)
(-100.042 77.6968 0)
(-68.8374 59.1249 1.47083e-17)
(-31.2585 37.4365 -1.5359e-17)
(-0.369509 21.4834 1.54361e-17)
(18.4839 14.3174 -1.57617e-17)
(30.5761 10.8763 1.31122e-17)
(42.3552 5.95828 -2.45718e-17)
(52.9477 2.05364 2.17448e-17)
(57.0985 2.54296 -1.55737e-17)
(51.946 7.48203 6.40121e-18)
(39.8164 13.8274 -4.75289e-19)
(26.2115 18.2908 7.63927e-18)
(16.1072 19.127 -1.8546e-17)
(10.7317 17.318 1.09047e-17)
(8.32535 14.9062 -4.6376e-20)
(7.33531 12.7928 -6.68512e-19)
(7.12545 11.0456 2.1591e-17)
(7.43465 9.57528 -2.10631e-17)
(8.08071 8.36226 -1.84914e-19)
(8.89253 7.4354 0)
(9.68879 6.82346 -2.4328e-19)
(10.2971 6.52467 0)
(10.6017 6.49403 -2.71005e-17)
(10.5746 6.63215 5.42388e-19)
(10.2593 6.83685 2.72384e-17)
(9.73553 6.98131 2.60442e-17)
(9.08096 6.98039 -2.57059e-17)
(8.35217 6.79003 3.02555e-19)
(7.57585 6.39706 8.01643e-19)
(6.76652 5.81809 1.9891e-17)
(5.94866 5.09225 -2.06667e-17)
(5.15845 4.26645 0)
(4.43038 3.38051 -1.46997e-17)
(3.79422 2.46003 1.43554e-17)
(3.2748 1.52851 -6.65606e-19)
(2.88765 0.607953 5.39924e-19)
(2.63843 -0.280502 0)
(2.52334 -1.11741 0)
(2.53109 -1.88567 0)
(2.64516 -2.57116 2.01807e-19)
(2.84571 -3.16313 -4.22075e-18)
(3.111 -3.65428 3.91029e-18)
(3.41879 -4.04094 0)
(3.7476 -4.32319 0)
(4.07801 -4.505 -1.84591e-18)
(4.39379 -4.59403 1.80728e-18)
(4.68257 -4.60118 -1.27245e-18)
(4.93616 -4.53985 1.02473e-18)
(5.15037 -4.42491 -1.11195e-20)
(5.32446 -4.27161 7.23142e-19)
(5.46032 -4.09423 -8.57111e-19)
(5.56147 -3.90527 9.78404e-19)
(5.63249 -3.71473 -9.7648e-19)
(5.67796 -3.52961 0)
(5.70193 -3.3547 -1.66613e-20)
(5.7081 -3.19255 3.7744e-19)
(5.6998 -3.04402 -7.24214e-20)
(5.67978 -2.90906 -4.45825e-19)
(5.65054 -2.78689 3.37351e-19)
(5.61444 -2.6762 -1.68167e-19)
(5.57367 -2.57539 -1.68895e-20)
(5.53026 -2.48259 2.35505e-20)
(5.48607 -2.39577 -4.73717e-20)
(5.44267 -2.31278 -8.15245e-21)
(5.4014 -2.23144 7.88512e-20)
(5.36332 -2.14972 -2.98209e-20)
(5.32926 -2.06589 -1.73862e-19)
(5.29989 -1.97873 1.26588e-19)
(5.27571 -1.88763 0)
(5.25709 -1.79274 -1.53402e-19)
(5.24425 -1.6949 -7.70552e-21)
(5.23737 -1.59557 3.90084e-19)
(5.23673 -1.4968 -1.57263e-19)
(5.24366 -1.40127 1.69948e-19)
(5.25873 -1.32248 -1.67016e-19)
(-16.2004 10.381 -2.64385e-17)
(-46.5464 28.4111 0)
(-71.6546 45.4748 0)
(-80.1592 52.6885 -4.10749e-19)
(-70.2364 49.6827 0)
(-51.1967 39.4234 0)
(-32.3627 29.7382 0)
(-20.5145 23.9706 -2.62113e-19)
(-16.0491 19.8002 0)
(-15.8066 16.6235 5.74827e-19)
(-16.423 13.6297 -8.94179e-17)
(-15.6038 9.67444 1.76992e-16)
(-12.8404 4.63873 -8.72955e-17)
(-8.78706 -1.18006 0)
(-3.90595 -7.09048 3.0428e-19)
(1.33496 -12.1584 1.33518e-19)
(5.97893 -15.1889 0)
(8.94948 -15.4099 -8.33663e-17)
(9.86848 -13.2134 1.67871e-16)
(9.34367 -9.67648 -2.36634e-18)
(8.49784 -5.90202 -8.07753e-17)
(8.19061 -2.70801 -7.54357e-19)
(8.70977 -0.502384 0)
(9.8768 0.693305 6.63635e-17)
(11.1361 1.19904 -6.85847e-17)
(11.8608 1.49081 5.91791e-17)
(11.7309 1.99029 -6.0464e-17)
(10.7892 2.88841 -5.15455e-17)
(9.25993 4.2099 5.1474e-17)
(7.39186 5.90491 0)
(5.38332 7.8718 3.82738e-17)
(3.39107 9.95013 -3.86077e-17)
(1.55236 11.942 -8.82562e-19)
(-0.0162529 13.6726 2.58111e-17)
(-1.23905 14.9835 -2.67929e-17)
(-2.08088 15.745 5.55864e-19)
(-2.53625 15.8812 1.41187e-20)
(-2.63351 15.3827 1.3414e-17)
(-2.42932 14.3157 -1.34759e-17)
(-1.99264 12.7928 -8.38076e-18)
(-1.38892 10.9571 1.5833e-18)
(-0.676139 8.95514 5.98129e-18)
(0.101577 6.92071 0)
(0.912002 4.96119 2.49165e-19)
(1.72996 3.15317 9.85254e-19)
(2.53323 1.54387 -9.85659e-19)
(3.30033 0.156739 1.04212e-19)
(4.0105 -1.00209 -3.03746e-20)
(4.64519 -1.93849 0)
(5.19006 -2.66618 1.74092e-19)
(5.63657 -3.20386 -6.35392e-19)
(5.98254 -3.5731 8.12949e-19)
(6.23174 -3.79727 2.70771e-19)
(6.39295 -3.90101 -5.25097e-19)
(6.47866 -3.90958 5.56348e-19)
(6.50366 -3.84782 -6.73743e-19)
(6.48271 -3.73942 -7.60184e-19)
(6.42991 -3.6038 1.26147e-18)
(6.35764 -3.4552 -1.1256e-18)
(6.27489 -3.30411 1.12548e-18)
(6.18804 -3.15688 0)
(6.10143 -3.01697 -2.0445e-20)
(6.01782 -2.8859 -8.3924e-19)
(5.9389 -2.76403 7.84366e-19)
(5.86577 -2.65103 2.09788e-19)
(5.79916 -2.54619 0)
(5.73952 -2.4485 8.39737e-19)
(5.68704 -2.3568 -6.81168e-19)
(5.64172 -2.26975 -4.6831e-20)
(5.6033 -2.18591 -1.15749e-19)
(5.57131 -2.10379 1.5309e-19)
(5.5451 -2.02196 -5.71754e-20)
(5.52396 -1.93921 -6.33085e-19)
(5.5071 -1.85462 5.23921e-19)
(5.49383 -1.76774 -8.23305e-20)
(5.48354 -1.67861 0)
(5.47586 -1.58774 -5.06455e-19)
(5.47082 -1.49636 4.18822e-19)
(5.46956 -1.40648 0)
(5.47225 -1.33082 -3.7903e-19)
(-31.4335 19.9773 9.98093e-20)
(-76.1183 48.0674 2.5485e-17)
(-91.8172 56.1411 -2.47918e-17)
(-73.0206 43.8124 5.0137e-17)
(-44.4374 26.4749 -2.51252e-17)
(-24.255 12.8796 -3.14645e-20)
(-12.6329 3.41502 -2.47806e-17)
(-7.42458 -2.19662 2.59971e-17)
(-6.21288 -5.84621 2.98698e-20)
(-5.65466 -9.19926 -5.29781e-19)
(-3.34957 -13.7053 2.24366e-17)
(1.59413 -20.3317 1.96177e-17)
(8.43565 -28.9584 -4.38419e-17)
(15.4475 -38.4479 3.79521e-17)
(21.593 -47.6677 -7.44234e-17)
(26.9083 -55.5234 3.60739e-17)
(31.2992 -61.1242 0)
(34.4298 -64.3003 0)
(36.0838 -65.1823 -2.73101e-17)
(36.0535 -63.7638 2.28656e-18)
(34.2043 -60.1421 2.45323e-17)
(30.626 -54.8434 -1.90507e-17)
(25.7202 -48.6964 3.61465e-17)
(20.1886 -42.5337 -1.64179e-17)
(14.8447 -37.0887 -1.25791e-17)
(10.4069 -32.9526 2.10225e-18)
(7.38604 -30.3962 1.1875e-17)
(5.95241 -29.3139 7.21897e-19)
(5.95274 -29.2855 -6.95858e-19)
(6.96643 -29.7622 1.34243e-18)
(8.43747 -30.1693 0)
(9.83002 -30.0652 7.63903e-18)
(10.7759 -29.1538 -1.97056e-17)
(11.0198 -27.2367 1.20319e-17)
(10.4626 -24.3453 0)
(9.18499 -20.6666 -1.645e-17)
(7.4031 -16.5064 1.66414e-17)
(5.41981 -12.2361 0)
(3.55427 -8.21136 0)
(2.07341 -4.7209 -1.42613e-17)
(1.15011 -1.94577 1.44117e-17)
(0.836573 0.049682 -7.3033e-19)
(1.07598 1.30145 0)
(1.7404 1.91738 9.42408e-18)
(2.67054 2.04053 -1.30817e-18)
(3.71327 1.81631 -8.84172e-18)
(4.74519 1.37135 -4.88572e-19)
(5.67842 0.806888 6.31705e-19)
(6.45969 0.197083 0)
(7.06482 -0.406858 -4.68342e-18)
(7.49217 -0.970511 8.53609e-18)
(7.75528 -1.47037 -4.14497e-18)
(7.87605 -1.89026 -2.48739e-19)
(7.87954 -2.22071 -2.83394e-18)
(7.79155 -2.46034 4.90985e-19)
(7.63796 -2.6165 4.29471e-18)
(7.4441 -2.70339 -1.57834e-18)
(7.23253 -2.73785 0)
(7.0213 -2.73571 0)
(6.82263 -2.70932 2.02991e-19)
(6.64311 -2.66717 1.87186e-19)
(6.48512 -2.61461 0)
(6.34839 -2.55495 1.92906e-18)
(6.23132 -2.49034 -1.89801e-18)
(6.13187 -2.42234 -1.88702e-18)
(6.04802 -2.35223 -1.59212e-19)
(5.978 -2.28104 1.41898e-18)
(5.92021 -2.20956 -1.36949e-18)
(5.87322 -2.13824 1.33762e-18)
(5.83565 -2.0672 -6.82839e-20)
(5.80606 -1.99618 9.84452e-19)
(5.78298 -1.92469 -9.63299e-19)
(5.76491 -1.85208 -8.46584e-19)
(5.75042 -1.77769 1.04901e-18)
(5.73819 -1.70102 -7.29126e-19)
(5.72717 -1.62186 7.87783e-19)
(5.7167 -1.5403 -7.01532e-19)
(5.70673 -1.45709 1.33313e-18)
(5.6984 -1.37366 -2.30166e-20)
(5.69183 -1.30207 -1.99663e-20)
(-33.185 19.3056 6.8734e-18)
(-77.6573 43.0623 -5.41152e-20)
(-94.7324 54.9149 -1.39438e-17)
(-97.6404 52.8572 3.06721e-17)
(-97.4477 49.8354 -1.67126e-17)
(-96.4623 44.5315 2.02537e-17)
(-95.0897 38.1578 1.30843e-18)
(-92.8876 31.8544 -1.99519e-17)
(-90.1243 26.1962 2.0329e-17)
(-88.5684 22.5071 -1.86234e-17)
(-91.0709 22.4822 1.53435e-17)
(-98.9035 24.8205 -1.48033e-17)
(-108.305 25.5432 1.00299e-17)
(-109.385 19.2333 -1.0247e-17)
(-95.353 1.27228 -4.92663e-20)
(-68.6919 -22.8015 5.21314e-21)
(-38.022 -44.2452 6.21569e-17)
(-10.9184 -61.0989 -6.35949e-17)
(10.3743 -74.109 -5.04925e-19)
(26.3627 -83.0669 9.54054e-19)
(37.1151 -87.3459 1.1773e-16)
(42.7132 -87.1349 -1.18056e-16)
(44.1992 -83.1069 0)
(42.962 -76.2034 -1.07995e-18)
(40.3749 -67.4251 0)
(37.4669 -57.6082 0)
(34.8277 -47.3949 -1.03782e-18)
(32.671 -37.3084 -9.52847e-17)
(30.9468 -27.7985 9.75115e-17)
(29.504 -19.2351 8.06462e-17)
(28.1729 -11.8005 -8.29428e-17)
(26.79 -5.61031 1.22976e-18)
(25.2844 -0.663583 -1.16797e-18)
(23.5754 3.24187 0)
(21.605 6.30583 -1.30891e-18)
(19.409 8.70084 0)
(17.0755 10.5873 0)
(14.7241 12.0902 -9.49567e-19)
(12.489 13.2867 0)
(10.4911 14.2091 0)
(8.81921 14.8512 1.94654e-17)
(7.52536 15.2011 -1.85797e-17)
(6.60545 15.2375 0)
(6.02196 14.9793 0)
(5.70969 14.4555 0)
(5.59351 13.7076 -6.83553e-19)
(5.58134 12.754 4.83326e-19)
(5.60272 11.642 6.30331e-18)
(5.61572 10.4154 -6.70466e-18)
(5.61088 9.10917 4.97911e-18)
(5.60407 7.75099 -5.58177e-18)
(5.62069 6.36862 5.4785e-19)
(5.67649 4.99683 2.74605e-19)
(5.76724 3.67919 0)
(5.87347 2.46162 0)
(5.97349 1.38185 -2.05644e-18)
(6.05365 0.46184 -1.02453e-19)
(6.11017 -0.293293 2.24066e-18)
(6.14542 -0.891399 -1.96164e-18)
(6.16373 -1.34816 2.01437e-18)
(6.16909 -1.68285 3.22017e-18)
(6.16452 -1.91557 -1.8135e-19)
(6.15238 -2.06558 -5.83631e-18)
(6.1346 -2.1504 2.88929e-18)
(6.11303 -2.18536 1.87887e-19)
(6.08944 -2.18345 2.52505e-19)
(6.06551 -2.15534 2.15567e-18)
(6.04271 -2.10948 -4.09631e-18)
(6.02217 -2.05226 1.94255e-18)
(6.00454 -1.98826 1.84011e-19)
(5.98997 -1.92052 1.55792e-18)
(5.97812 -1.8508 -1.72619e-18)
(5.96827 -1.77992 0)
(5.95947 -1.70804 -1.34059e-19)
(5.95073 -1.635 0)
(5.94117 -1.56053 1.03854e-18)
(5.93029 -1.48443 -4.85891e-20)
(5.91816 -1.40689 -9.29426e-19)
(5.90599 -1.32856 5.85781e-19)
(5.89369 -1.26066 1.85123e-19)
(-13.3416 11.6442 -8.4797e-17)
(-33.6515 28.675 1.27386e-16)
(-48.4303 44.5001 5.4731e-19)
(-57.9125 55.3721 1.28143e-16)
(-59.8317 58.8982 -1.30598e-16)
(-52.2425 54.5662 1.2796e-16)
(-36.4937 43.9603 -2.5602e-16)
(-14.0786 30.0018 1.26377e-16)
(11.2628 16.214 -1.15441e-16)
(29.305 8.18323 1.1607e-16)
(26.2316 16.6709 0)
(3.07271 43.4198 -1.85715e-19)
(-17.8146 68.243 -4.83943e-19)
(-19.7024 75.9972 0)
(-6.5786 72.6772 0)
(9.50087 68.4977 0)
(20.163 65.5404 0)
(24.7514 61.9488 1.65146e-20)
(26.6841 56.3855 0)
(28.6273 48.7398 -9.19526e-18)
(31.4129 39.3447 7.25743e-18)
(34.604 28.7529 1.49172e-17)
(37.448 18.0295 -1.62826e-17)
(39.3554 7.95561 -1.91094e-17)
(40.077 -1.0312 2.06268e-17)
(39.5856 -8.69334 -2.65156e-17)
(37.9464 -14.924 2.79473e-17)
(35.2958 -19.7129 -3.31783e-17)
(31.8191 -23.1385 -1.75388e-18)
(27.7395 -25.3601 3.48909e-17)
(23.2932 -26.5691 0)
(18.708 -26.9399 7.20932e-19)
(14.1719 -26.6459 7.45591e-19)
(9.83846 -25.8599 0)
(5.83665 -24.7141 1.34611e-18)
(2.25907 -23.3257 0)
(-0.821105 -21.786 0)
(-3.35529 -20.1727 2.81209e-17)
(-5.30834 -18.5559 -5.14951e-17)
(-6.66915 -16.9963 2.49562e-17)
(-7.45734 -15.5346 1.98415e-17)
(-7.72856 -14.1869 -2.0445e-17)
(-7.57001 -12.946 -4.66502e-19)
(-7.09071 -11.7966 0)
(-6.41573 -10.7558 1.38645e-17)
(-5.63621 -9.79361 -1.23806e-17)
(-4.80705 -8.90572 0)
(-3.95233 -8.08 0)
(-3.08027 -7.31484 -7.61509e-18)
(-2.1906 -6.61272 8.55808e-18)
(-1.28346 -5.97709 7.16641e-18)
(-0.365271 -5.41094 -6.65939e-18)
(0.548857 -4.91679 -5.35416e-18)
(1.43729 -4.49524 9.58737e-18)
(2.2763 -4.14351 -4.51043e-18)
(3.04461 -3.85484 -9.099e-19)
(3.72642 -3.61941 0)
(4.31282 -3.42618 4.22783e-19)
(4.80174 -3.2645 -2.42553e-18)
(5.19703 -3.12509 5.05654e-18)
(5.50685 -3.00041 -2.52952e-18)
(5.74193 -2.88463 0)
(5.91404 -2.77357 -2.2195e-19)
(6.03487 -2.66455 0)
(6.11531 -2.55619 -1.87948e-19)
(6.1651 -2.44819 -2.10495e-19)
(6.19261 -2.34102 -3.86349e-19)
(6.20479 -2.23556 -2.54983e-18)
(6.20713 -2.13283 2.16492e-18)
(6.20368 -2.03365 -2.989e-19)
(6.19716 -1.93856 -1.97216e-18)
(6.18915 -1.84768 2.38183e-18)
(6.1803 -1.76077 -1.66466e-18)
(6.17063 -1.67726 1.61879e-18)
(6.15978 -1.59639 -1.6029e-18)
(6.1473 -1.51736 1.18632e-18)
(6.13291 -1.43941 1.19171e-18)
(6.1168 -1.36209 -1.15513e-18)
(6.10008 -1.28527 2.34157e-19)
(6.08247 -1.21917 -2.19459e-19)
(16.2552 -5.70168 8.90942e-18)
(16.7801 -3.10516 1.21703e-17)
(-25.353 25.71 -2.58031e-17)
(-93.9186 67.2854 2.45902e-17)
(-157.562 105.286 -1.21161e-17)
(-198.34 127.551 -5.4558e-19)
(-207.616 129.811 4.61433e-19)
(-186.715 113.578 4.27594e-18)
(-145.2 84.2257 4.59234e-18)
(-96.6676 49.3017 -8.97213e-18)
(-53.1305 15.4687 6.39513e-19)
(-21.4124 -11.1923 7.0042e-18)
(-5.70905 -22.919 -7.31302e-18)
(-7.30815 -21.5917 4.81805e-18)
(-15.0042 -18.4761 -4.91683e-18)
(-17.9194 -16.8191 -7.96064e-18)
(-16.8038 -16.0243 8.09182e-18)
(-13.3643 -15.9616 -1.66015e-20)
(-7.85971 -15.8459 0)
(-1.2856 -15.4998 1.23075e-17)
(4.9783 -14.8943 -1.22496e-17)
(9.68744 -14.133 -3.44494e-19)
(12.333 -13.3835 -7.4045e-18)
(13.228 -12.8948 7.7232e-18)
(13.1045 -12.9026 -2.29857e-19)
(12.5904 -13.5219 0)
(11.9614 -14.7029 3.25068e-20)
(11.2313 -16.2769 -2.49849e-19)
(10.3373 -18.029 -3.02631e-18)
(9.25072 -19.752 3.11576e-18)
(8.00122 -21.2731 8.04319e-18)
(6.65227 -22.478 -8.7062e-18)
(5.27127 -23.3292 -4.12473e-19)
(3.91491 -23.7992 -1.36392e-17)
(2.63081 -23.894 2.76045e-17)
(1.46091 -23.6348 -1.433e-17)
(0.440109 -23.0583 -1.46543e-17)
(-0.405697 -22.2226 1.51282e-17)
(-1.04396 -21.1894 -2.58552e-19)
(-1.45517 -20.0228 -3.75888e-19)
(-1.6377 -18.7787 5.56813e-19)
(-1.61152 -17.5051 -1.29764e-17)
(-1.40685 -16.245 1.22692e-18)
(-1.05335 -15.0235 1.22314e-17)
(-0.579914 -13.841 -1.14334e-17)
(-0.0235409 -12.6966 1.06359e-17)
(0.593525 -11.6023 0)
(1.24972 -10.5625 8.85869e-18)
(1.92479 -9.57936 -8.84401e-18)
(2.59891 -8.65629 6.54748e-18)
(3.2528 -7.79733 -9.7854e-19)
(3.86818 -7.00701 -5.07599e-19)
(4.42866 -6.28943 -4.57582e-19)
(4.9215 -5.64739 -4.10451e-19)
(5.33912 -5.08191 -4.83941e-18)
(5.68009 -4.59191 2.4362e-19)
(5.94871 -4.17419 0)
(6.15353 -3.82345 -3.86459e-18)
(6.3053 -3.53243 3.00749e-18)
(6.41481 -3.29236 0)
(6.49153 -3.09356 -3.01823e-18)
(6.54288 -2.92632 2.2957e-18)
(6.5743 -2.78168 0)
(6.58973 -2.65213 -2.7627e-19)
(6.59223 -2.53201 0)
(6.58447 -2.41755 -3.28809e-18)
(6.56901 -2.30667 6.81008e-18)
(6.54833 -2.19858 -3.14417e-18)
(6.52467 -2.09328 3.25548e-19)
(6.49984 -1.99115 2.9891e-19)
(6.47514 -1.89266 -2.29657e-18)
(6.45122 -1.7981 1.98497e-18)
(6.42823 -1.70754 -2.62459e-19)
(6.40587 -1.62077 -2.41502e-19)
(6.38365 -1.53741 4.17884e-19)
(6.36103 -1.45689 1.79901e-19)
(6.33763 -1.37864 1.57794e-18)
(6.31351 -1.30214 -6.78953e-20)
(6.28945 -1.22712 -1.3985e-18)
(6.26489 -1.16288 -2.98139e-19)
(40.9734 -18.7915 0)
(101.68 -51.5861 3.33436e-19)
(120.324 -57.9177 4.13882e-19)
(77.184 -37.0412 9.08011e-17)
(8.08336 2.95982 -1.81631e-16)
(-51.4987 39.3545 1.77256e-16)
(-89.2088 65.6135 -8.81389e-17)
(-107.889 81.9083 0)
(-113.262 89.6556 -6.78595e-19)
(-110.32 90.3752 7.2047e-17)
(-102.544 85.5272 -7.40654e-17)
(-91.9973 76.5269 -6.17327e-17)
(-79.4678 65.0245 1.19859e-16)
(-64.4297 52.0725 -5.97037e-18)
(-45.9372 37.692 -6.58647e-18)
(-23.8737 22.318 -4.64701e-17)
(0.10676 7.5534 -2.00359e-19)
(21.9871 -4.91779 2.73295e-17)
(36.7994 -13.4447 -2.77502e-17)
(42.2904 -17.7666 -2.522e-19)
(40.3294 -18.9632 -3.01532e-20)
(34.8258 -18.7494 3.47243e-19)
(28.9643 -18.446 7.45617e-18)
(24.1943 -18.6241 -2.7521e-18)
(20.6555 -19.3033 -4.98937e-18)
(17.9785 -20.258 1.25547e-19)
(15.8242 -21.2552 -6.96737e-19)
(14.07 -22.1855 2.37827e-18)
(12.7499 -23.0494 -4.7926e-18)
(11.9036 -23.8717 2.83145e-18)
(11.4501 -24.606 0)
(11.1806 -25.1186 -1.02963e-17)
(10.8971 -25.2466 2.06217e-17)
(10.5256 -24.8865 -1.04381e-17)
(10.0747 -24.0894 1.04743e-17)
(9.56253 -22.9755 -1.0995e-17)
(9.00305 -21.6699 -3.96027e-19)
(8.42582 -20.2945 0)
(7.87351 -18.9449 -1.52755e-19)
(7.38807 -17.6721 -8.79129e-18)
(6.99715 -16.4879 9.42541e-18)
(6.70833 -15.3899 -2.37531e-19)
(6.51999 -14.3658 2.35802e-19)
(6.42275 -13.4013 0)
(6.40259 -12.4839 0)
(6.44436 -11.6037 7.29152e-18)
(6.53202 -10.7541 -8.13394e-18)
(6.64932 -9.9316 -4.95047e-19)
(6.78078 -9.13571 -6.5696e-18)
(6.91241 -8.36827 1.30758e-17)
(7.03255 -7.63305 -5.79098e-18)
(7.13253 -6.93507 0)
(7.20698 -6.27996 5.36194e-18)
(7.25394 -5.6732 -5.00928e-18)
(7.27453 -5.11959 0)
(7.27237 -4.62273 4.34623e-18)
(7.25279 -4.1846 -4.03307e-18)
(7.2218 -3.80527 3.52201e-18)
(7.18515 -3.48259 -3.06209e-18)
(7.14738 -3.21221 0)
(7.11131 -2.98776 7.09307e-19)
(7.07781 -2.80145 3.2521e-19)
(7.04616 -2.64494 -2.40113e-18)
(7.01477 -2.51021 4.13179e-19)
(6.98196 -2.39045 2.17595e-18)
(6.94661 -2.28042 0)
(6.9085 -2.17659 2.15902e-19)
(6.8682 -2.07688 0)
(6.82679 -1.98028 0)
(6.78545 -1.88643 -2.74236e-18)
(6.74514 -1.79532 2.67372e-18)
(6.70642 -1.70701 2.02265e-18)
(6.66943 -1.62156 1.419e-19)
(6.63399 -1.53891 -1.84654e-18)
(6.59973 -1.45891 -2.04509e-18)
(6.5662 -1.3813 1.76971e-18)
(6.53309 -1.30575 -1.88227e-19)
(6.50038 -1.23193 -1.42571e-18)
(6.46856 -1.15975 3.02958e-18)
(6.43699 -1.09748 -9.91293e-19)
(-1.01927 -0.236965 -1.70969e-17)
(20.5852 -14.5727 1.24657e-17)
(53.0582 -34.7684 8.06536e-18)
(61.3287 -47.6344 -8.29442e-18)
(42.2796 -44.7338 -3.71584e-19)
(13.827 -34.0656 -3.5029e-19)
(-10.8033 -21.9723 0)
(-28.0396 -11.2531 5.59963e-18)
(-38.8924 -2.32716 -5.94916e-18)
(-44.8554 5.06393 0)
(-46.8 11.1758 -1.05655e-17)
(-45.1624 16.0713 2.19786e-17)
(-40.3685 19.8388 -3.79689e-19)
(-33.1107 22.5941 -2.33758e-17)
(-24.2515 24.4999 1.16053e-17)
(-14.7513 25.7607 -2.52018e-19)
(-5.70333 26.6434 3.74004e-19)
(1.91135 27.3078 0)
(7.65266 27.725 1.09606e-17)
(11.5699 27.9638 -1.12165e-17)
(13.7253 28.3844 2.15073e-19)
(14.1115 29.342 1.20245e-17)
(12.9707 30.9611 -1.19527e-17)
(10.9896 32.9327 1.1396e-17)
(8.96984 34.4327 -1.15325e-17)
(7.42939 34.6475 -1.21658e-19)
(6.47561 33.4368 6.82707e-18)
(5.97228 31.1579 -1.73094e-18)
(5.71318 28.251 -8.73168e-18)
(5.59013 24.9954 8.9492e-19)
(5.73791 21.4567 2.76334e-18)
(6.54952 17.5339 1.87958e-18)
(8.34831 13.1765 -2.01553e-18)
(10.8795 8.58451 0)
(13.2945 4.20845 2.21165e-19)
(14.7449 0.511409 2.22435e-19)
(14.9452 -2.30035 0)
(14.206 -4.30767 4.88244e-18)
(13.0591 -5.72404 -5.14173e-18)
(11.9229 -6.7425 -2.34017e-19)
(11.0016 -7.47996 0)
(10.3434 -8.0007 2.36569e-19)
(9.91896 -8.33825 6.1975e-18)
(9.67937 -8.51352 -6.25369e-18)
(9.57713 -8.54436 0)
(9.57036 -8.44749 -5.47347e-18)
(9.62243 -8.23914 6.49725e-18)
(9.70105 -7.93529 0)
(9.77834 -7.55205 0)
(9.83132 -7.10588 -3.65698e-19)
(9.84266 -6.6136 -3.45594e-19)
(9.80121 -6.09228 0)
(9.70222 -5.5589 4.18442e-18)
(9.54726 -5.02995 -4.44942e-18)
(9.34358 -4.52087 -4.00544e-18)
(9.10313 -4.04545 4.14912e-19)
(8.84103 -3.61511 7.28082e-18)
(8.57368 -3.23818 -6.84363e-18)
(8.31656 -2.91918 -2.51896e-19)
(8.08218 -2.6584 2.72285e-18)
(7.87846 -2.45198 -3.56488e-19)
(7.70814 -2.29262 0)
(7.56929 -2.17081 0)
(7.45673 -2.07636 2.23582e-18)
(7.36397 -1.99982 -2.45607e-18)
(7.28488 -1.9335 0)
(7.21472 -1.87181 2.29977e-19)
(7.15049 -1.81121 0)
(7.0906 -1.7498 1.55046e-18)
(7.03434 -1.68676 -1.51304e-18)
(6.98136 -1.62197 3.44217e-19)
(6.93137 -1.5557 2.77154e-18)
(6.88402 -1.48837 -2.39828e-18)
(6.83888 -1.42043 2.74271e-19)
(6.79554 -1.3523 0)
(6.75359 -1.28428 0)
(6.71277 -1.21659 0)
(6.67303 -1.1493 -1.73545e-18)
(6.63466 -1.08274 -1.0568e-19)
(6.59715 -1.02421 2.71637e-18)
(-13.9452 7.30048 5.63681e-17)
(-35.5477 19.9259 8.11174e-17)
(-45.8962 23.5732 -8.29897e-17)
(-47.4493 25.0823 7.72202e-17)
(-47.0693 22.1324 -7.90832e-17)
(-47.7493 18.7389 -1.05039e-19)
(-54.2454 16.7237 -9.25063e-20)
(-64.2975 16.7086 0)
(-70.2344 17.426 2.23737e-19)
(-68.6613 17.6456 0)
(-61.2749 17.0229 -4.42843e-20)
(-50.6806 15.6649 -2.84006e-17)
(-38.2899 13.5891 2.89382e-17)
(-24.425 10.5574 1.86677e-17)
(-9.07531 6.28449 -1.89913e-17)
(7.3052 0.724542 1.19937e-17)
(23.2322 -5.67143 -1.24609e-17)
(36.2613 -11.9591 0)
(44.1119 -17.1275 0)
(46.2325 -20.6868 0)
(44.0357 -22.7888 -1.34356e-17)
(39.4715 -23.6561 2.8517e-17)
(33.7043 -23.2178 7.68951e-19)
(26.893 -21.2185 -3.30936e-17)
(18.9271 -17.5982 1.7003e-17)
(10.5841 -12.9932 0)
(3.23405 -8.3104 2.2326e-19)
(-2.31689 -4.22075 0)
(-6.01933 -0.947488 -9.6954e-18)
(-8.16901 1.50926 9.56896e-18)
(-9.09847 3.21385 -1.13633e-20)
(-9.06162 4.2328 0)
(-8.26654 4.61856 5.30239e-18)
(-6.94093 4.43296 -1.00229e-17)
(-5.3158 3.76329 4.81887e-18)
(-3.55315 2.71889 -3.89153e-18)
(-1.74005 1.43183 7.51382e-18)
(0.0673134 0.0634337 -3.61695e-18)
(1.81324 -1.23232 0)
(3.4397 -2.38356 0)
(4.90078 -3.376 0)
(6.1963 -4.21381 2.79205e-18)
(7.34285 -4.90035 -8.41525e-18)
(8.35565 -5.43628 5.43999e-18)
(9.24418 -5.82428 0)
(10.0093 -6.06896 -5.20673e-18)
(10.645 -6.1773 5.02064e-18)
(11.142 -6.15933 4.73052e-18)
(11.4923 -6.02857 -4.10456e-19)
(11.692 -5.80173 -1.46412e-19)
(11.7431 -5.49778 -1.46166e-19)
(11.6546 -5.13678 -4.1934e-18)
(11.4421 -4.73889 0)
(11.1267 -4.32322 0)
(10.7339 -3.90718 -3.33047e-18)
(10.2915 -3.5062 3.4737e-18)
(9.82818 -3.13341 0)
(9.37114 -2.79926 0)
(8.94419 -2.5111 1.7563e-19)
(8.56548 -2.27262 3.63277e-19)
(8.2458 -2.08346 0)
(7.988 -1.93947 0)
(7.78773 -1.83346 -2.86119e-19)
(7.63567 -1.75662 -2.70417e-19)
(7.52031 -1.69992 2.30888e-18)
(7.43059 -1.65539 -3.92005e-18)
(7.35759 -1.61673 -1.48346e-19)
(7.29505 -1.57952 3.43132e-18)
(7.23903 -1.54095 -3.40157e-18)
(7.18723 -1.49947 2.98651e-18)
(7.13824 -1.45441 -5.81496e-19)
(7.09115 -1.4057 -1.32327e-18)
(7.04533 -1.35363 2.34756e-18)
(7.00036 -1.29872 -9.82884e-20)
(6.95598 -1.24158 -4.13869e-18)
(6.91209 -1.18279 2.20379e-18)
(6.86868 -1.12287 0)
(6.82593 -1.0622 4.0858e-19)
(6.78412 -1.00148 0)
(6.74311 -0.946796 -1.39496e-18)
(9.5443 -3.7968 0)
(9.7647 -4.10954 -1.14527e-19)
(-13.3931 5.33545 1.12631e-19)
(-58.4334 21.1784 4.78312e-17)
(-110.233 38.9131 -9.40691e-17)
(-145.237 50.2885 4.66008e-17)
(-146.533 51.9609 9.23512e-20)
(-120.881 47.4934 0)
(-87.7996 42.2512 0)
(-60.3128 38.8942 0)
(-41.5831 37.4384 4.36452e-20)
(-30.2277 37.0372 1.64498e-19)
(-24.1088 36.9093 0)
(-21.5729 36.5552 -8.95459e-20)
(-21.5931 35.6626 -1.80588e-19)
(-23.5607 34.0654 -7.86093e-18)
(-27.0267 31.7345 8.0252e-18)
(-31.4732 28.7341 7.46388e-20)
(-36.1432 25.0766 0)
(-40.0028 20.4205 -8.20753e-20)
(-41.8531 14.4889 -3.4067e-20)
(-40.7043 7.89354 -6.95113e-18)
(-35.3834 0.828485 1.22103e-18)
(-25.1935 -7.11548 5.97664e-18)
(-12.9008 -14.406 -2.06833e-19)
(-3.42545 -18.9627 -3.488e-20)
(1.04933 -20.5672 -1.25998e-18)
(1.75842 -20.131 1.11918e-18)
(0.847316 -18.612 -8.37028e-21)
(-0.228033 -16.703 1.84136e-19)
(-0.852563 -14.8227 1.67728e-19)
(-0.913856 -13.1779 -3.37557e-18)
(-0.523501 -11.8337 3.40942e-18)
(0.144937 -10.772 1.64405e-19)
(0.955707 -9.93658 -1.20421e-19)