/*--------------------------------*- C++ -*----------------------------------*\
| =========                 |                                                 |
| \\      /  F ield         | OpenFOAM: The Open Source CFD Toolbox           |
|  \\    /   O peration     | Version:  2012                                  |
|   \\  /    A nd           | Website:  www.openfoam.com                      |
|    \\/     M anipulation  |                                                 |
\*---------------------------------------------------------------------------*/
FoamFile
{
    version     2.0;
    format      ascii;
    class       volScalarField;
    location    "0.63";
    object      p;
}
// * * * * * * * * * * * * * * * * * * * * * * * * * * * * * * * * * * * * * //

dimensions      [0 2 -2 0 0 0 0];


internalField   nonuniform List<scalar> 
42400
(
13548.8
13141
12561.2
11763.3
10680.2
9512.46
8389.45
7387.42
6538.23
5846.6
5299.67
4876.25
4551.99
4298.41
4080.97
3861.14
3606.3
3303.56
2968.19
2630.44
2312.95
2022.45
1757.3
1513.8
1288.85
1080.7
888.175
710.956
549.701
406.081
282.567
181.913
106.399
54.8078
23.536
6.97748
0.355527
0.112654
3.87084
9.8812
16.8363
23.8004
30.1532
35.5405
39.8138
42.965
45.065
46.2154
46.5172
46.0564
44.9015
43.1072
40.7222
37.7953
34.3815
30.5445
26.3584
21.9085
17.2926
12.6157
7.99201
3.5386
-0.637397
-4.44463
-7.81817
-10.7174
-13.1262
-15.0584
-16.5477
-17.6406
-18.3902
-18.8503
-19.0712
-19.0963
-18.9615
-18.6953
-18.3187
-17.8471
-17.3077
-16.6862
-7823.2
-7630.03
-7369.52
-7031.71
-6624.69
-6159.17
-5655.43
-5143.74
-4654.16
-4212.21
-3835.87
-3523.19
-3246.35
-2975.86
-2710.98
-2478.44
-2300.67
-2170.57
-2060.21
-1944.81
-1814.69
-1672.29
-1522.87
-1369.89
-1216.2
-1064.42
-917.558
-778.848
-650.884
-535.649
-433.696
-344.376
-266.773
-199.425
-141.281
-91.3183
-49.3231
-14.8353
12.8622
34.4956
50.8202
62.6293
70.7245
75.871
78.7613
79.9849
80.0081
79.1652
77.6659
75.6181
73.0606
69.9953
66.4194
62.3393
57.7845
52.8088
47.4892
41.9212
36.2142
30.4847
24.8505
19.4239
14.3043
9.57198
5.28364
1.47117
-1.85696
-4.71223
-7.12063
-9.1161
-10.7348
-12.011
-12.9756
-13.6573
-14.0852
-14.2909
-14.3085
-14.1744
-13.9393
-13.6003
-5999.29
-5895.21
-5757.09
-5566.19
-5317.04
-5041.83
-4769.82
-4518.3
-4291.6
-4089.12
-3907.74
-3739.04
-3569.32
-3385.8
-3182.61
-2969.31
-2766.12
-2579.5
-2391.22
-2180.03
-1942.56
-1690.57
-1438.28
-1196.84
-974.04
-773.619
-597.424
-446.352
-320.784
-220.087
-142.472
-84.7211
-43.3962
-15.0327
3.78882
16.1837
24.6179
30.8978
36.1251
40.8431
45.3035
49.6591
54.0154
58.4013
62.7567
66.9445
70.7738
74.0277
76.4901
77.9738
78.3484
77.5581
75.6264
72.647
68.7644
64.1524
58.9949
53.4711
47.7461
41.9666
36.2579
30.7231
25.4434
20.478
15.8658
11.6281
7.77237
4.29717
1.19722
-1.53216
-3.8926
-5.88339
-7.50552
-8.76783
-9.69215
-10.3148
-10.6836
-10.8533
-10.8895
-10.8132
9954.94
9835.9
9698.45
9509.4
9225.22
8839.02
8348.17
7785.31
7201.78
6641.62
6135.36
5700.79
5343.17
5057.29
4827.86
4633.8
4451.32
4260
4052.07
3831.97
3605.71
3373.23
3127.85
2863.34
2580.81
2290.82
2006.78
1737.8
1487.94
1258.46
1049.59
861.483
694.937
550.774
429.229
329.753
251.091
191.297
147.817
117.566
97.7204
86.073
81.01
81.0359
84.5277
89.8487
95.4752
100.17
103.123
103.98
102.758
99.7216
95.2489
89.738
83.5502
76.9845
70.2727
63.585
57.0398
50.7154
44.6604
38.9018
33.4526
28.316
23.4901
18.9716
14.7592
10.8568
7.27674
4.03997
1.17357
-1.29597
-3.35219
-4.99743
-6.2573
-7.17857
-7.82145
-8.25098
-8.53475
-8.70012
1700.45
1768.65
1888.26
2075.05
2387.4
2839.37
3409.83
3994.4
4480.69
4821.28
5025.77
5119.86
5126.98
5064.46
4943.4
4769.52
4545.59
4274.45
3960.67
3613.2
3248.2
2891.35
2576.98
2333.61
2163.07
2037.15
1919.37
1787.82
1638.92
1479.74
1319.95
1167.61
1027.8
902.685
791.912
693.898
607.068
530.382
463.131
404.737
354.559
311.989
276.171
245.931
220.075
197.613
177.852
160.366
144.9
131.265
119.267
108.689
99.2934
90.8504
83.1582
76.0549
69.4206
63.1708
57.2472
51.6089
46.225
41.0707
36.1262
31.3762
26.8122
22.4346
18.255
14.2985
10.6029
7.21584
4.18717
1.55828
-0.648955
-2.43965
-3.84649
-4.9232
-5.73378
-6.34244
-6.80903
-7.15711
-3341.77
-3271.48
-3138.43
-3026.28
-3087.28
-3517.17
-4290.17
-5189.06
-5956.59
-6431.94
-6593.27
-6514.95
-6305.01
-6059.53
-5839.53
-5661.37
-5505.45
-5339.05
-5137.69
-4891.31
-4598.49
-4260.07
-3878.01
-3459.77
-3021.19
-2585.46
-2174.61
-1801.37
-1471.23
-1185.8
-942.543
-735.183
-556.843
-402.59
-269.901
-158.051
-66.5685
5.63958
60.3854
100.148
127.634
145.358
155.483
159.741
159.509
155.958
150.099
142.755
134.55
125.921
117.168
108.495
100.043
91.9072
84.1544
76.8233
69.93
63.4704
57.4228
51.7523
46.4153
41.3648
36.5561
31.9523
27.529
23.2779
19.2089
15.3499
11.7438
8.44117
5.49033
2.92562
0.758239
-1.02742
-2.47024
-3.62355
-4.54447
-5.28574
-5.89227
-6.37932
-15621.1
-14518.3
-13171.7
-11897.8
-10697.9
-9722.93
-8929.83
-8192.48
-7418.08
-6585.32
-5709.53
-4828.8
-3994.82
-3250.84
-2618.63
-2106.52
-1715.05
-1432.23
-1234.5
-1098.31
-1006.83
-944.523
-893.035
-834.696
-759.151
-666.587
-565.572
-468.771
-389.007
-333.737
-301.295
-284.367
-273.62
-260.896
-240.911
-211.759
-174.783
-133.514
-92.014
-53.3984
-19.4175
9.30431
32.8627
51.4815
65.5559
75.5754
82.1118
85.743
87.0132
86.417
84.3923
81.3171
77.5092
73.2264
68.6698
63.9899
59.2938
54.6526
50.1083
45.6798
41.37
37.1719
33.0754
29.0734
25.1672
21.3704
17.7099
14.2254
10.9642
7.97435
5.29499
2.94859
0.93623
-0.761594
-2.17943
-3.35888
-4.34104
-5.16201
-5.85162
-6.41831
15217.3
14814
14204.9
13381.5
12414.8
11536.1
10783.9
10065.4
9277.29
8378.83
7372.33
6264.03
5078.92
3917.36
2939.64
2253.76
1843.49
1616
1471.22
1340.05
1192
1031.4
876.351
737.478
617.651
516.154
432.07
363.14
307.678
264.012
231.008
207.739
192.069
180.788
170.521
158.851
145.018
129.825
114.884
101.752
91.4387
84.0729
79.1588
76.1529
74.4441
73.4471
72.6843
71.8083
70.6369
69.0467
67.0072
64.5426
61.7094
58.5811
55.2358
51.7475
48.18
44.5832
40.9924
37.4294
33.9055
30.4252
26.9914
23.6099
20.2931
17.0619
13.9462
10.9823
8.20857
5.65958
3.3603
1.32218
-0.457722
-1.99439
-3.31032
-4.43071
-5.37981
-6.17937
-6.84868
-7.39525
6997.19
6935.25
6899.54
6870.71
6784.84
6593.17
6288.85
5934.07
5603.64
5310.37
5013.54
4688.66
4357.17
4049.77
3771.66
3501.39
3214.33
2901.1
2567.95
2230.95
1907.22
1606.38
1328.46
1070.74
831.59
614.832
426.906
276.196
168.448
103.723
75.4454
72.8192
84.6067
101.978
119.143
133.479
143.353
148.512
149.375
146.658
141.193
133.787
125.171
115.96
106.643
97.5763
89.0003
81.0535
73.7951
67.2241
61.2999
55.9598
51.1311
46.7394
42.7147
38.9933
35.5198
32.2461
29.1316
26.1424
23.2513
20.4388
17.6928
15.0103
12.3969
9.86666
7.43996
5.1408
2.99316
1.0173
-0.773099
-2.37222
-3.78176
-5.00922
-6.06572
-6.96413
-7.71794
-8.34091
-8.84706
-9.24631
-6222.72
-6036.46
-5790.89
-5492.96
-5126.36
-4714.73
-4245.36
-3711.35
-3137.84
-2587.71
-2122.93
-1761.35
-1474.37
-1227.32
-1015.8
-857.264
-754.285
-681.574
-608.209
-515.803
-398.428
-261.392
-117.045
19.7315
136.763
226.905
288.708
325.136
342.056
345.869
341.733
332.889
320.991
306.596
289.714
270.573
249.642
227.577
205.112
182.966
161.756
141.954
123.862
107.623
93.2561
80.6947
69.814
60.4544
52.4378
45.5819
39.7108
34.6639
30.2995
26.4961
23.1505
20.1759
17.499
15.0586
12.8039
10.6932
8.69377
6.78141
4.94027
3.16263
1.44814
-0.197299
-1.76336
-3.23736
-4.60643
-5.85946
-6.98846
-7.98913
-8.86088
-9.60625
-10.2303
-10.7398
-11.1428
-11.4486
-11.6675
-11.8102
-7361.8
-7168.45
-6928.82
-6665.24
-6369.79
-6062.73
-5742.44
-5411.37
-5076.55
-4749.12
-4437.63
-4139.24
-3838.33
-3516.39
-3159.64
-2760.78
-2321.52
-1855.48
-1389.17
-957.041
-590.33
-303.23
-92.7036
53.7466
151.25
213.199
250.116
269.889
278.09
278.5
273.573
264.751
252.692
237.567
219.468
198.764
176.222
152.938
130.107
108.862
89.8513
73.508
59.9402
48.7246
39.3542
31.4686
24.7544
18.9915
14.0275
9.76033
6.11471
3.02776
0.440799
-1.70636
-3.47688
-4.93526
-6.14375
-7.15904
-8.03015
-8.79756
-9.4933
-10.1412
-10.7573
-11.3506
-11.9241
-12.4756
-12.9993
-13.4873
-13.9311
-14.3226
-14.6553
-14.9246
-15.1278
-15.2645
-15.3358
-15.3444
-15.2944
-15.1908
-15.04
-14.8514
5371.8
5238.31
5072.51
4862.83
4561.34
4213.14
3843.44
3465.85
3083.75
2698.02
2321
1978.23
1692.68
1471.01
1302.71
1169.78
1052.8
929.485
781.121
598.99
388.635
165.965
-50.0878
-243.512
-404.481
-528.805
-616.232
-668.888
-690.513
-685.899
-660.336
-619.035
-566.669
-507.174
-443.77
-379.118
-315.958
-256.132
-201.313
-153.607
-114.175
-83.5137
-61.4857
-47.1022
-38.9077
-35.2702
-34.5348
-35.3559
-36.6014
-37.6955
-38.3816
-38.6068
-38.3947
-37.8167
-36.9624
-35.9221
-34.7781
-33.5943
-32.4173
-31.2787
-30.1989
-29.1902
-28.2581
-27.403
-26.6211
-25.9052
-25.2462
-24.6336
-24.0568
-23.5053
-22.9699
-22.4428
-21.9177
-21.3899
-20.8568
-20.3168
-19.7698
-19.2167
-18.6597
-18.1052
3979.47
3781.03
3533.13
3256.06
2904.13
2531.71
2143.98
1746.19
1347.01
950.271
554.452
152.792
-252.641
-637.299
-961.137
-1193.22
-1323.68
-1361.02
-1323.01
-1229.9
-1102.96
-960.932
-818.364
-685.514
-568.562
-470.146
-390.71
-329.916
-286.787
-258.858
-242.39
-233.237
-227.912
-223.843
-219.196
-212.567
-202.496
-189.11
-173.705
-157.499
-141.837
-127.89
-116.375
-107.478
-100.926
-96.1705
-92.5667
-89.4913
-86.7111
-84.063
-81.4058
-78.6628
-75.7679
-72.6808
-69.4228
-66.0693
-62.7147
-59.4389
-56.2945
-53.3102
-50.4995
-47.8677
-45.414
-43.1335
-41.018
-39.0568
-37.2376
-35.5472
-33.9723
-32.4996
-31.1167
-29.8121
-28.5757
-27.399
-26.2749
-25.1978
-24.1632
-23.168
-22.2102
-21.2927
-9919.04
-9496.18
-8961.12
-8327.93
-7575.38
-6738.07
-5836.66
-4895.64
-3944.66
-3023.68
-2178.29
-1442.16
-823.681
-305.799
135.389
508.334
801.453
998.134
1092.64
1092.58
1018.14
896.209
752.273
605.514
467.889
345.902
242.19
156.166
85.0911
26.7953
-20.3805
-56.6751
-82.6061
-99.8004
-110.39
-116.3
-118.927
-119.216
-118.03
-116.18
-114.238
-112.653
-111.839
-112.131
-113.347
-115.028
-116.68
-117.893
-118.366
-117.881
-116.217
-113.499
-109.688
-104.866
-99.3474
-93.561
-87.868
-82.4724
-77.4359
-72.7472
-68.378
-64.3044
-60.5091
-56.9776
-53.6954
-50.6474
-47.8179
-45.1906
-42.7491
-40.4769
-38.3578
-36.3768
-34.5199
-32.7746
-31.1302
-29.5776
-28.109
-26.718
-25.3999
-24.1523
9663.57
9348.05
8919.59
8295.34
7342.2
6121.98
4734.56
3361.61
2185.72
1285.47
619.079
106.118
-302
-618.76
-846.336
-990.076
-1059.98
-1067.48
-1025.65
-949.431
-853.942
-751.681
-650.056
-551.214
-454.228
-358.778
-267.036
-182.784
-109.698
-50.2646
-5.58011
24.5662
41.4279
46.9628
43.4947
33.3886
18.971
2.18154
-15.4874
-32.9503
-49.6847
-65.4639
-80.0073
-92.8669
-103.802
-112.695
-119.635
-124.49
-127.075
-127.67
-126.62
-123.841
-119.597
-114.451
-108.907
-103.358
-98.027
-92.971
-88.1329
-83.4433
-78.8811
-74.4683
-70.24
-66.2228
-62.4288
-58.8585
-55.505
-52.3575
-49.4039
-46.6313
-44.0273
-41.5798
-39.2774
-37.1097
-35.0673
-33.142
-31.3261
-29.6135
-27.9982
-26.474
-4308
-3884.48
-3354
-2897.22
-2524.19
-2279.95
-2113.7
-1977.65
-1844.12
-1705.86
-1566.34
-1428.8
-1294.05
-1162.28
-1033.6
-906.955
-780.327
-651.699
-520.54
-389.009
-261.028
-141.557
-35.2886
53.3885
120.733
164.623
185.414
185.759
169.422
140.151
101.391
56.4952
8.82807
-38.465
-82.8191
-122.45
-156.345
-184.121
-205.836
-221.842
-232.669
-238.91
-241.131
-239.833
-235.482
-228.438
-218.867
-207.318
-194.551
-181.079
-167.131
-153.173
-139.797
-127.459
-116.615
-107.501
-99.949
-93.7933
-88.7559
-84.4746
-80.6372
-77.0397
-73.5652
-70.1553
-66.7877
-63.4624
-60.1924
-56.9961
-53.8933
-50.9012
-48.033
-45.2968
-42.6963
-40.232
-37.9014
-35.7009
-33.6256
-31.6704
-29.8297
-28.0939
-7171.71
-6870.13
-6400.72
-5758.54
-4969.12
-4133.45
-3291.61
-2462.06
-1660.36
-908.615
-232.221
345.756
809.598
1153.44
1380.72
1502.03
1531.92
1486.67
1382.57
1234.93
1058.21
866.223
671.578
484.183
311.183
157.242
24.3209
-88.1704
-182.522
-261.395
-326.725
-379.405
-419.762
-448.184
-465.339
-472.068
-469.364
-458.559
-441.481
-420.295
-397.118
-373.633
-350.898
-329.376
-309.033
-289.648
-270.831
-252.509
-234.629
-216.936
-199.54
-182.558
-166.384
-151.412
-137.986
-126.268
-116.48
-108.526
-101.983
-96.3639
-91.2828
-86.494
-81.878
-77.3969
-73.0533
-68.864
-64.847
-61.0159
-57.3789
-53.9385
-50.6925
-47.6351
-44.7579
-42.0516
-39.5065
-37.1131
-34.863
-32.748
-30.7603
-28.8863
11677.1
11415.1
11015.1
10367.9
9407.32
8229.98
6929.99
5601.74
4310.55
3089.19
1954.82
923.433
14.461
-752.211
-1365.2
-1826.13
-2148.93
-2359.28
-2487.66
-2561.13
-2598.2
-2606.37
-2585.55
-2534.27
-2452.95
-2344.43
-2213.85
-2068.37
-1915.19
-1758.05
-1595.64
-1425.27
-1250.34
-1080.63
-926.445
-793.516
-682.492
-591.246
-516.912
-456.672
-407.859
-368.014
-334.988
-307.018
-282.748
-261.254
-242.034
-224.64
-208.797
-194.282
-180.999
-168.874
-157.685
-147.357
-137.847
-129.103
-121.066
-113.656
-106.782
-100.364
-94.3444
-88.6855
-83.3659
-78.3706
-73.6842
-69.2879
-65.1601
-61.2786
-57.623
-54.1762
-50.9237
-47.8532
-44.954
-42.2167
-39.6329
-37.1951
-34.8967
-32.7313
-30.6921
-28.7656
-10569.5
-10248.8
-9858
-9439.84
-8949.06
-8378.06
-7727.6
-7034.01
-6339.47
-5672.35
-5046.59
-4466.39
-3927.17
-3421.5
-2940.67
-2473.59
-2016.89
-1585.64
-1209.57
-913.521
-704.792
-577.209
-518.089
-512.016
-542.801
-595.002
-655.294
-713.321
-761.651
-794.535
-807.904
-801.561
-778.692
-744.316
-702.961
-657.569
-609.757
-560.819
-511.965
-464.288
-418.81
-376.36
-337.551
-302.764
-272.116
-245.49
-222.639
-203.168
-186.621
-172.52
-160.425
-149.939
-140.717
-132.474
-124.984
-118.075
-111.619
-105.524
-99.729
-94.1993
-88.919
-83.8873
-79.1104
-74.5933
-70.3335
-66.3187
-62.5291
-58.943
-55.5411
-52.3085
-49.2346
-46.3113
-43.5323
-40.8924
-38.3868
-36.0116
-33.7629
-31.6368
-29.6283
-27.7262
-653.755
-546.044
-354.805
-75.5487
301.55
716.215
1139.02
1531.72
1849.66
2065.73
2178.69
2202.41
2149.09
2022.3
1816.08
1525.09
1188.87
917.019
802.672
816.915
862.966
889.723
896.392
890.605
876.287
854.707
825.136
785.735
734.858
672.332
598.112
514.762
428.702
349.507
285.448
239.881
209.94
188.327
167.398
143.223
115.523
85.8058
55.9257
27.3385
1.71033
-20.4167
-38.9779
-54.1165
-66.1127
-75.3172
-82.1006
-86.8202
-89.8015
-91.3287
-91.6446
-90.9535
-89.4277
-87.2173
-84.4605
-81.2928
-77.8506
-74.2669
-70.6601
-67.1199
-63.7002
-60.4201
-57.2754
-54.2516
-51.3349
-48.5161
-45.7919
-43.1627
-40.6305
-38.1983
-35.8687
-33.6438
-31.5248
-29.5117
-27.6028
-25.7922
-4683.16
-4236.59
-3637.93
-3015.28
-2388.6
-1875.59
-1481.37
-1179.63
-948.931
-777.772
-654.405
-566.347
-505.162
-464.605
-436.539
-412.226
-385.963
-358.089
-331.69
-308.782
-288.125
-265.427
-236.92
-201.152
-159.726
-116.875
-77.4565
-45.0343
-21.1819
-5.96129
1.28491
1.38446
-4.7859
-16.1339
-31.2487
-48.5202
-66.3509
-83.4174
-98.3911
-109.532
-116.59
-120.21
-121.644
-122.352
-123.291
-124.52
-125.467
-125.564
-124.607
-122.639
-119.793
-116.298
-112.48
-108.673
-105.099
-101.84
-98.8865
-96.1898
-93.6976
-91.3642
-89.1519
-87.0299
-84.9725
-82.9582
-80.9699
-78.9941
-77.0216
-75.0467
-73.0677
-71.0866
-69.109
-67.1432
-65.1996
-63.2894
-61.4232
-59.6095
-57.8535
-56.1549
-54.5118
-52.9307
-2971
-3177.74
-3423.09
-3634.16
-3819.59
-3906.05
-3892.17
-3798.6
-3651.08
-3473.01
-3281.44
-3086.98
-2895.91
-2712.44
-2539.5
-2377.88
-2225.43
-2077.81
-1930.45
-1779.64
-1623.49
-1463.74
-1304.08
-1149.54
-1005.03
-873.228
-755.351
-651.085
-559.536
-479.927
-411.808
-354.88
-308.617
-271.935
-243.179
-220.467
-202.191
-187.273
-175.011
-165.11
-157.588
-152.523
-149.8
-148.85
-148.259
-146.355
-142.157
-135.904
-128.716
-121.756
-115.631
-110.439
-106.042
-102.275
-99.0051
-96.1302
-93.5671
-91.2461
-89.1089
-87.1073
-85.2017
-83.3601
-81.5567
-79.7714
-77.9886
-76.1969
-74.389
-72.5608
-70.7121
-68.8458
-66.9677
-65.0867
-63.2136
-61.3605
-59.5393
-57.7611
-56.0335
-54.3592
-52.7382
-51.1798
5845.12
5690.11
5478.16
5183.92
4772.6
4286.28
3759.69
3224.7
2706.35
2222.7
1785.92
1402.4
1073.33
795.763
563.968
370.708
209.042
73.5234
-41.918
-142.772
-232.742
-313.029
-383.463
-443.498
-492.947
-532.09
-560.936
-578.358
-582.235
-570.873
-544.646
-506.585
-461.481
-414.112
-368.021
-325.193
-286.488
-252.013
-221.521
-194.708
-171.598
-152.424
-137.419
-126.333
-118.514
-113.039
-109.003
-105.757
-102.949
-100.42
-98.0984
-95.949
-93.9446
-92.0629
-90.2856
-88.5963
-86.9792
-85.4188
-83.8995
-82.4064
-80.9253
-79.443
-77.9481
-76.4305
-74.8824
-73.2979
-71.6733
-70.0075
-68.3021
-66.561
-64.7909
-63.001
-61.2022
-59.4071
-57.6287
-55.8795
-54.1705
-52.5083
-50.8993
-49.3576
-979.015
-673.864
-236.238
272.501
846.287
1372.7
1810.91
2148.38
2387.75
2538.35
2612.44
2623.33
2583.97
2504.86
2393.82
2255.53
2095.26
1917.95
1729.87
1538.09
1349.53
1170.47
1006.08
859.716
732.296
622.199
526.064
440.111
361.276
287.813
219.371
156.646
100.834
52.9171
13.2838
-18.2722
-42.4597
-60.3003
-72.927
-81.4229
-86.7467
-89.8366
-91.4158
-91.9915
-91.908
-91.3925
-90.6018
-89.6511
-88.6243
-87.5783
-86.547
-85.5445
-84.5718
-83.6227
-82.6879
-81.7571
-80.8202
-79.867
-78.8878
-77.8736
-76.8157
-75.7066
-74.5397
-73.3097
-72.0127
-70.6467
-69.2112
-67.7081
-66.1414
-64.517
-62.8432
-61.1305
-59.3907
-57.6375
-55.8848
-54.1464
-52.435
-50.7605
-49.1328
-47.5664
37.4435
-128.254
-375.901
-697.538
-1073.12
-1462.63
-1835.63
-2165.75
-2436.35
-2641.76
-2785.19
-2871.88
-2903.35
-2875.67
-2783.46
-2625.02
-2402.09
-2120.76
-1797.06
-1459.12
-1139.2
-859.694
-629.066
-444.792
-300.538
-189.989
-107.448
-47.7398
-6.42345
20.2924
35.5467
41.8649
41.3679
35.8924
27.0621
16.2613
4.63524
-6.95892
-17.9385
-27.9548
-36.8379
-44.5447
-51.1098
-56.6109
-61.1478
-64.8309
-67.7734
-70.087
-71.8762
-73.2345
-74.2414
-74.9615
-75.4455
-75.7317
-75.8481
-75.8144
-75.644
-75.3457
-74.9254
-74.3865
-73.7316
-72.9625
-72.0811
-71.0895
-69.9904
-68.7874
-67.485
-66.0889
-64.6062
-63.0455
-61.4172
-59.7328
-58.0057
-56.2502
-54.4812
-52.7135
-50.9613
-49.2369
-47.5522
-45.9192
-7986.45
-7600.74
-7073.24
-6441.68
-5682.36
-4883.78
-4092.1
-3351.56
-2694.55
-2135.27
-1670.48
-1288.19
-973.404
-715.016
-508.827
-354.503
-247.76
-178.342
-133.899
-104.495
-84.07
-69.2961
-57.5684
-46.9466
-36.3403
-25.5902
-15.3618
-6.6566
-0.222517
3.46411
4.19703
2.13833
-2.18988
-8.1655
-15.1433
-22.4809
-29.6223
-36.1447
-41.8072
-46.5376
-50.409
-53.5714
-56.1909
-58.4133
-60.3519
-62.0888
-63.679
-65.155
-66.5309
-67.8067
-68.9732
-70.0168
-70.9231
-71.6792
-72.275
-72.704
-72.9626
-73.0502
-72.9682
-72.7196
-72.3089
-71.7412
-71.0222
-70.1583
-69.1562
-68.0233
-66.7675
-65.3974
-63.9226
-62.3536
-60.7019
-58.9805
-57.2036
-55.3863
-53.5445
-51.6946
-49.8528
-48.0334
-46.2511
-44.5207
5826.21
5712.04
5568.88
5364.37
5063.21
4655.16
4146.23
3573.02
3001.8
2501.03
2102.84
1796.89
1557.31
1365.59
1208.04
1073.39
953.714
844.414
742.933
647.998
558.741
474.706
394.498
317.458
243.462
172.83
106.273
44.7543
-10.6797
-59.0834
-99.7517
-132.31
-156.724
-173.023
-181.273
-181.77
-175.288
-163.231
-147.558
-130.47
-113.995
-99.6236
-88.1356
-79.6555
-73.8654
-70.251
-68.2811
-67.4926
-67.509
-68.0352
-68.8465
-69.7776
-70.7118
-71.5696
-72.2998
-72.8702
-73.2624
-73.4665
-73.4788
-73.2999
-72.9332
-72.3849
-71.6624
-70.7746
-69.7312
-68.5423
-67.2183
-65.77
-64.2082
-62.5444
-60.7905
-58.9594
-57.0653
-55.1235
-53.1508
-51.165
-49.185
-47.2274
-45.3135
-43.4732
3531.65
3446.82
3348.85
3222.46
3036
2803.51
2539.64
2268.93
2018.1
1803.03
1620.37
1450.64
1272.12
1073.78
857.307
631.178
404.07
181.999
-30.7439
-229.52
-407.605
-557.294
-672.439
-751.354
-795.164
-806.908
-791.336
-754.503
-703.165
-643.772
-581.614
-520.354
-462.028
-407.381
-355.93
-307.122
-260.876
-217.741
-178.86
-145.59
-118.973
-99.3207
-86.0632
-77.9305
-73.3914
-71.1037
-70.1408
-69.9582
-70.2533
-70.8481
-71.6283
-72.5098
-73.4199
-74.2932
-75.0677
-75.6909
-76.1226
-76.336
-76.3172
-76.0636
-75.5817
-74.8839
-73.9867
-72.9077
-71.6649
-70.2751
-68.7534
-67.1133
-65.3667
-63.5243
-61.5965
-59.5941
-57.5288
-55.4142
-53.2662
-51.1031
-48.9453
-46.8117
-44.7318
-42.7551
-6759.8
-6559.6
-6302.18
-5989.14
-5618.34
-5213.14
-4784.66
-4340.63
-3884.62
-3418.07
-2944.14
-2470.53
-2010.7
-1581.38
-1197.32
-868.256
-597.04
-378.761
-202.928
-58.1812
62.9797
163.25
241.483
294.812
322.463
326.115
309.004
275.236
229.097
174.637
115.905
56.865
1.45647
-46.4668
-83.8132
-108.229
-119.038
-117.695
-107.319
-91.7782
-74.7582
-59.0839
-46.5158
-37.9263
-33.5595
-33.1647
-36.051
-41.228
-47.6612
-54.3916
-60.7888
-66.4454
-71.1664
-74.9979
-77.8866
-79.8842
-81.1038
-81.6597
-81.6605
-81.2049
-80.3802
-79.2609
-77.9094
-76.3762
-74.7008
-72.9127
-71.0332
-69.0762
-67.0506
-64.9613
-62.8119
-60.6055
-58.3468
-56.0434
-53.707
-51.3538
-49.0039
-46.6771
-44.4088
-42.2749
9333.04
9151.28
8892.07
8488.73
7904.23
7192.13
6410.93
5614.6
4837.29
4092.61
3385.88
2722.21
2108.08
1550.95
1056.62
627.126
260.627
-48.2592
-305.455
-517.111
-688.395
-823.23
-924.757
-994.644
-1032.36
-1036.41
-1008.15
-952.495
-877.01
-790.697
-703.018
-622.364
-554.041
-499.419
-456.798
-422.933
-394.235
-367.543
-340.518
-311.921
-281.719
-250.977
-221.448
-194.942
-172.703
-155.086
-141.671
-131.647
-124.164
-118.516
-114.172
-110.751
-107.957
-105.369
-102.968
-100.658
-98.3471
-95.9825
-93.545
-91.0383
-88.4808
-85.8983
-83.3169
-80.7592
-78.2406
-75.7683
-73.3416
-70.9525
-68.5879
-66.2323
-63.8694
-61.4851
-59.069
-56.6168
-54.1313
-51.6238
-49.1126
-46.6175
-44.1768
-41.8984
-5787.89
-5488.82
-5116.11
-4728.99
-4280.24
-3813.5
-3321.71
-2813.33
-2310.4
-1835.47
-1404.64
-1026.6
-703.179
-431.548
-207.164
-26.3242
112.969
212.24
272.54
295.769
285.624
248.013
190.652
121.561
47.7721
-25.4893
-94.8339
-157.78
-212.201
-256.412
-289.561
-311.794
-324.057
-327.697
-324.342
-315.782
-303.736
-289.657
-274.618
-259.323
-244.217
-229.621
-215.817
-203.061
-191.537
-181.313
-172.342
-164.487
-157.557
-151.344
-145.656
-140.326
-135.221
-130.283
-125.36
-120.419
-115.461
-110.514
-105.624
-100.853
-96.2605
-91.9013
-87.8142
-84.0197
-80.5186
-77.2938
-74.3138
-71.5369
-68.9156
-66.401
-63.947
-61.5129
-59.0665
-56.5863
-54.0636
-51.5026
-48.92
-46.3373
-43.7884
-41.3905
-8481.29
-8060.31
-7502.39
-6858.33
-6089.53
-5287.58
-4507.57
-3807.87
-3222.37
-2751.54
-2380.18
-2090.15
-1859.61
-1664.3
-1485.65
-1316.34
-1159.42
-1020.5
-903.034
-806.902
-729.152
-665.631
-612.521
-567.153
-528.009
-494.349
-465.84
-442.188
-422.842
-406.973
-393.641
-381.953
-371.102
-360.417
-349.412
-337.8
-325.495
-312.588
-299.299
-285.921
-272.76
-260.093
-248.13
-237.006
-226.771
-217.395
-208.784
-200.798
-193.269
-186.023
-178.972
-171.89
-164.633
-157.14
-149.379
-141.378
-133.22
-125.038
-116.996
-109.273
-102.034
-95.4079
-89.4748
-84.2559
-79.7226
-75.8081
-72.4218
-69.4603
-66.818
-64.395
-62.1029
-59.8662
-57.6238
-55.3325
-52.9695
-50.5329
-48.039
-45.5146
-43.0044
-40.6182
7373.56
6995.35
6511.2
5897.17
5031.96
3990.52
2813.75
1583.95
425.595
-548.137
-1297.6
-1855.78
-2266.1
-2544.05
-2690.72
-2716.97
-2648.91
-2520.26
-2359.22
-2183.8
-2004.16
-1825.85
-1651.77
-1483.77
-1323.3
-1171.76
-1030.58
-900.911
-783.748
-679.767
-588.938
-510.952
-445.106
-390.375
-345.521
-309.26
-280.342
-257.607
-240.012
-226.648
-216.738
-209.609
-204.672
-201.405
-199.332
-198.002
-196.968
-195.834
-194.511
-192.533
-189.448
-185.138
-179.501
-172.513
-164.258
-154.914
-144.753
-134.111
-123.371
-112.921
-103.113
-94.2263
-86.4381
-79.8181
-74.3437
-69.9253
-66.4126
-63.6106
-61.3148
-59.3467
-57.5669
-55.8625
-54.1396
-52.3285
-50.389
-48.3127
-46.1188
-43.8453
-41.5486
-39.329
-2408.51
-2277.09
-2076.76
-1816.22
-1530.53
-1259.38
-1019.74
-816.548
-650.517
-522.863
-437.943
-399.257
-401.924
-430.193
-462.584
-480.855
-475.323
-446.174
-401.554
-351.401
-302.974
-260.034
-223.789
-193.956
-169.686
-150.138
-134.112
-120.589
-108.742
-98.05
-88.6395
-80.7866
-74.7954
-71.1146
-70.0858
-71.8285
-76.1757
-82.7697
-91.1304
-100.758
-111.295
-122.337
-133.288
-143.79
-153.525
-162.144
-169.415
-175.244
-179.149
-181.235
-181.459
-179.684
-175.915
-170.268
-162.932
-154.167
-144.299
-133.711
-122.82
-112.045
-101.757
-92.2375
-83.6603
-76.1173
-69.6838
-64.3935
-60.1994
-56.9235
-54.3973
-52.4645
-50.9829
-49.777
-48.6667
-47.4995
-46.1801
-44.6702
-42.9789
-41.1484
-39.2431
-37.3558
573.241
658.484
791.476
974.968
1195.59
1424.37
1640.56
1832.7
1996.28
2129.89
2233
2306.27
2353.14
2379.68
2393.2
2400.5
2403.77
2399.65
2381.36
2341.87
2277.29
2187.62
2075.69
1945.8
1802.58
1650.49
1493.4
1334.38
1176.2
1021.61
873.147
732.758
602.1
482.674
375.307
280.158
196.923
125.076
64.0028
13.0153
-28.6168
-61.8665
-87.9894
-108.065
-123.157
-134.376
-142.399
-147.717
-150.966
-152.592
-152.933
-152.21
-150.537
-147.986
-144.606
-140.426
-135.449
-129.658
-123.035
-115.608
-107.511
-98.9882
-90.3367
-81.75
-73.7197
-65.6041
-57.97
-51.6082
-46.8935
-43.8569
-42.2427
-41.4168
-41.03
-40.7104
-40.2412
-39.5306
-38.5669
-37.3881
-36.0609
-34.6721
9305.72
9064.14
8744.74
8322.33
7753
7130.9
6510.05
5919.97
5369.02
4852.69
4366.13
3907.59
3477.4
3076.07
2703.27
2357.81
2038.23
1743.33
1472.45
1225.47
1002.56
803.657
628.122
475.084
343.626
232.763
141.256
67.4278
9.09441
-36.3892
-71.1322
-96.5887
-114.226
-125.485
-131.718
-134.199
-134.109
-132.461
-130.061
-127.508
-125.209
-123.284
-121.699
-120.722
-120.44
-120.678
-121.462
-122.72
-124.329
-126.184
-128.2
-130.315
-132.496
-134.737
-137.04
-139.383
-141.65
-143.537
-144.471
-143.656
-140.331
-134.051
-124.794
-112.89
-98.362
-82.8815
-67.8604
-54.7472
-44.7327
-38.2009
-34.6711
-33.3495
-33.1893
-33.481
-33.8062
-33.9249
-33.7439
-33.2687
-32.5593
-31.7004
-6669.97
-5985.22
-5089.58
-4218.66
-3405.36
-2757.04
-2257.61
-1891.07
-1643.28
-1494.37
-1420.03
-1396.89
-1405.88
-1432.95
-1468.89
-1508.86
-1551.02
-1594.21
-1636.2
-1674.49
-1708.06
-1738.41
-1767.3
-1792.68
-1806.69
-1798.84
-1760.44
-1689.16
-1588.66
-1465.85
-1329.08
-1186.44
-1044.61
-908.621
-781.875
-666.485
-563.588
-473.583
-396.283
-331.141
-277.272
-233.664
-199.274
-172.76
-152.875
-138.53
-128.701
-122.425
-118.824
-117.135
-116.754
-117.264
-118.428
-120.13
-122.283
-124.75
-127.285
-129.511
-130.919
-130.946
-129.132
-125.161
-118.909
-110.162
-98.9674
-85.8495
-71.9003
-58.6693
-47.6551
-39.727
-34.9194
-32.412
-31.3677
-31.1011
-31.0899
-31.0391
-30.8229
-30.4161
-29.8495
-29.1788
-250.718
-425.987
-643.89
-895.121
-1189.35
-1514.62
-1859.57
-2218.62
-2595.2
-2982.11
-3358.64
-3703.74
-4001.89
-4241.2
-4413.08
-4515.23
-4553.73
-4539.26
-4477.41
-4359.2
-4162.26
-3866.32
-3468.75
-2995.81
-2497.77
-2030.67
-1634.21
-1319.74
-1077.45
-890.654
-744.739
-629.168
-536.247
-460.124
-396.494
-342.583
-296.538
-257.189
-223.459
-194.689
-170.43
-150.289
-133.895
-120.874
-110.846
-103.432
-98.2534
-94.9252
-93.0643
-92.3027
-92.3125
-92.8305
-93.6674
-94.6924
-95.7924
-96.8203
-97.5408
-97.5821
-96.4551
-93.7433
-89.5806
-84.3686
-78.4027
-71.9392
-65.1603
-58.2607
-51.5447
-45.4215
-40.287
-36.3669
-33.6436
-31.8799
-30.7748
-30.0595
-29.5259
-29.0397
-28.5312
-27.9769
-27.3813
-26.7672
-10754.2
-10282.6
-9692.94
-8979.71
-8008.61
-6821.83
-5554.58
-4413.59
-3499.15
-2778.07
-2213.51
-1812.82
-1578.34
-1487.95
-1502.09
-1561.72
-1591.64
-1529.21
-1367.91
-1160.12
-964.475
-801.323
-667.331
-557.949
-471.085
-403.55
-350.303
-306.452
-268.578
-234.812
-204.454
-177.551
-154.613
-135.533
-120.149
-107.896
-98.1321
-90.1676
-83.719
-78.4492
-74.04
-70.2516
-66.9199
-63.9379
-61.2379
-58.7803
-56.5456
-54.528
-52.7333
-51.1786
-49.8913
-48.9023
-48.2331
-47.8801
-47.8088
-47.9525
-48.2084
-48.4335
-48.4673
-48.2006
-47.5215
-46.3837
-44.8438
-43.0022
-40.9689
-38.8569
-36.8199
-34.9141
-33.214
-31.7585
-30.5456
-29.5395
-28.6888
-27.9426
-27.2591
-26.6115
-25.9886
-25.3902
-24.8233
-24.3223
5439.92
5384.95
5280.58
5107.31
4847.45
4569.14
4308.84
4082.54
3903.13
3780.54
3708.95
3662.57
3610.99
3536.51
3436.29
3315.75
3178.79
3017.15
2818.88
2585.9
2334.13
2079.29
1831.85
1598.07
1380.97
1182.23
1002.65
841.67
697.703
569.058
454.893
355.467
271.691
203.598
149.494
107.121
74.2978
49.2847
30.7356
17.5279
8.64446
3.13629
0.140241
-1.09487
-1.19301
-0.647579
0.16874
0.987466
1.62546
1.96661
1.94611
1.53702
0.738911
-0.430963
-1.94303
-3.75748
-5.82378
-8.08158
-10.4627
-12.8936
-15.2912
-17.5643
-19.6278
-21.413
-22.8803
-24.0182
-24.7948
-25.2813
-25.5128
-25.5272
-25.3644
-25.0623
-24.6547
-24.1717
-23.6401
-23.0847
-22.5298
-22.0028
-21.5516
-21.3164
-50.0695
-46.0667
-42.463
-39.2623
-36.4521
-33.978
-31.7236
-29.6794
-27.8384
-26.2001
-24.7419
-23.4283
-22.2111
-21.0383
-19.8615
-18.6433
-17.3628
-16.0181
-14.6255
-13.2172
-11.8351
-10.5184
-9.30113
-8.21396
-7.26899
-6.48037
-5.84951
-5.3718
-5.0376
-4.83433
-4.7481
-4.76522
-4.87364
-5.06394
-5.32958
-5.66642
-6.07146
-6.54094
-7.06849
-7.64358
-8.25048
-8.86802
-9.47229
-10.0342
-10.5184
-10.8955
-11.1344
-11.2107
-11.1087
-10.8229
-10.3591
-9.7339
-8.97328
-8.11043
-7.18253
-6.22748
-5.28105
-4.37494
-3.53597
-2.7858
-2.14048
-1.60944
-1.19453
-0.89025
-0.685537
-0.566898
-0.521562
-0.539455
-0.613532
-0.738809
-0.91082
-1.12417
-1.37154
-1.64326
-1.9276
-2.21176
-2.4834
-2.7321
-2.95013
-3.13247
-3.27596
-3.37836
-3.43764
-3.45176
-3.41928
-3.34189
-3.22042
-3.0588
-2.86263
-2.63875
-2.39451
-2.13719
-1.87334
-1.60848
-1.34691
-1.09177
-0.845142
-0.608322
-0.38199
-0.16641
0.0384314
0.232715
0.4167
0.590665
0.754868
0.909547
1.05493
1.19125
1.31872
1.43757
1.548
1.65026
1.74458
1.83122
1.91044
1.98249
2.04762
2.10608
2.15808
2.20383
2.24348
2.2772
2.3051
2.32731
2.34396
2.35513
2.36088
2.36122
2.35617
2.34571
2.32979
2.30832
2.28116
2.24815
2.20906
2.16365
2.11162
2.0526
1.98617
1.91192
1.82943
1.73831
1.63826
1.52906
1.4106
1.28296
1.14642
1.00154
0.849193
0.690593
0.527326
0.361374
0.195109
0.0312732
-0.127078
-0.276659
-0.414056
-0.535845
-0.638726
-0.719654
-0.775982
-0.805597
-0.807054
-0.779675
-0.723557
-0.639746
-0.530124
-0.397456
-0.245095
-0.0768531
0.103154
0.290697
0.481612
0.671988
0.858347
1.03777
1.20793
1.36698
1.51334
1.64554
1.76208
1.86153
1.94257
2.00417
2.0456
2.06642
2.06637
2.04533
2.00323
1.94002
1.85564