/*--------------------------------*- C++ -*----------------------------------*\
| =========                 |                                                 |
| \\      /  F ield         | OpenFOAM: The Open Source CFD Toolbox           |
|  \\    /   O peration     | Version:  2012                                  |
|   \\  /    A nd           | Website:  www.openfoam.com                      |
|    \\/     M anipulation  |                                                 |
\*---------------------------------------------------------------------------*/
FoamFile
{
    version     2.0;
    format      ascii;
    class       surfaceScalarField;
    location    "0.63";
    object      phi;
}
// * * * * * * * * * * * * * * * * * * * * * * * * * * * * * * * * * * * * * //

dimensions      [0 3 -1 0 0 0 0];
oriented        oriented;


internalField   nonuniform List<scalar> 
84340
(
-0.000640577
0.000141353
0.000499224
-0.0015489
-0.000264348
0.00117267
-0.00213522
-0.000983535
0.00156985
-0.00242655
-0.00142165
0.00171299
-0.00262582
-0.0013571
0.00155636
-0.00281396
-0.00091927
0.00110742
-0.00295734
-0.00034658
0.000489953
-0.00298756
0.0001923
-0.000162077
-0.00287368
0.000634281
-0.000748163
-0.00261234
0.000956898
-0.00121823
-0.00220872
0.00115559
-0.00155921
-0.00167163
0.00124841
-0.00178551
-0.00102053
0.001271
-0.00192209
-0.000274958
0.00124704
-0.00199261
0.000556856
0.0011755
-0.00200731
0.00144009
0.00107183
-0.00195506
0.00226901
0.000949829
-0.00177875
0.00285601
0.000826008
-0.001413
0.00304263
0.000719858
-0.00090648
0.00284359
0.000645465
-0.000446428
0.00241527
0.000600954
-0.000172635
0.00190767
0.000576497
-6.8899e-05
0.00140438
0.000558706
-5.54069e-05
0.000937516
0.000540492
-7.36321e-05
0.000516647
0.000515743
-9.48739e-05
0.00014197
0.000480944
-0.000106267
-0.000187989
0.00043294
-0.000102981
-0.000474188
0.000369422
-8.32221e-05
-0.000717126
0.000289202
-4.6265e-05
-0.000917928
0.000192348
8.45411e-06
-0.00107794
8.01395e-05
7.98733e-05
-0.00120341
-4.04809e-05
0.000165954
-0.00128345
-0.000176662
0.000256703
-0.0013252
-0.000310624
0.000352372
-0.00132846
-0.000429082
0.000432339
-0.00130556
-0.000516386
0.000493484
-0.00126499
-0.000579232
0.000538663
-0.00121131
-0.00062709
0.000573411
-0.00115044
-0.000662671
0.000601796
-0.00108765
-0.000687787
0.000625003
-0.00102656
-0.000703757
0.000642668
-0.000968945
-0.000711837
0.00065422
-0.000915074
-0.000713339
0.000659468
-0.00086414
-0.000709497
0.000658564
-0.000814743
-0.000701222
0.000651825
-0.000765382
-0.000688914
0.000639553
-0.000714878
-0.000672462
0.000621957
-0.000662673
-0.000651403
0.000599199
-0.000608942
-0.000625217
0.000571486
-0.00055446
-0.000593634
0.000539152
-0.000500326
-0.000556839
0.000502705
-0.000447599
-0.000515544
0.000462817
-0.000396947
-0.000470936
0.000420284
-0.000348437
-0.00042451
0.000376
-0.0003014
-0.000377964
0.000330927
-0.000254506
-0.000333024
0.000286129
-0.000205909
-0.000291412
0.000242815
-0.000153587
-0.000254796
0.000202474
-9.59945e-05
-0.000224823
0.000167231
-3.12878e-05
-0.000202906
0.000138199
4.08102e-05
-0.000190513
0.000118416
0.000119982
-0.000188778
0.000109607
0.000205103
-0.000198572
0.000113451
0.000293851
-0.000220346
0.000131599
0.000384058
-0.000254102
0.000163895
0.000472275
-0.000299502
0.000211286
0.000555483
-0.000355816
0.000272608
0.000630875
-0.000422054
0.000346662
0.000696365
-0.000497048
0.000431557
0.000750842
-0.000579459
0.000524983
0.000794237
-0.000667731
0.000624335
0.000827423
-0.000759953
0.000726767
0.000851928
-0.000853726
0.000829221
0.000869556
-0.000946135
0.000928506
0.000882018
-0.00103395
0.00102149
0.000890643
-0.00111405
0.00110543
0.000896185
-0.00118393
0.00117839
0.000898679
-0.00124208
0.00123959
0.000897233
-0.00128824
0.00128969
-0.00132315
0.00133252
0.000887859
0.000231318
-8.99656e-05
0.00026376
-0.000296791
-0.0001402
-0.000579574
-0.000836456
-0.000725391
-0.00157461
-0.000618949
-0.00215341
-0.000340465
-0.00246971
-3.02835e-05
-0.0025126
0.000235188
-0.00233068
0.000452364
-0.00200674
0.000632958
-0.00162717
0.000776017
-0.00126299
0.000884232
-0.000967235
0.000975241
-0.000798936
0.00107874
-0.000856299
0.00123286
-0.00124712
0.00146265
-0.00198396
0.00168667
-0.00289734
0.00173938
-0.00374443
0.00156695
-0.0043653
0.00126633
-0.00470322
0.00093887
-0.00477683
0.000650116
-0.00464306
0.000424936
-0.00436005
0.000257476
-0.00397599
0.00013168
-0.00352673
3.16863e-05
-0.00303973
-5.40604e-05
-0.00254104
-0.000129271
-0.00205101
-0.000200818
-0.00159205
-0.000266618
-0.00118126
-0.000330645
-0.000828379
-0.000393366
-0.000549835
-0.000455206
-0.000345418
-0.000515041
-0.000203012
-0.000571488
-9.69504e-05
-0.000622447
-1.12609e-05
-0.000664922
5.87587e-05
-0.000697109
0.000114068
-0.00071798
0.000154234
-0.000727953
0.00017921
-0.000728732
0.000190327
-0.000722955
0.000190638
-0.000713651
0.000184656
-0.000703514
0.000177618
-0.000694184
0.000174533
-0.000685829
0.00017931
-0.000677239
0.000194234
-0.000666328
0.000219865
-0.000650848
0.000255269
-0.000629038
0.000298486
-0.000600056
0.000347057
-0.000564114
0.000398498
-0.000522377
0.000450697
-0.00047671
0.000502107
-0.000429374
0.000551836
-0.000382753
0.000599582
-0.000339157
0.000645444
-0.000300658
0.000689709
-0.00026909
0.00073274
-0.000245937
0.000774588
-0.000232362
0.00081499
-0.000229179
0.00085326
-0.000236842
0.000888389
-0.000255475
0.000919207
-0.000284921
0.000944543
-0.000324837
0.000963517
-0.00037479
0.000975787
-0.000434325
0.000981721
-0.000502981
0.000982451
-0.00058019
0.000979743
-0.000665022
0.000975656
-0.000755867
0.000972117
-0.000850188
0.000970548
-0.000944566
0.000971704
-0.0010351
0.000975755
-0.0011181
0.000982539
-0.00119072
0.000991858
-0.0012514
0.00100369
-0.00130008
-0.001338
0.00101854
0.00020889
-0.000298856
0.000379167
-0.000467067
0.000310068
-0.000510475
0.000163441
-0.000578763
0.000184487
-0.000639996
0.000484557
-0.000640535
0.00103496
-0.000580685
0.00175591
-0.000485762
0.00258483
-0.000376559
0.00348005
-0.000262264
0.0044
-0.000143932
0.00529873
-1.44915e-05
0.00613561
0.000138357
0.00685855
0.000355808
0.00741934
0.00067207
0.00777414
0.00110785
0.00788393
0.00157689
0.00773476
0.00188855
0.00736461
0.00193709
0.00685204
0.00177891
0.00626905
0.00152186
0.00567716
0.001242
0.00512777
0.000974324
0.00465613
0.000729118
0.00427806
0.000509751
0.00398955
0.000320197
0.00377294
0.000162546
0.00360839
3.52803e-05
0.00347272
-6.51482e-05
0.00334618
-0.00014008
0.00321083
-0.000195289
0.00306512
-0.000247664
0.00290789
-0.000297974
0.00274082
-0.000347969
0.00256708
-0.000397748
0.00238969
-0.000445052
0.0022131
-0.000488341
0.00203925
-0.000523254
0.00187022
-0.000548952
0.00170862
-0.000566353
0.00155733
-0.000577439
0.00141939
-0.00058502
0.00129758
-0.000591836
0.00119385
-0.00059978
0.00110918
-0.000609514
0.00104373
-0.000620381
0.000997007
-0.000630519
0.000967963
-0.000637283
0.000955006
-0.000637891
0.000956031
-0.000630063
0.000968505
-0.00061253
0.000989652
-0.000585261
0.00101669
-0.000549416
0.00104705
-0.000507072
0.00107852
-0.000460844
0.00110931
-0.000413536
0.00113801
-0.000367866
0.00116364
-0.000326282
0.00118544
-0.000290895
0.00120291
-0.000263399
0.00121562
-0.000245075
0.00122324
-0.000236804
0.0012255
-0.000239099
0.00122221
-0.000252183
0.00121338
-0.000276096
0.00119937
-0.000310819
0.00118095
-0.000356378
0.00115951
-0.000412882
0.00113694
-0.000480409
0.00111547
-0.00055872
0.00109727
-0.000646821
0.00108395
-0.000742552
0.00107623
-0.000842463
0.00107379
-0.000942123
0.00107553
-0.00103685
0.00108
-0.00112257
0.00108579
-0.00119651
0.00109187
-0.00125747
0.00109768
-0.00130589
-0.00134335
0.00110303
-0.00032976
3.09038e-05
-0.000647661
-0.000149166
-0.00065458
-0.000503556
-0.000312042
-0.000921302
0.000370337
-0.00132237
0.00129072
-0.00156092
0.00224797
-0.00153793
0.00307248
-0.00131027
0.00369115
-0.00099523
0.00409465
-0.000665767
0.00428938
-0.000338655
0.00429148
-1.66001e-05
0.00412538
0.000304465
0.00385376
0.000627428
0.00357555
0.00095028
0.00342101
0.00126239
0.00345443
0.00154347
0.00357966
0.00176332
0.00363554
0.00188121
0.00355585
0.0018586
0.00339634
0.00168137
0.0032802
0.00135814
0.00330793
0.000946602
0.00350065
0.000536398
0.0037823
0.000228096
0.00404988
5.26242e-05
0.00424318
-3.07554e-05
0.00435405
-7.55946e-05
0.00440041
-0.000111504
0.00440792
-0.000147596
0.00439922
-0.000186587
0.00437818
-0.000226624
0.00434859
-0.000268382
0.00431096
-0.00031034
0.00426297
-0.000349761
0.00420177
-0.000383848
0.00412384
-0.000410415
0.00403059
-0.000430006
0.00392281
-0.000441166
0.00380319
-0.000446737
0.00367538
-0.000449627
0.00354265
-0.000452287
0.00340581
-0.000455003
0.00326421
-0.000458181
0.00311623
-0.000461527
0.00296054
-0.000464688
0.00279736
-0.000467342
0.00262905
-0.000468978
0.00245984
-0.000468682
0.00229496
-0.000465182
0.00213961
-0.000457175
0.00199809
-0.000443747
0.00187334
-0.000424659
0.00176668
-0.00040042
0.00167801
-0.000372168
0.00160596
-0.000341488
0.00154831
-0.000310219
0.00150234
-0.000280306
0.00146513
-0.000253685
0.00143391
-0.000232179
0.00140624
-0.000217406
0.00138015
-0.000210719
0.00135425
-0.000213197
0.00132775
-0.000225683
0.00130053
-0.000248871
0.00127313
-0.000283417
0.00124672
-0.000329977
0.00122298
-0.000389135
0.00120369
-0.000461124
0.00119037
-0.000545393
0.0011837
-0.000640159
0.00118333
-0.000742182
0.00118784
-0.00084697
0.00119516
-0.000949442
0.00120313
-0.00104482
0.00121003
-0.00112947
0.00121486
-0.00120134
0.0012174
-0.00126002
0.00121804
-0.00130652
-0.00134273
0.00121742
-7.89619e-05
0.000109866
-0.000391339
0.000163211
-0.000832004
-6.28903e-05
-0.00116781
-0.000585497
-0.00118536
-0.00130482
-0.000720597
-0.00202568
0.00019461
-0.00245314
0.0013069
-0.00242256
0.00230539
-0.00199372
0.00299738
-0.00135776
0.00335286
-0.000694137
0.00343446
-9.82003e-05
0.00333873
0.000400195
0.00316691
0.000799244
0.0030127
0.00110449
0.00295302
0.00132207
0.00304062
0.00145586
0.00330084
0.0015031
0.00372887
0.00145318
0.00429521
0.00129226
0.0049653
0.00101128
0.00570008
0.000623362
0.00645822
0.000188453
0.00718557
-0.00019095
0.00781792
-0.000404249
0.0082947
-0.000424156
0.00858466
-0.000320718
0.00867875
-0.000169686
0.00858288
-1.56286e-05
0.0083248
0.000110485
0.00794404
0.00019417
0.00748695
0.000230461
0.00699801
0.000220557
0.00651259
0.000175082
0.00605397
0.000108856
0.00563295
3.71786e-05
0.00525012
-2.75834e-05
0.00489788
-7.77694e-05
0.00456728
-0.000110567
0.0042497
-0.000129155
0.00393956
-0.000139484
0.00363507
-0.000147805
0.00333886
-0.00015879
0.00305532
-0.000174642
0.00279029
-0.000196492
0.00254893
-0.000223336
0.00233456
-0.000252968
0.002148
-0.000282411
0.00198783
-0.000308516
0.00185124
-0.000328593
0.00173496
-0.000340894
0.00163602
-0.000344807
0.00155211
-0.000340754
0.00148159
-0.000329896
0.00142322
-0.000313799
0.00137591
-0.000294175
0.00133845
-0.000272759
0.00130943
-0.000251291
0.00128727
-0.000231528
0.00127033
-0.000215234
0.00125707
-0.00020415
0.0012463
-0.00019994
0.00123724
-0.000204144
0.00122973
-0.000218169
0.00122416
-0.000243299
0.00122142
-0.00028068
0.00122267
-0.000331227
0.00122894
-0.000395404
0.0012407
-0.000472878
0.00125745
-0.000562152
0.00127765
-0.000660351
0.00129882
-0.000763351
0.00131813
-0.000866285
0.00133303
-0.000964342
0.00134178
-0.00105357
0.00134374
-0.00113143
0.00133939
-0.00119698
0.00133
-0.00125064
0.0013173
-0.00129382
-0.00132836
0.00130292
-0.000365269
0.000475135
-0.00114326
0.000941201
-0.00230955
0.0011034
-0.00377315
0.000878109
-0.00544975
0.000371771
-0.00715781
-0.000317616
-0.0086743
-0.000936653
-0.00985972
-0.00123714
-0.0106886
-0.0011648
-0.0111872
-0.000859149
-0.0114195
-0.00046186
-0.0114382
-7.94774e-05
-0.0112577
0.000219618
-0.0108419
0.000383442
-0.0101377
0.000400305
-0.00910174
0.000286128
-0.0077478
0.000101924
-0.00614683
-9.787e-05
-0.00440652
-0.000287126
-0.00265779
-0.000456463
-0.00103394
-0.00061257
0.000347045
-0.000757623
0.00142387
-0.000888369
0.00222373
-0.000990814
0.00285735
-0.00103787
0.00344302
-0.00100982
0.00402673
-0.000904428
0.00458273
-0.00072569
0.00506168
-0.000494577
0.00543018
-0.000258016
0.0056632
-3.88477e-05
0.00574664
0.000147022
0.00567814
0.000289055
0.00547192
0.000381307
0.00515952
0.00042125
0.00478481
0.000411885
0.00439277
0.000364464
0.00401793
0.000297064
0.00367994
0.000227424
0.00338287
0.000167915
0.00312318
0.000120205
0.00289445
8.09289e-05
0.002691
4.4662e-05
0.00250867
7.69008e-06
0.00234464
-3.24684e-05
0.00219609
-7.47834e-05
0.00206001
-0.000116888
0.00193342
-0.000155827
0.00181389
-0.000188976
0.00169996
-0.000214665
0.00159143
-0.000232368
0.00148918
-0.000242557
0.00139477
-0.000246339
0.00130996
-0.00024509
0.00123634
-0.000240179
0.00117502
-0.000232847
0.00112649
-0.000224235
0.0010907
-0.000215494
0.00106705
-0.000207884
0.00105465
-0.000202834
0.00105243
-0.000201927
0.00105933
-0.000206845
0.00107447
-0.000219282
0.00109716
-0.000240859
0.00112688
-0.00027302
0.0011631
-0.0003169
0.00120501
-0.000373132
0.0012512
-0.000441599
0.00129951
-0.000521184
0.00134697
-0.000609619
0.00139018
-0.000703559
0.00142577
-0.000798936
0.00145105
-0.000891567
0.00146454
-0.000977837
0.00146621
-0.00105524
0.00145737
-0.00112259
0.00144033
-0.00117994
0.00141789
-0.0012282
0.00139277
-0.00126869
-0.00130277
0.00136718
0.00106517
-0.000590032
0.00285346
-0.000847096
0.00467389
-0.000717028
0.00629919
-0.000747189
0.0075977
-0.000926737
0.00840425
-0.00112417
0.00873862
-0.00127103
0.00880525
-0.00130377
0.00885577
-0.00121531
0.00902828
-0.00103167
0.00932519
-0.000758763
0.00960336
-0.000357649
0.00964561
0.000177364
0.00926535
0.000763702
0.00842843
0.00123723
0.00727658
0.00143797
0.00603566
0.00134285
0.00490464
0.00103315
0.0040109
0.000606618
0.00339297
0.000161464
0.00298813
-0.000207734
0.0026724
-0.000441888
0.00233243
-0.000548402
0.00191405
-0.000572434
0.00142466
-0.000548475
0.000906468
-0.000491633
0.000410616
-0.000408575
-9.33329e-06
-0.000305741
-0.000317818
-0.000186092
-0.000507731
-6.81037e-05
-0.000584401
3.78222e-05
-0.000571883
0.000134504
-0.000497617
0.000214789
-0.000386918
0.000270608
-0.000260255
0.000294588
-0.000131739
0.000283369
-9.05045e-06
0.000241776
0.00010584
0.000182174
0.000214579
0.000118686
0.000321613
6.08804e-05
0.000426715
1.51024e-05
0.00052841
-2.07656e-05
0.00062688
-5.38079e-05
0.000717682
-8.3112e-05
0.000794367
-0.000109154
0.000851972
-0.000132388
0.000887725
-0.000152641
0.000901648
-0.000169751
0.000896434
-0.000183762
0.000876659
-0.000194891
0.000847794
-0.000203504
0.000815251
-0.000210014
0.000783716
-0.000214804
0.000756822
-0.000218197
0.000737136
-0.000220493
0.000726331
-0.000222042
0.000725415
-0.00022332
0.000734919
-0.000224998
0.000755021
-0.000227985
0.00078561
-0.000233422
0.000826325
-0.000242641
0.000876564
-0.000257083
0.000935478
-0.000278197
0.00100193
-0.000307313
0.00107442
-0.000345506
0.00115094
-0.000393424
0.00122892
-0.000451114
0.00130518
-0.000517855
0.00137606
-0.000592065
0.00143778
-0.000671345
0.00148694
-0.000752719
0.00152106
-0.00083305
0.00153904
-0.000909549
0.00154141
-0.000980203
0.00153015
-0.00104398
0.00150833
-0.00110077
0.00147945
-0.00115107
0.00144691
-0.00119565
0.00141352
-0.00123531
-0.00127051
0.00138125
-0.000736885
0.000146853
-0.00170515
0.000121166
-0.00231933
-0.000102843
-0.00260953
-0.000456995
-0.00266576
-0.000870508
-0.00257988
-0.00121004
-0.00251055
-0.00134036
-0.0026261
-0.00118823
-0.00302618
-0.00081523
-0.00365891
-0.00039894
-0.00433794
-7.97309e-05
-0.00485449
0.000158901
-0.00511002
0.000432897
-0.00510478
0.000758454
-0.00491371
0.00104616
-0.00465854
0.0011828
-0.00443892
0.00112323
-0.00430886
0.000903094
-0.00429339
0.000591148
-0.00439461
0.000262685
-0.00459805
-4.29781e-06
-0.00487649
-0.000163447
-0.00519157
-0.000233323
-0.00550871
-0.00025529
-0.0057659
-0.000291288
-0.00592271
-0.000334821
-0.00594832
-0.000382968
-0.00584281
-0.000411252
-0.00560994
-0.000418962
-0.0052699
-0.00040814
-0.00484893
-0.000383146
-0.00436542
-0.000349011
-0.00383968
-0.000310951
-0.00329492
-0.000274149
-0.00275739
-0.000242946
-0.00225401
-0.000220011
-0.00180673
-0.000205497
-0.0014266
-0.000197958
-0.0011126
-0.000195311
-0.000856063
-0.000195661
-0.000643461
-0.0001975
-0.00046432
-0.000199906
-0.000315447
-0.000202681
-0.000193102
-0.000205457
-9.41198e-05
-0.000208136
-1.56745e-05
-0.000210833
4.54695e-05
-0.000213785
9.29399e-05
-0.000217221
0.000130454
-0.000221275
0.000161567
-0.000226004
0.000189404
-0.000231341
0.000216542
-0.000237152
0.000245041
-0.000243303
0.000276559
-0.000249714
0.000312472
-0.000256406
0.000353959
-0.00026353
0.000402032
-0.000271392
0.000457496
-0.000280462
0.000520892
-0.000291381
0.000592407
-0.000304937
0.000671797
-0.000322031
0.000758325
-0.000343612
0.00085072
-0.000370591
0.000947139
-0.000403732
0.00104516
-0.000443531
0.00114183
-0.000490093
0.00123374
-0.000543021
0.00131725
-0.000601366
0.00138884
-0.000663657
0.00144555
-0.000728055
0.00148545
-0.000792614
0.001508
-0.000855603
0.00151422
-0.00091577
0.00150648
-0.000972458
0.00148802
-0.00102553
0.00146239
-0.00107514
0.00143284
-0.00112152
0.00140201
-0.00116481
0.00137177
-0.00120507
-0.00124203
0.00134329
-0.000131308
0.000278161
-0.000333784
0.000323643
-0.000351159
-8.54682e-05
-0.000157305
-0.000650848
0.00013364
-0.00116145
0.000460145
-0.00153655
0.000767044
-0.00164725
0.000988416
-0.0014096
0.0010504
-0.000877211
0.000893453
-0.000241996
0.000516916
0.000296806
2.28461e-05
0.000652971
-0.000380352
0.000836095
-0.000511323
0.000889426
-0.000336944
0.000871784
6.50556e-06
0.000839354
0.000322321
0.000807411
0.000457925
0.00076749
0.000333536
0.000715538
-5.17166e-05
0.000647937
-0.000618766
0.000562752
-0.00124
0.000457789
-0.00181079
0.000337467
-0.00225566
0.000189573
-0.00256047
1.35296e-05
-0.00271669
-0.00017861
-0.00274395
-0.000355704
-0.00265316
-0.000502041
-0.0024662
-0.000605916
-0.00221061
-0.00066374
-0.00191459
-0.000679161
-0.00160297
-0.000660629
-0.00129759
-0.000616334
-0.0010161
-0.000555637
-0.000767952
-0.000491096
-0.000560381
-0.000427582
-0.00039693
-0.000368949
-0.000277133
-0.000317755
-0.000196961
-0.000275483
-0.000149924
-0.000242698
-0.000128211
-0.000219213
-0.000123866
-0.000204251
-0.0001299
-0.000196647
-0.00014031
-0.000195047
-0.000150347
-0.0001981
-0.00015658
-0.0002046
-0.000156807
-0.000213557
-0.00014984
-0.000224188
-0.000135203
-0.000235912
-0.000112902
-0.000248306
-8.31592e-05
-0.000261083
-4.62435e-05
-0.000274068
-2.36414e-06
-0.000287182
4.83629e-05
-0.000300441
0.000105906
-0.000313949
0.000170279
-0.000327903
0.000241477
-0.00034259
0.000319403
-0.000358388
0.000403771
-0.00037575
0.000494024
-0.00039519
0.000589242
-0.000417249
0.000688083
-0.000442453
0.000788745
-0.000471253
0.000888974
-0.000503961
0.000986127
-0.000540684
0.0010773
-0.000581268
0.00115956
-0.000625279
0.00123022
-0.000672027
0.00128722
-0.000720654
0.00132943
-0.000770269
0.00135692
-0.000820098
0.0013709
-0.000869585
0.00137354
-0.000918413
0.0013675
-0.000966416
0.00135542
-0.00101345
0.00133958
-0.0010593
0.00132169
-0.00110362
0.00130293
-0.00114606
0.00128413
-0.00118627
-0.00122375
0.00126585
0.000185944
9.22171e-05
0.000338477
0.00017111
0.000178194
7.48147e-05
-0.000290331
-0.000182323
-0.000968268
-0.000483516
-0.00178025
-0.00072457
-0.0025912
-0.000836305
-0.00319037
-0.000810429
-0.00340927
-0.000658306
-0.00324912
-0.000402143
-0.0028718
-8.05155e-05
-0.00245968
0.000240845
-0.00211613
0.000492547
-0.00187605
0.000649348
-0.00174403
0.000739766
-0.00171344
0.000808764
-0.00177119
0.000865155
-0.0018762
0.000872508
-0.00196132
0.000800651
-0.00196983
0.000656451
-0.00185972
0.000452643
-0.00163104
0.000229112
-0.00131009
1.65158e-05
-0.000952293
-0.000168227
-0.000618956
-0.000319807
-0.000357841
-0.000439725
-0.000182023
-0.000531522
-8.54535e-05
-0.000598611
-4.75229e-05
-0.000643847
-4.16075e-05
-0.000669655
-4.28267e-05
-0.000677941
-3.34178e-05
-0.000670038
-3.04894e-06
-0.000646702
5.00212e-05
-0.000608707
0.000116375
-0.00055745
0.000184155
-0.000495362
0.000241304
-0.000426099
0.000278222
-0.000354672
0.000289315
-0.000286576
0.000273715
-0.000227099
0.000234827
-0.000180325
0.000179143
-0.000148568
0.000114519
-0.000132022
4.83123e-05
-0.00012884
-1.36289e-05
-0.000136158
-6.71134e-05
-0.000151116
-0.00010947
-0.000171201
-0.000139179
-0.000194479
-0.000155572
-0.000219518
-0.000158567
-0.000245311
-0.000148487
-0.000271163
-0.000125923
-0.000296631
-9.16395e-05
-0.000321466
-4.65098e-05
-0.000345571
8.51804e-06
-0.000368977
7.24446e-05
-0.000391829
0.000144225
-0.00041437
0.000222757
-0.000436919
0.000306843
-0.000459836
0.000395153
-0.0004835
0.000486176
-0.000508273
0.000578202
-0.000534479
0.000669326
-0.000562377
0.000757503
-0.000592138
0.000840649
-0.000623831
0.000916795
-0.000657414
0.000984273
-0.000692758
0.00104192
-0.000729676
0.00108924
-0.000767971
0.00112644
-0.000807469
0.00115437
-0.000848031
0.0011743
-0.000889517
0.00118763
-0.000931738
0.00119562
-0.000974401
0.00119926
-0.0010171
0.00119931
-0.00105934
0.00119634
-0.00110065
0.00119089
-0.00114062
0.00118355
-0.00117893
-0.00121519
0.001175
0.000256072
-0.000163854
0.000533574
-0.000106392
0.000509835
9.85528e-05
0.000195393
0.000132119
-0.000250421
-3.77017e-05
-0.000687731
-0.00028726
-0.000989169
-0.000534867
-0.00106131
-0.000738288
-0.000846008
-0.000873608
-0.000330385
-0.000917766
0.000442528
-0.000853429
0.00137769
-0.000694313
0.00235852
-0.000488291
0.0032935
-0.00028563
0.00413949
-0.000106216
0.00489754
5.07105e-05
0.00556839
0.000194305
0.00613451
0.000306389
0.00657465
0.000360507
0.0068891
0.000342004
0.00707563
0.00026611
0.00714495
0.000159798
0.00711635
4.51066e-05
0.00700405
-5.59212e-05
0.00682048
-0.000136236
0.00657693
-0.000196181
0.00628379
-0.000238383
0.00595136
-0.000266174
0.00558974
-0.000282228
0.00520849
-0.000288407
0.00481644
-0.000285892
0.00442144
-0.000275039
0.00403009
-0.00025535
0.00364728
-0.0002259
0.00327609
-0.000186257
0.00291797
-0.000137243
0.00257299
-8.11195e-05
0.00223995
-2.16333e-05
0.00191927
3.41031e-05
0.00161724
7.49348e-05
0.00133617
0.000100741
0.00107877
0.000108831
0.000849602
9.71494e-05
0.000648161
7.26008e-05
0.00047223
3.97722e-05
0.000320982
1.33171e-07
0.000194013
-4.42315e-05
9.1157e-05
-9.16228e-05
1.22173e-05
-0.000140579
-4.34227e-05
-0.000189671
-7.68987e-05
-0.000237687
-8.98034e-05
-0.000283726
-8.4056e-05
-0.000327213
-6.18076e-05
-0.000367819
-2.53458e-05
-0.000405438
2.30173e-05
-0.000440192
8.10545e-05
-0.000472407
0.000146699
-0.000502563
0.000218055
-0.000531193
0.000293365
-0.000558809
0.000370957
-0.000585865
0.000449221
-0.000612743
0.000526607
-0.000639762
0.000601654
-0.000667185
0.000673052
-0.000695228
0.000739708
-0.00072407
0.000800808
-0.000753858
0.000855849
-0.000784717
0.000904623
-0.000816745
0.000947153
-0.000849999
0.000983594
-0.000884471
0.00101414
-0.000920062
0.00103897
-0.000956575
0.0010583
-0.000993727
0.00107238
-0.00103118
0.00108161
-0.00106857
0.00108655
-0.0011056
0.00108792
-0.00114198
0.0010865
-0.00117751
-0.00121184
0.00108314
-0.000281181
0.000117327
-0.000716833
0.00032926
-0.00115212
0.000533842
-0.00166617
0.000646166
-0.0023189
0.000615024
-0.00305999
0.000453835
-0.00380569
0.000210831
-0.00449157
-5.2409e-05
-0.00506736
-0.000297817
-0.00549298
-0.000492145
-0.00574647
-0.000599941
-0.00582573
-0.000615047
-0.00575927
-0.000554757
-0.00557066
-0.000474237
-0.00527719
-0.000399691
-0.0048878
-0.000338677
-0.00440215
-0.000291348
-0.00382849
-0.000267269
-0.00320786
-0.000260119
-0.00259672
-0.000269138
-0.0020374
-0.000293206
-0.00154553
-0.000332078
-0.00111908
-0.000381337
-0.000741512
-0.000433493
-0.000397814
-0.000479933
-7.94566e-05
-0.000514539
0.000218533
-0.000536373
0.000501057
-0.000548698
0.00077438
-0.000555551
0.00104418
-0.000558212
0.00131192
-0.00055363
0.00157323
-0.000536344
0.00181891
-0.000501035
0.00203747
-0.000444452
0.00221762
-0.000366411
0.00235543
-0.000275055
0.00243427
-0.000159958
0.00244562
-3.29839e-05
0.00239492
8.48028e-05
0.00228125
0.000188604
0.00211152
0.000270474
0.00189595
0.000324402
0.00164564
0.000347462
0.00137787
0.000340368
0.00111145
0.000306194
0.000861214
0.000250365
0.000641416
0.000175566
0.000454961
9.48326e-05
0.000305672
8.70992e-06
0.000192019
-7.60174e-05
0.000110708
-0.000156376
5.79557e-05
-0.000230974
3.00452e-05
-0.000299302
2.34295e-05
-0.000361203
3.46358e-05
-0.000416644
6.029e-05
-0.000465846
9.73102e-05
-0.000509428
0.000143077
-0.00054833
0.000195465
-0.000583581
0.000252741
-0.000616085
0.000313423
-0.000646547
0.000376183
-0.000675502
0.000439799
-0.000703378
0.00050315
-0.000730536
0.000565212
-0.000757291
0.000625064
-0.000783922
0.000681883
-0.000810677
0.000734942
-0.000837776
0.000783609
-0.000865412
0.000827351
-0.000893742
0.000865758
-0.000922877
0.000898569
-0.000952872
0.00092571
-0.000983716
0.000947318
-0.00101534
0.000963738
-0.0010476
0.000975491
-0.00108033
0.000983225
-0.00111333
0.000987652
-0.00114641
0.000989494
-0.00117935
-0.00121182
0.000989477
-0.000245407
0.000362734
-0.000548104
0.000631956
-0.000710569
0.000696308
-0.000776036
0.000711633
-0.000870705
0.000709693
-0.00110995
0.00069308
-0.00155256
0.000653444
-0.00218401
0.000579036
-0.00294071
0.000458884
-0.00372098
0.000288122
-0.0043898
6.88795e-05
-0.00483598
-0.000168868
-0.00500559
-0.000385138
-0.00491931
-0.000560519
-0.0046229
-0.000696108
-0.00417323
-0.000788342
-0.00362873
-0.000835851
-0.00304765
-0.000848342
-0.00247798
-0.000829797
-0.00193636
-0.000810758
-0.00142527
-0.000804296
-0.000941855
-0.000815491
-0.000487621
-0.000835571
-7.46642e-05
-0.00084645
0.000276672
-0.000831269
0.000548419
-0.000786286
0.000735852
-0.000723806
0.000850022
-0.000662868
0.000910388
-0.000615918
0.000935939
-0.000583762
0.000940041
-0.000557733
0.000931276
-0.000527579
0.000916698
-0.000486457
0.000903946
-0.000431699
0.000899978
-0.000362443
0.000904479
-0.000279556
0.000929515
-0.000184993
0.000979451
-8.292e-05
0.00104351
2.07483e-05
0.00111282
0.000119285
0.0011775
0.000205803
0.00122767
0.000274224
0.00125519
0.000319943
0.00125523
0.000340332
0.00122651
0.000334914
0.00117125
0.000305629
0.00108998
0.000256829
0.000992769
0.000192046
0.000883336
0.000118143
0.000767274
4.00449e-05
0.000653635
-4.27371e-05
0.000550064
-0.000127403
0.000462704
-0.000211942
0.000395203
-0.000293702
0.000348203
-0.000369644
0.000319924
-0.000437567
0.000307458
-0.000496961
0.000307947
-0.000548819
0.000319103
-0.000594737
0.00033913
-0.000636112
0.000366471
-0.000673887
0.000399645
-0.000708677
0.000437231
-0.000740964
0.000477889
-0.000771193
0.000520379
-0.00079978
0.000563552
-0.000827095
0.000606348
-0.000853472
0.000647796
-0.000879223
0.000687041
-0.000904657
0.000723381
-0.000930082
0.00075629
-0.000955786
0.000785431
-0.000982014
0.000810651
-0.00100894
0.000831958
-0.00103664
0.000849491
-0.00106513
0.000863491
-0.00109433
0.000874283
-0.00112412
0.00088225
-0.00115437
0.000887813
-0.00118492
-0.00121547
0.000891457
0.000808381
-0.000445647
0.0021714
-0.000731063
0.00366855
-0.000800845
0.00521414
-0.000833951
0.00672612
-0.000802285
0.00810687
-0.000687678
0.00925265
-0.000492328
0.0100893
-0.000257591
0.0105969
-4.87325e-05
0.0107996
8.54382e-05
0.0107256
0.000142845
0.0104091
0.000147665
0.00988619
0.000137743
0.00918728
0.000138393
0.00833193
0.000159245
0.00734802
0.000195566
0.00627831
0.000233855
0.00517241
0.000257558
0.00410051
0.000242103
0.00311433
0.000175426
0.00224824
6.17967e-05
0.00151833
-8.55865e-05
0.000926201
-0.000243439
0.000463709
-0.000383958
0.000118772
-0.000486333
-0.000119922
-0.000547591
-0.000265869
-0.000577859
-0.000336261
-0.000592476
-0.000352257
-0.000599922
-0.000335552
-0.000600467
-0.000304044
-0.000589241
-0.000267548
-0.000564075
-0.000229365
-0.00052464
-0.000187623
-0.000473442
-0.000136019
-0.000414047
-6.69358e-05
-0.000348639
2.8774e-05
-0.000280703
0.000156268
-0.000210414
0.000315867
-0.00013885
0.000501764
-6.6612e-05
0.000704988
2.5796e-06
0.000915567
6.36448e-05
0.00112285
0.000112664
0.00130905
0.000154128
0.00145833
0.000185634
0.00155878
0.000205176
0.0016039
0.000211712
0.00159223
0.000203716
0.00152951
0.000180861
0.00142546
0.000144096
0.00130444
7.82774e-05
0.00117599
1.05048e-06
0.00105172
-8.76746e-05
0.000939542
-0.00018152
0.000842426
-0.000272528
0.000759841
-0.000354982
0.000690271
-0.000427391
0.000633065
-0.000491613
0.00058849
-0.000550162
0.000556769
-0.000604391
0.00053736
-0.000654478
0.000528934
-0.000700251
0.000529764
-0.000741794
0.000538095
-0.000779525
0.000552324
-0.000814009
0.000571013
-0.000845784
0.000592852
-0.000875312
0.000616632
-0.000903003
0.000641244
-0.000929269
0.000665707
-0.000954545
0.000689201
-0.00097928
0.000711079
-0.00100389
0.000730871
-0.00102873
0.000748278
-0.00105405
0.000763155
-0.00108001
0.000775497
-0.00110667
0.000785415
-0.00113404
0.000793118
-0.00116208
0.000798877
-0.00119067
-0.0012196
0.000803012
-0.000700325
0.000254678
-0.00176292
0.000331533
-0.00281534
0.000251577
-0.00390824
0.000258942
-0.00501832
0.000307801
-0.00605712
0.000351125
-0.00693072
0.000381266
-0.00759998
0.000411668
-0.00807256
0.000423845
-0.00838586
0.000398742
-0.00858161
0.000338597
-0.00869519
0.000261248
-0.00874039
0.000182936
-0.00871278
0.000110789
-0.00859674
4.32005e-05
-0.00837448
-2.66933e-05
-0.00803359
-0.000107029
-0.00757292
-0.000203119
-0.00701661
-0.000314204
-0.00640601
-0.000435176
-0.0057848
-0.000559416
-0.00518802
-0.000682366
-0.00463137
-0.000800091
-0.00410657
-0.000908757
-0.00359015
-0.00100275
-0.00306108
-0.00107666
-0.00251192
-0.00112702
-0.00195177
-0.00115263
-0.00139958
-0.00115211
-0.000876388
-0.00112366
-0.000399426
-0.0010662
1.81965e-05
-0.000981698
0.00036944
-0.000875883
0.00065355
-0.000757551
0.00087584
-0.000636337
0.00104773
-0.000520534
0.00118276
-0.00041573
0.00129671
-0.00032436
0.00140424
-0.000246378
0.00151766
-0.000180036
0.00164305
-0.000122811
0.001779
-7.2307e-05
0.00191842
-2.67494e-05
0.00205768
1.48608e-05
0.00219056
5.2756e-05
0.00231165
8.40893e-05
0.00240834
0.000115014
0.00247078