/*--------------------------------*- C++ -*----------------------------------*\
| =========                 |                                                 |
| \\      /  F ield         | OpenFOAM: The Open Source CFD Toolbox           |
|  \\    /   O peration     | Version:  2012                                  |
|   \\  /    A nd           | Website:  www.openfoam.com                      |
|    \\/     M anipulation  |                                                 |
\*---------------------------------------------------------------------------*/
FoamFile
{
    version     2.0;
    format      ascii;
    class       volScalarField;
    location    "1.1";
    object      p;
}
// * * * * * * * * * * * * * * * * * * * * * * * * * * * * * * * * * * * * * //

dimensions      [0 2 -2 0 0 0 0];


internalField   nonuniform List<scalar> 
42400
(
-4928.54
-4844.04
-4764.55
-4678.99
-4535.08
-4337.21
-4101.04
-3838.63
-3563.11
-3289.49
-3033.76
-2804.23
-2583.26
-2328.85
-2015.36
-1655.29
-1284.18
-940.982
-658.441
-450.379
-305.814
-202.667
-127.194
-76.7321
-51.5119
-48.2618
-58.9096
-71.9446
-76.1275
-65.815
-43.2904
-15.4741
11.8956
35.7328
54.517
67.6497
75.1344
77.4727
75.5389
70.393
63.1014
54.614
45.7038
36.9474
28.7444
21.3458
14.8877
9.42185
4.93795
1.3798
-1.33105
-3.28338
-4.56962
-5.28379
-5.50757
-5.31693
-4.78985
-3.99558
-2.97596
-1.80842
-0.547919
0.756702
2.05981
3.31998
4.50005
5.56703
6.49251
7.25346
7.83363
8.22539
8.43154
8.4666
8.35715
8.14093
7.86462
7.58079
7.34462
7.21224
7.24102
7.46864
-1751.97
-1578.59
-1331.01
-1024.42
-646.526
-267.566
77.0831
337.974
457.248
402.62
192.153
-125.041
-477.942
-755.745
-866.781
-820.798
-699.086
-571.271
-462.506
-373.634
-302.932
-249.183
-209.97
-182.467
-164.241
-153.18
-147.528
-145.717
-146.191
-147.145
-146.517
-142.619
-134.664
-122.812
-107.88
-91.1529
-73.8357
-56.9251
-41.1865
-27.1299
-15.0301
-4.96631
3.01217
8.89944
12.8787
15.1768
16.0514
15.7864
14.6679
12.9747
10.9664
8.88283
6.89887
5.00239
3.39011
2.14583
1.28927
0.812951
0.694282
0.897846
1.38051
2.09426
2.98844
4.01143
5.11159
6.23803
7.34113
8.37445
9.29674
10.0751
10.6885
11.1303
11.4099
11.5522
11.5952
11.5855
11.5739
11.61
11.736
11.9823
6726.2
6484.93
6230.5
5975.58
5630.91
5256.84
4849.22
4398.04
3869.92
3222.82
2490.15
1775.48
1131.75
537.773
-11.7254
-488.283
-867.681
-1143.19
-1322.09
-1419.79
-1454.32
-1443.87
-1402.9
-1341.13
-1264.87
-1178.96
-1087.75
-995.159
-904.327
-817.424
-735.397
-658.082
-584.579
-513.772
-445.261
-378.84
-315.064
-255.534
-201.674
-154.47
-114.367
-81.3236
-54.8366
-34.1751
-18.6934
-7.7141
-0.453421
4.02923
6.4339
7.34617
7.2717
6.6382
5.63493
4.58559
3.4924
2.43815
1.53308
0.858606
0.465843
0.379826
0.603621
1.1223
1.90728
2.92067
4.11682
5.44547
6.85161
8.27621
9.65878
10.9419
12.077
13.0305
13.7882
14.3563
14.7593
15.0363
15.2349
15.4047
15.5943
15.8197
-13670
-13136.6
-12419.5
-11554
-10584.3
-9544.17
-8391.45
-7083.94
-5648.21
-4206.55
-2921.33
-1910.35
-1200.28
-737.81
-441.023
-244.422
-109.854
-18.134
41.0969
74.5412
87.2235
83.472
67.5076
43.5623
15.5268
-13.3254
-40.4174
-64.0218
-83.1486
-97.2987
-106.091
-109.191
-106.323
-97.1223
-81.1694
-60.0854
-37.0759
-14.8603
4.75687
21.1509
34.5208
45.4358
54.1831
60.8623
65.4008
67.6249
67.3972
64.6848
59.8995
53.6198
46.4584
38.9659
31.6856
24.8236
18.7681
13.6881
9.58938
6.44107
4.18187
2.72709
1.98049
1.84268
2.21729
3.01501
4.15529
5.56451
7.17101
8.89952
10.6686
12.3935
13.9945
15.4069
16.5893
17.5274
18.2324
18.7354
19.0807
19.318
19.4946
19.6312
4843.63
4595.32
4227.78
3724.58
2981.73
2142.38
1381.3
864.626
623.141
554.911
550.811
566.43
601.938
661.377
738.467
821.138
898.465
963.555
1013.4
1047.41
1066.05
1069.9
1059.19
1033.97
994.879
943.948
884.239
818.811
750.726
682.505
616.04
553.214
494.974
441.647
393.137
349.307
309.808
274.204
242.084
213.193
187.401
164.592
144.287
126.161
110.008
95.676
82.718
70.8498
59.951
49.9784
40.9466
32.9973
26.2974
20.7354
16.0712
12.2455
9.26123
7.06981
5.59479
4.75702
4.47723
4.67552
5.27482
6.20734
7.41946
8.86951
10.5176
12.3125
14.1833
16.041
17.7907
19.3479
20.6533
21.6799
22.4319
22.9377
23.2411
23.3935
23.443
23.4328
12791.6
12565.6
12261.7
11789.8
10970.2
9907.36
8743.08
7651.15
6700.73
5850.66
5056.19
4313.68
3634.47
3025.92
2488.28
2018.35
1612.09
1265.51
974.871
736.625
546.929
400.524
291
213.65
164.156
136.45
123.5
120.47
124.733
134.886
149.736
167.464
186.638
206.001
224.175
239.608
250.81
256.539
256.976
252.119
242.565
228.986
212.622
194.5
175.43
156.047
137.124
119.141
102.381
87.1132
73.5236
61.5454
51.1617
42.5557
35.5702
30.0263
25.7619
22.6042
20.377
18.9117
18.0532
17.6613
17.6156
17.8282
18.2527
18.8774
19.7033
20.7172
21.874
23.0954
24.2843
25.3477
26.217
26.8576
27.2682
27.4719
27.507
27.4171
27.2436
27.036
-5430.64
-4929.66
-4294.6
-3661.78
-3049.92
-2503.05
-1982.91
-1483
-1038.31
-688.386
-450.894
-321.492
-284.278
-319.402
-405.932
-523.076
-651.657
-776.098
-885.406
-972.648
-1034.83
-1070.88
-1080.7
-1066.05
-1029
-972.378
-900.289
-817.517
-728.698
-637.976
-548.871
-464.184
-385.792
-314.343
-249.309
-189.919
-136.123
-88.6306
-48.2849
-15.5267
9.87412
28.6989
41.9638
50.6536
55.6949
57.9662
58.2468
57.1731
55.2597
52.8789
50.3309
47.9289
45.8489
44.2274
43.086
42.4109
42.072
41.8889
41.701
41.3618
40.7636
39.87
38.7101
37.3672
35.9722
34.6779
33.6197
32.8772
32.4556
32.2925
32.2853
32.3266
32.331
32.2489
32.0643
31.7858
31.4349
31.0382
30.6205
30.2185
-5173.07
-5140.81
-5075.22
-4947.05
-4761.85
-4554.34
-4347.49
-4142.5
-3928.69
-3703.98
-3483.99
-3295.77
-3161.7
-3083.65
-3037.2
-2983.43
-2892.69
-2756.72
-2583.86
-2387.52
-2178.62
-1966.38
-1757.38
-1552.53
-1348.75
-1144.21
-941.42
-746.07
-564.661
-403.065
-265.163
-150.871
-56.1554
23.2362
87.8957
135.044
162.155
169.3
160.153
140.534
116.273
92.041
70.6757
53.4202
40.4628
31.4019
25.599
22.3844
21.1515
21.4023
22.7581
24.953
27.8253
31.17
34.764
38.2882
41.4916
44.2296
46.362
47.7664
48.4001
48.2909
47.5397
46.3126
44.8124
43.2435
41.7766
40.5207
39.5115
38.7202
38.0787
37.5107
36.9558
36.381
35.7785
35.1571
34.5329
33.9227
33.3413
32.8102
9121.33
8957.54
8736.77
8416.5
7981.51
7454.1
6859.4
6228.71
5594.96
4984.09
4403.69
3842.18
3282.54
2724.67
2194.16
1726.87
1344.65
1042.57
798.796
594.402
422.295
280.398
165.546
72.3052
-4.47934
-68.1388
-120.285
-161.62
-192.571
-213.314
-223.18
-220.298
-203.212
-173.253
-135.716
-97.9895
-66.1403
-42.6703
-27.3434
-17.9764
-12.0218
-7.75762
-4.247
-1.05247
2.01282
5.03367
8.05279
11.1531
14.368
17.7305
21.2534
24.9213
28.691
32.4849
36.1897
39.6707
42.7955
45.4469
47.5253
48.9619
49.7328
49.8655
49.4399
48.5823
47.4486
46.1984
44.9663
43.8388
42.8476
41.979
41.193
40.4459
39.7058
38.9596
38.2103
37.4702
36.7542
36.0746
35.4403
34.8631
-2205.72
-1760.67
-1131.45
-429.813
334.473
1020.36
1584.56
2017.12
2333.53
2556.6
2699.79
2763.27
2743.1
2643.86
2483.23
2284.14
2065.62
1837.6
1602.12
1360.82
1118.79
884.782
668.635
478.614
319.653
192.929
96.4918
26.3926
-22.1995
-54.0454
-73.3264
-83.4631
-86.8176
-85.294
-80.5287
-73.9391
-66.5723
-59.1154
-51.992
-45.3725
-39.257
-33.5451
-28.0964
-22.7742
-17.4738
-12.1336
-6.73333
-1.28325
4.18345
9.61799
14.96
20.1399
25.0804
29.6988
33.9121
37.6402
40.8166
43.3945
45.3534
46.7029
47.4864
47.7783
47.6756
47.287
46.7186
46.0596
45.3731
44.6926
44.0247
43.3588
42.6779
41.9695
41.2325
40.4773
39.7214
38.9831
38.2774
37.614
36.9976
36.4347
-4232.99
-4405.86
-4602.98
-4759.32
-4852.42
-4881.26
-4872.4
-4848.03
-4825.24
-4820
-4842.93
-4891.66
-4947.24
-4974.02
-4931.5
-4796.04
-4563.55
-4236.34
-3822.26
-3340.3
-2823.36
-2312.89
-1847.35
-1451.53
-1132.75
-884.781
-695.098
-550.773
-440.879
-356.731
-291.619
-240.425
-199.341
-165.66
-137.581
-113.948
-94.0055
-77.1949
-63.0497
-51.1389
-41.0501
-32.3963
-24.8315
-18.0644
-11.8654
-6.06691
-0.556822
4.72969
9.81975
14.7114
19.3814
23.7927
27.9004
31.658
35.0223
37.9579
40.4413
42.4633
44.0305
45.1656
45.9059
46.3005
46.4063
46.2837
45.9916
45.583
45.1009
44.5752
44.0228
43.4495
42.8551
42.2396
41.6075
40.9683
40.3346
39.7182
39.1282
38.5701
38.0465
37.5617
-11661.6
-10992.3
-10096.9
-9083.6
-7950.24
-6817.21
-5727.62
-4715.06
-3809.37
-3038.39
-2420.63
-1956.67
-1624.39
-1384.08
-1192.2
-1021.82
-872.75
-760.9
-695.976
-670.46
-666.545
-667.6
-663.231
-648.463
-621.791
-583.922
-537.036
-484.322
-429.453
-375.638
-325.18
-279.098
-237.832
-201.47
-169.885
-142.834
-119.95
-100.717
-84.5101
-70.68
-58.6451
-47.9427
-38.2394
-29.314
-21.0313
-13.3146
-6.12498
0.555213
6.73218
12.4074
17.5812
22.2552
26.4331
30.1214
33.33
36.0722
38.3659
40.2347
41.7067
42.8164
43.6039
44.1139
44.394
44.4913
44.4492
44.3042
44.0832
43.8032
43.4722
43.0932
42.6686
42.204
41.7099
41.1998
40.6878
40.1854
39.7013
39.2408
38.8071
38.4023
15700.2
15382.5
15012
14501.1
13701.5
12693.8
11517.9
10223.3
8870.62
7516.93
6207.29
4964.27
3792.6
2697.08
1704.14
864.723
224.867
-204.531
-453.626
-571.106
-608.004
-603.041
-579.222
-546.291
-507.207
-463.862
-418.623
-374.307
-333.221
-296.055
-263.02
-233.919
-207.648
-182.96
-159.372
-137.412
-117.976
-101.468
-87.5201
-75.318
-64.0755
-53.3003
-42.8139
-32.6497
-22.9378
-13.8219
-5.41461
2.21622
9.04593
15.084
20.3637
24.9335
28.8495
32.1708
34.956
37.2614
39.1401
40.642
41.8138
42.6988
43.3378
43.7686
44.0255
44.1393
44.1364
44.0384
43.8618
43.6185
43.3178
42.968
42.5789
42.1617
41.7288
41.2923
40.8623
40.4467
40.0507
39.6778
39.3302
39.0054
-825.878
-290.079
474.229
1305.49
2169.3
3017.34
3859.27
4654.18
5349.99
5909.28
6304.15
6518.97
6552.69
6414.59
6124.05
5715.33
5234.55
4726.66
4225.02
3747.8
3301.36
2882.68
2481.62
2086.21
1693.78
1319.26
986.138
709.771
488.743
311.619
168.341
53.9161
-32.0709
-88.3416
-116.177
-121.79
-112.872
-97.0125
-79.1257
-61.5128
-45.1018
-30.2154
-16.9633
-5.3644
4.61822
13.0657
20.0971
25.859
30.5118
34.2182
37.1334
39.3981
41.1357
42.4504
43.4279
44.1373
44.6328
44.9572
45.1437
45.2183
45.2019
45.111
44.9587
44.7553
44.5087
44.2245
43.9075
43.5626
43.1949
42.811
42.4181
42.0237
41.6349
41.258
40.8979
40.5583
40.2417
39.9497
39.6827
39.4354
405.647
286.204
98.9877
-168.706
-534.213
-969.708
-1433.21
-1887.03
-2309.03
-2685.73
-2999.94
-3234.96
-3378.09
-3423.75
-3374.41
-3238.58
-3029.73
-2762
-2445.36
-2084.79
-1683.47
-1248.41
-795.604
-362.238
-1.8972
243.861
373.836
419.182
414.682
384.14
341.406
295
250.462
211.322
179.184
154.492
135.471
120.773
109.547
101.03
94.5552
89.5446
85.519
82.1042
79.0318
76.1305
73.3105
70.5428
67.8373
65.2234
62.736
60.4056
58.2536
56.2914
54.5209
52.9366
51.5275
50.279
49.1748
48.1977
47.3304
46.5566
45.8614
45.2316
44.6559
44.1252
43.6325
43.1727
42.7422
42.3388
41.9614
41.6096
41.2833
40.9827
40.7078
40.4584
40.2342
40.0348
39.8587
39.6999
-11048
-10678.8
-10236.2
-9755.32
-9228.29
-8668.47
-8056.05
-7380.42
-6647.21
-5879.89
-5118.28
-4404.85
-3771.49
-3239.11
-2822.99
-2525.92
-2328.89
-2198.36
-2100.69
-2008.06
-1897.46
-1748.45
-1550.36
-1306.59
-1041.09
-787.146
-564.619
-374.891
-213.289
-77.6308
32.2401
116.568
178.458
221.135
247.736
262.267
267.986
266.747
259.682
247.935
232.75
215.368
196.927
178.393
160.526
143.864
128.742
115.31
103.584
93.4793
84.8578
77.5545
71.4
66.2328
61.9061
58.2901
55.2723
52.7558
50.6585
48.9106
47.4528
46.2356
45.217
44.3621
43.6416
43.0316
42.5122
42.0677
41.6854
41.355
41.0688
40.8209
40.6064
40.4221
40.2649
40.1328
40.0238
39.9362
39.868
39.814
7754.25
7500.41
7247.71
7007.28
6684.59
6286.47
5793.16
5202.66
4522.42
3762.25
2950.48
2163.34
1520.32
1097.58
858.588
725.243
674.145
715.548
837.126
1004.44
1175.45
1303.77
1352.83
1317.67
1227.37
1120.62
1020.11
929.441
844.569
763.244
685.21
612.004
543.818
480.861
423.441
371.143
323.729
281.367
244.089
211.794
184.259
161.135
141.973
126.247
113.397
102.862
94.1322
86.7877
80.4891
75.0028
70.1644
65.866
62.0382
58.6354
55.6247
52.9791
50.673
48.6808
46.9757
45.5303
44.3166
43.3074
42.4761
41.7978
41.2496
40.8109
40.4636
40.1921
39.9832
39.8259
39.7114
39.6326
39.5837
39.5602
39.5587
39.5762
39.6103
39.659
39.7204
39.7911
1222.46
1525.66
2011.28
2604.15
3261.31
3948.46
4667.44
5369.4
5994.11
6501.17
6860.16
7042.88
7028.07
6820.3
6462.42
6017.72
5537.7
5050.36
4568.69
4099.85
3650.17
3225.24
2828.34
2458.65
2111.92
1785.44
1481.46
1205.69
962.833
753.169
575.339
427.024
305.869
209.805
136.612
83.7811
48.5123
27.86
18.8304
18.365
23.7419
32.2487
41.4067
49.3034
55.0681
58.5505
59.9425
59.7046
58.3547
56.3398
53.9919
51.5684
49.2219
47.052
45.1138
43.4299
42.0021
40.8184
39.8591
39.1006
38.5179
38.0863
37.7826
37.5855
37.4762
37.4383
37.4576
37.5224
37.623
37.7514
37.9014
38.0681
38.2475
38.4366
38.6332
38.8354
39.0417
39.2511
39.4628
39.6757
11269.8
10963.5
10540.4
9908.47
8971.39
7837.7
6584.12
5284.69
4004.06
2792.61
1684.84
696.025
-173.448
-931.093
-1582.79
-2127.52
-2562.34
-2886.13
-3100.79
-3211.68
-3227.57
-3160.2
-3024.29
-2837.47
-2618.04
-2381.12
-2136.98
-1892.44
-1652.8
-1423.42
-1208.44
-1010.83
-832.376
-673.806
-535.868
-419.139
-323.834
-248.364
-189.471
-143.231
-106.533
-77.2017
-53.7733
-35.1678
-20.6112
-9.41113
-0.815216
5.83235
11.0221
15.1041
18.3298
20.8863
22.9188
24.5438
25.8571
26.9365
27.8451
28.632
29.3345
29.9802
30.588
31.1708
31.7363
32.289
32.8308
33.3625
33.8837
34.3938
34.8921
35.3779
35.8506
36.3102
36.7564
37.1895
37.6097
38.0172
38.4125
38.7962
39.1695
39.5339
-20011.9
-19454.3
-18806.4
-18145
-17445.3
-16686.6
-15792.7
-14704.6
-13408.5
-11947.1
-10407.5
-8889.72
-7472.75
-6199.89
-5083.14
-4115.38
-3283.93
-2577.64
-1987.14
-1501.8
-1110.65
-806.112
-583.668
-436.848
-353.692
-318.029
-313.594
-326.562
-346.115
-364.588
-377.398
-381.946
-376.869
-361.786
-338.111
-308.784
-276.5
-243.013
-209.552
-177.201
-146.939
-119.565
-95.5623
-75.0478
-57.8731
-43.6658
-31.9599
-22.3367
-14.4222
-7.89426
-2.48316
2.03377
5.83838
9.07782
11.8702
14.3094
16.4691
18.4061
20.1639
21.7748
23.2626
24.6451
25.9351
27.1428
28.2758
29.3406
30.3427
31.2871
32.1782
33.02
33.8164
34.5708
35.2864
35.9662
36.6128
37.2286
37.8155
38.3761
38.9134
39.4309
-11538.7
-11173.3
-10673.5
-10040.6
-9249.69
-8391.38
-7544.43
-6769.03
-6091.83
-5508
-4986.2
-4494.58
-4024.39
-3581.61
-3161.88
-2743.88
-2311.95
-1877.58
-1480.76
-1170.82
-970.439
-849.127
-752.706
-657.131
-569.854
-499.377
-443.549
-395.19
-349.347
-304.93
-262.451
-223.576
-189.399
-160.667
-137.505
-119.467
-105.765
-95.5445
-87.912
-82.1907
-77.8558
-74.5553
-72.0629
-70.2157
-68.8829
-67.9512
-67.3096
-66.838
-66.3871
-65.7642
-64.6987
-63.085
-60.6857
-57.3319
-53.0234
-48.0573
-42.9962
-38.4861
-35.0381
-32.8653
-31.8659
-31.7422
-32.1555
-32.8056
-33.4932
-34.0932
-34.5387
-34.8138
-34.9813
-34.9749
-34.7935
-34.4624
-33.9994
-33.4188
-32.7323
-31.9501
-31.0804
-30.1309
-29.1054
-27.9997
6543.64
6434.25
6367.73
6362.63
6390.83
6436.11
6459.38
6424.99
6307.29
6084.07
5734.97
5249.17
4643.31
3960.79
3258.6
2602.65
2057.65
1653.09
1365.81
1143.28
949.042
782.766
658.93
573.638
506.645
445.83
390.677
342.77
301.604
265.968
233.676
202.688
170.892
137.172
101.433
64.6972
28.9984
-3.20682
-29.9608
-50.5
-65.2681
-75.3723
-81.995
-86.0841
-88.3132
-89.1588
-88.9689
-88.0214
-86.5436
-84.691
-82.4842
-80.1656
-77.7799
-75.3309
-72.7632
-69.9602
-66.8262
-63.4124
-59.9714
-56.8358
-54.2265
-52.1706
-50.5617
-49.2605
-48.1523
-47.158
-46.2258
-45.3219
-44.4241
-43.5108
-42.5664
-41.5809
-40.547
-39.4598
-38.3161
-37.1141
-35.8541
-34.5377
-33.1645
-31.7209
4377.76
4244.46
4088.42
3916.27
3706.73
3470.09
3187.6
2863.77
2528.69
2215.5
1951.85
1747.58
1585.22
1435.36
1276.3
1100.41
911.288
721.756
548.726
403.293
280.574
161.778
33.6343
-95.0187
-203.017
-277.887
-319.531
-333.314
-324.67
-298.347
-259.285
-212.231
-161.573
-111.432
-65.6199
-27.4835
0.467332
16.9504
22.2807
18.473
8.00255
-6.46463
-22.3792
-37.8313
-51.6003
-63.0321
-71.9563
-78.6425
-83.3047
-86.2799
-87.8633
-88.0755
-87.1816
-85.4644
-83.1885
-80.5834
-77.8258
-75.0435
-72.3334
-69.7689
-67.3933
-65.2147
-63.2149
-61.3633
-59.6274
-57.9782
-56.3918
-54.849
-53.3341
-51.8338
-50.3369
-48.8337
-47.3158
-45.7757
-44.2071
-42.6044
-40.964
-39.2837
-37.5576
-35.7465
-14434.7
-13735
-12890
-11982.4
-10916
-9726.13
-8436.1
-7112.95
-5837.27
-4673.82
-3661.64
-2813.77
-2123.18
-1571.89
-1137.51
-797.018
-527.244
-307.817
-126.106
21.9461
134.844
208.923
240.801
229.847
178.805
92.2746
-22.1585
-152.427
-283.843
-403.207
-500.259
-568.596
-606.053
-614.368
-597.981
-563.709
-518.922
-469.959
-421.24
-375.307
-332.623
-293.098
-256.733
-224.304
-196.67
-174.374
-157.26
-144.397
-134.777
-127.339
-121.207
-115.804
-110.942
-106.504
-102.356
-98.4186
-94.661
-91.0773
-87.6732
-84.4537
-81.417
-78.5536
-75.8486
-73.2852
-70.8464
-68.5162
-66.2801
-64.1245
-62.0362
-60.0027
-58.0115
-56.0501
-54.1067
-52.1697
-50.2283
-48.2728
-46.2964
-44.2947
-42.2567
-40.1171
14106.9
13692.8
13025.5
12042.9
10793.7
9547.36
8416.81
7398.93
6459.81
5583.89
4768.8
4015.85
3324.47
2695.42
2132.03
1637.76
1214.16
860.296
572.009
342.077
160.787
18.0908
-95.7272
-190.661
-274.27
-348.81
-412.799
-462.957
-496.978
-515.277
-520.478
-515.792
-503.838
-486.267
-463.969
-436.802
-405.037
-369.711
-332.5
-295.509
-260.453
-228.016
-199.291
-175.336
-156.672
-143.129
-133.894
-127.802
-123.778
-120.634
-118.136
-116.069
-114.054
-111.857
-109.422
-106.751
-103.882
-100.87
-97.7762
-94.6572
-91.5592
-88.5158
-85.5494
-82.6728
-79.8922
-77.2082
-74.6177
-72.1143
-69.6892
-67.3318
-65.0302
-62.7715
-60.5425
-58.3297
-56.12
-53.9014
-51.6658
-49.408
-47.1151
-44.7004
4159.65
4029.29
3790.39
3490.97
3212.73
3052.83
2977.46
2915.64
2831.93
2729.65
2620.12
2505.05
2378.47
2236.66
2079.72
1910.45
1734.02
1556.55
1383.46
1218.91
1065.76
925.244
796.801
679.245
570.99
471.015
377.234
289.578
207.765
131.744
61.942
-1.19076
-57.0267
-104.715
-143.66
-173.688
-195.086
-208.562
-215.148
-216.071
-212.608
-205.954
-197.224
-187.492
-177.751
-168.767
-160.968
-154.438
-148.975
-144.275
-140.074
-136.16
-132.364
-128.56
-124.674
-120.683
-116.613
-112.526
-108.493
-104.58
-100.828
-97.2562
-93.86
-90.6262
-87.5381
-84.5798
-81.7378
-79.0003
-76.356
-73.7934
-71.2992
-68.859
-66.4568
-64.076
-61.6992
-59.3102
-56.8968
-54.4549
-51.9697
-49.3401
-9926.82
-9456.61
-8834.61
-8116.76
-7227.3
-6301.65
-5476.01
-4849.7
-4395.24
-4009.03
-3647.96
-3328.96
-3040.29
-2751
-2455.37
-2160.8
-1874.72
-1607.92
-1368.42
-1154.88
-961.349
-784.238
-624.211
-484.454
-367.269
-272.953
-200.107
-146.379
-109.037
-85.429
-73.1272
-69.6185
-72.8028
-80.6251
-91.1891
-103.055
-114.874
-125.786
-135.063
-142.371
-147.71
-151.333
-153.637
-155.032
-155.83
-156.174
-156.067
-155.45
-154.272
-152.514
-150.175
-147.268
-143.818
-139.871
-135.509
-130.848
-126.028
-121.194
-116.471
-111.946
-107.667
-103.647
-99.8791
-96.3447
-93.0228
-89.8919
-86.9307
-84.1183
-81.4338
-78.8564
-76.3644
-73.9354
-71.5459
-69.1713
-66.7865
-64.3676
-61.8977
-59.3682
-56.7647
-53.9861
-2215.15
-2238.86
-2216.12
-2167.18
-2133.41
-2164.81
-2259.55
-2392.14
-2527.26
-2638.76
-2725.68
-2799.97
-2858.21
-2884.41
-2863.04
-2780.61
-2626.15
-2399.74
-2121.88
-1829.95
-1561.3
-1337.47
-1160.87
-1021.39
-905.828
-804.056
-711.356
-627.746
-555.542
-496.412
-449.683
-412.62
-381.701
-354.532
-330.176
-308.078
-287.706
-269.253
-252.666
-237.853
-224.723
-213.175
-203.087
-194.315
-186.696
-180.054
-174.204
-168.962
-164.149
-159.599
-155.164
-150.723
-146.19
-141.523
-136.729
-131.86
-127.005
-122.266
-117.734
-113.468
-109.486
-105.775
-102.301
-99.0318
-95.9412
-93.0113
-90.2292
-87.5844
-85.0654
-82.6576
-80.3426
-78.0971
-75.8924
-73.695
-71.4672
-69.1701
-66.7747
-64.2534
-61.5912
-58.7218
6488.32
6337.23
6123.05
5793.65
5329.67
4742.61
4055.68
3313.75
2569.92
1871.02
1247.48
710.75
258.895
-113.149
-408.191
-629.28
-778.151
-852.958
-851.471
-782.659
-672.831
-555.102
-453.516
-376.897
-327.067
-304.082
-305.219
-323.724
-347.873
-365.808
-371.451
-365.456
-351.665
-333.758
-314.416
-295.36
-277.908
-262.065
-247.755
-234.879
-223.322
-212.964
-203.668
-195.299
-187.724
-180.83
-174.51
-168.666
-163.205
-158.046
-153.12
-148.371
-143.759
-139.258
-134.852
-130.535
-126.307
-122.174
-118.149
-114.248
-110.495
-106.91
-103.509
-100.301
-97.2914
-94.48
-91.862
-89.4286
-87.1664
-85.0568
-83.075
-81.1889
-79.3578
-77.5314
-75.6512
-73.6556
-71.482
-69.0777
-66.4136
-63.4814
-8967.17
-8684.65
-8365.77
-8056.94
-7722.5
-7403.5
-7084.48
-6747.36
-6376.64
-5947.92
-5433.37
-4815.06
-4090.13
-3267.87
-2371.67
-1437.09
-518.281
299.898
916.149
1267.36
1370.58
1300.67
1136.21
931.178
720.456
527.576
365.141
238.082
144.53
78.0828
30.6398
-5.4319
-35.7949
-63.7283
-90.5719
-116.427
-140.106
-160.218
-176.117
-187.42
-194.391
-197.629
-197.854
-195.76
-191.97
-187.022
-181.349
-175.288
-169.087
-162.915
-156.883
-151.053
-145.455
-140.095
-134.969
-130.068
-125.386
-120.92
-116.673
-112.649
-108.857
-105.302
-101.991
-98.9265
-96.1111
-93.5435
-91.2191
-89.1293
-87.2601
-85.5908
-84.0922
-82.7248
-81.4357
-80.1558
-78.8013
-77.2833
-75.496
-73.3403
-70.7332
-67.6641
1081.67
1115.52
1146.65
1139.36
1114.49
1088.3
1088.09
1116.42
1153.32
1170.53
1142.32
1052.05
894.501
672.796
396.954
85.4048
-233.019
-522.456
-752.413
-911.623
-1009.57
-1064.47
-1090.63
-1093.87
-1074.44
-1032.62
-971.302
-896.365
-814.629
-731.75
-651.907
-576.998
-507.347
-443.77
-388.121
-342.021
-305.665
-278.046
-256.711
-240.021
-226.466
-214.974
-204.85
-195.652
-187.112
-179.084
-171.51
-164.385
-157.72
-151.517
-145.752
-140.385
-135.362
-130.627
-126.128
-121.826
-117.692
-113.716
-109.903
-106.269
-102.836
-99.628
-96.6662
-93.9667
-91.5402
-89.3915
-87.5198
-85.9181
-84.5722
-83.4609
-82.5526
-81.8025
-81.1491
-80.511
-79.7862
-78.8597
-77.5832
-75.8081
-73.384
-70.2559
6964.93
6866.88
6714.76
6472.75
6138.18
5750.39
5329
4890
4446.19
4002.21
3558.64
3117.69
2685.71
2269.41
1870.02
1483.28
1104.4
731.241
363.929
5.65697
-337.01
-648.725
-901.22
-1066.5
-1143.41
-1161.97
-1155.8
-1138.15
-1105.7
-1054.89
-986.438
-903.058
-809.123
-711.372
-617.63
-534.133
-463.82
-406.558
-360.495
-323.317
-292.938
-267.642
-246.074
-227.225
-210.445
-195.479
-182.334
-171.039
-161.475
-153.333
-146.258
-139.923
-134.086
-128.594
-123.355
-118.317
-113.444
-108.741
-104.249
-100.033
-96.1511
-92.6466
-89.5445
-86.8517
-84.5607
-82.653
-81.1038
-79.8849
-78.9661
-78.3139
-77.8877
-77.6354
-77.489
-77.3597
-77.1356
-76.6714
-75.819
-74.4036
-72.2672
-69.2238
-17976.9
-17173.9
-16108.9
-14885.2
-13484.1
-12003.4
-10489.2
-8996.91
-7578.48
-6275.26
-5116.14
-4118.65
-3287.79
-2616.58
-2090.42
-1691.14
-1400.27
-1200.52
-1075.08
-1009.08
-988.649
-998.533
-1020.55
-1036.84
-1036.13
-1016.03
-978.808
-927.926
-865.994
-794.883
-717.032
-636.582
-558.404
-487.032
-425.411
-374.223
-333.153
-299.967
-272.815
-249.759
-229.245
-210.314
-192.508
-175.75
-160.197
-146.201
-134.214
-124.537
-117.141
-111.756
-108.01
-105.351
-103.331
-101.547
-99.6797
-97.4943
-94.9045
-91.9422
-88.7549
-85.5603
-82.4999
-79.6549
-77.1492
-75.038
-73.3285
-71.9971
-70.9999
-70.2903
-69.8308
-69.5879
-69.5198
-69.5748
-69.6879
-69.7766
-69.7389
-69.4515
-68.7773
-67.5624
-65.733
-62.9879
9737.49
9244.12
8553.85
7666.77
6560.79
5479.77
4540.23
3765.96
3128.9
2580.78
2079.27
1615.88
1214.69
896.926
663.394
501.453
395.521
329.034
287.365
260.616
244.561
238.517
241.687
251.515
264.623
278.614
292.586
306.95
321.447
334.856
345.453
351.521
351.157
342.826
325.799
300.47
268.743
232.771
195.099
157.666
121.862
88.4688
57.904
30.2789
5.50469
-16.5673
-36.067
-53.0816
-67.6746
-79.9076
-89.8345
-97.4876
-102.888
-106.066
-107.074
-106.05
-103.098
-97.9667
-91.6198
-84.7762
-78.3154
-72.8373
-68.5705
-65.465
-63.3136
-61.8839
-60.9062
-60.1624
-59.5938
-59.2417
-59.0346
-58.9206
-58.8393
-58.7205
-58.4817
-58.0264
-57.257
-56.0656
-54.4297
-52.0723
17200.8
17060.7
16790.8
16255.3
15427.7
14494.5
13586.5
12733.3
11889.5
10997.1
10066.6
9198.66
8480.45
7895.78
7379.9
6896.96
6436.96
5994.85
5568.87
5162.22
4779.24
4421.01
4083.49
3760.6
3446.91
3138.03
2832.13
2529.98
2234.76
1951.17
1683.93
1436.88
1212.94
1013.97
840.45
691.461
564.512
456.837
365.948
289.485
225.202
170.814
124.623
85.2039
51.3514
22.1106
-3.20664
-25.0287
-43.5595
-58.8514
-70.8988
-79.7255
-85.4392
-88.2483
-88.4563
-86.457
-82.573
-77.6455
-71.8973
-65.9517
-60.5829
-56.2605
-53.0184
-50.6914
-49.0606
-47.8857
-47.0635
-46.5424
-46.2194
-45.9479
-45.7189
-45.5141
-45.3065
-45.0537
-44.7
-44.1843
-43.448
-42.4388
-41.1399
-39.3796
-10189.5
-9042.96
-7560.29
-6032.54
-4429.36
-2951.46
-1648
-545.397
356.267
1087.01
1697.93
2218.89
2632.49
2905.97
3038.2
3063.88
3029.06
2964.47
2878.86
2770.77
2641.8
2496.92
2339.01
2164.74
1964.24
1735.15
1487.02
1238.33
1007.78
806.676
637.903
498.87
384.901
291.713
215.925
154.643
105.317
65.8897
34.4676
9.44791
-10.4498
-26.0877
-38.5124
-48.5643
-56.7802
-63.6294
-69.2883
-73.7509
-76.9558
-78.8215
-79.2847
-78.3278
-76.0096
-72.4816
-67.9783
-62.8016
-57.2998
-51.8823
-46.9675
-43.015
-40.0651
-37.9547
-36.5328
-35.5838
-34.8847
-34.2901
-33.7296
-33.215
-32.7727
-32.3963
-32.0777
-31.8085
-31.5725
-31.3415
-31.0779
-30.7408
-30.2939
-29.711
-28.9812
-28.0041
-5164.43
-5430.09
-5731.04
-5992.84
-6228.32
-6389.88
-6476.29
-6481.85
-6397.04
-6224.28
-5993.79
-5765.09
-5603.39
-5545.6
-5581.12
-5659.72
-5724.11
-5737.33
-5692.66
-5600.75
-5468.69
-5293.25
-5068.53
-4797.26
-4491.18
-4166.88
-3837.73
-3503.05
-3153.44
-2785.53
-2409.12
-2042.81
-1704.54
-1405.15
-1148.18
-932.933
-756.575
-614.894
-502.803
-415.051
-346.766
-293.787
-252.674
-220.627
-195.484
-175.412
-159.052
-145.366
-133.546
-122.985
-113.239
-103.993
-95.0393
-86.2638
-77.64
-69.2202
-61.122
-53.512
-46.5803
-40.5008
-35.3835
-31.2412
-27.9901
-25.4853
-23.573
-22.0698
-20.9448
-20.1297
-19.5605
-19.1983
-19.0102
-18.9615
-19.0148
-19.13
-19.2659
-19.3822
-19.4456
-19.4305
-19.3322
-19.0505
-9844.53
-9569.43
-9243.43
-8885.55
-8489.71
-8056.51
-7557.58
-6968.37
-6294
-5580.5
-4897.11
-4301.54
-3817.19
-3440.78
-3163.16
-2975.05
-2861.18
-2797.76
-2758.85
-2723.52
-2679.35
-2620.25
-2544.19
-2453.5
-2352.2
-2245.24
-2131.02
-2003.45
-1858.37
-1700.11
-1540.7
-1392.05
-1258.9
-1138.39
-1024.55
-913.41
-805.588
-704.155
-611.749
-529.687
-458.007
-396.053
-342.865
-297.308
-258.288
-224.872
-196.194
-171.51
-150.158
-131.567
-115.253
-100.817
-87.9502
-76.4167
-66.0499
-56.7376
-48.409
-41.0205
-34.5432
-28.9506
-24.2078
-20.2622
-17.0425
-14.4637
-12.439
-10.9474
-9.86195
-9.13235
-8.71419
-8.56346
-8.63704
-8.89043
-9.27715
-9.74924
-10.2587
-10.7599
-11.2123
-11.5806
-11.8449
-11.8967
9760.16
9657.36
9499.89
9217.64
8784.83
8230.71
7592.36
6933.58
6321.96
5786.84
5317.18
4890.98
4498.11
4139.65
3810.51
3493.8
3175.24
2859.19
2566.09
2316.69
2119.24
1967.88
1844.38
1727.52
1603.02
1469.04
1329.83
1188.05
1048.44
918.843
803.851
699.277
594.918
483.023
364.757
249.242
146.922
64.3855
2.89651
-39.9635
-68.2492
-85.925
-96.1642
-100.979
-101.97
-100.223
-96.5306
-91.487
-85.5317
-78.9925
-72.1188
-65.1054
-58.1091
-51.2583
-44.6596
-38.4013
-32.5547
-27.1758
-22.3059
-17.9685
-14.1748
-10.9232
-8.19128
-5.95304
-4.17438
-2.82192
-1.85588
-1.23782
-0.929005
-0.888982
-1.07496
-1.4414
-1.94029
-2.52241
-3.1397
-3.74838
-4.31232
-4.80477
-5.21611
-5.4549
5607.99
5353.93
5020.49
4726.9
4491.02
4327.15
4175.46
4040.28
3945.96
3891.32
3860.82
3846.7
3835.29
3790.3
3679.43
3509.44
3313.65
3114.63
2916.07
2713.12
2503.98
2289.77
2072.33
1855.24
1646.47
1454.88
1284.46
1133.96
996.244
862.255
729.887
606.769
501.821
418.163
353.41
302.438
259.856
221.387
184.617
149.005
115.264
84.5227
57.6918
35.2091
17.0596
2.921
-7.68712
-15.2954
-20.4167
-23.5154
-24.9961
-25.2057
-24.4381
-22.9408
-20.9221
-18.5558
-15.9845
-13.3282
-10.7074
-8.18308
-5.81403
-3.64211
-1.70367
-0.019163
1.40034
2.55043
3.4333
4.05611
4.43145
4.57774
4.51964
4.28823
3.92046
3.45768
2.94308
2.41795
1.91645
1.45828
1.0316
0.629737
-25.7696
-22.4793
-19.1417
-15.9038
-12.9025
-10.2444
-8.03891
-6.34298
-5.18656
-4.55042
-4.37251
-4.55826
-5.00563
-5.59264
-6.2323
-6.82105
-7.28167
-7.55978
-7.64236
-7.56545
-7.39733
-7.20911
-7.05416
-6.96458
-6.95745
-7.04208
-7.22497
-7.51245
-7.91194
-8.43269
-9.08646
-9.88835
-10.8566
-12.0087
-13.3511
-14.8693
-16.5257
-18.269
-20.0476
-21.8175
-23.5412
-25.1821
-26.6979
-28.0385
-29.1476
-29.9686
-30.4503
-30.5544
-30.2618
-29.575
-28.5193
-27.1406
-25.5001
-23.6678
-21.7138
-19.702
-17.6878
-15.7196
-13.8415
-12.0928
-10.5035
-9.09038
-7.85544
-6.7887
-5.87292
-5.08811
-4.41466
-3.83484
-3.33332
-2.89703
-2.51483
-2.17727
-1.87652
-1.60662
-1.36356
-1.14525
-0.950917
-0.780478
-0.633792
-0.510244
-0.408588
-0.326974
-0.263058
-0.214204
-0.177701
-0.150921
-0.131613
-0.117607
-0.107175
-0.0989139
-0.0918036
-0.0851728
-0.0786296
-0.0720102
-0.0653549
-0.0588819
-0.0529315
-0.047897
-0.0441882
-0.0422368
-0.0425097
-0.0454935
-0.0516559
-0.0614285
-0.0752313
-0.0935157
-0.116786
-0.145591
-0.180531
-0.222303
-0.271791
-0.33015
-0.398865
-0.479804
-0.575293
-0.688213
-0.822099
-0.98118
-1.17033
-1.39497
-1.66082
-1.97367
-2.33891
-2.7611
-3.24356
-3.78812
-4.39519
-5.06404
-5.79338
-6.58191
-7.42876
-8.33365
-9.2968
-10.3185
-11.3988
-12.5366
-13.7293
-14.9727
-16.2602
-17.5827
-18.9285
-20.2832
-21.6296
-22.9483
-24.218
-25.4166
-26.5216
-27.5109
-28.3642
-29.0631
-29.5922
-29.9401
-30.0995
-30.0672
-29.8486
-29.4469
-28.8731
-28.1421
-27.2716
-26.2813
-25.192
-24.0246
-22.8
-21.5378
-20.2566
-18.9734
-17.7037
-16.4611
-15.2571
-14.1012
-13.0007
-11.9604
-10.9827
-10.068
-9.21521
-8.42172
-7.68409
-6.99818
-6.35948
-5.76343
-5.20587
-4.68331
-4.19317
-3.73374
-3.30405
-2.90357
-2.53194
-2.18876
-1.87341
-1.58516
-1.32298
-1.08604
-0.873088
-0.684027
-0.517041
-0.374479
-0.251651
-0.158304
-0.0773185
-0.0410154
-28.8829
-24.5173
-20.341
-16.4287
-12.9349
-9.94347
-7.52978
-5.73521
-4.54391
-3.9021
-3.7184
-3.88773
-4.28928
-4.81268
-5.35851
-5.85215
-6.23824
-6.48576
-6.59495
-6.59592
-6.53537
-6.46011
-6.40735
-6.40316
-6.46508
-6.6055
-6.8344
-7.16111
-7.59557
-8.14925
-8.83608
-9.67328
-10.6806
-11.8748
-13.2587
-14.8117
-16.4914
-18.2459