/*--------------------------------*- C++ -*----------------------------------*\
| =========                 |                                                 |
| \\      /  F ield         | OpenFOAM: The Open Source CFD Toolbox           |
|  \\    /   O peration     | Version:  2012                                  |
|   \\  /    A nd           | Website:  www.openfoam.com                      |
|    \\/     M anipulation  |                                                 |
\*---------------------------------------------------------------------------*/
FoamFile
{
    version     2.0;
    format      ascii;
    class       surfaceScalarField;
    location    "0.36";
    object      phi;
}
// * * * * * * * * * * * * * * * * * * * * * * * * * * * * * * * * * * * * * //

dimensions      [0 3 -1 0 0 0 0];
oriented        oriented;


internalField   nonuniform List<scalar> 
84340
(
-0.000499453
0.000609898
-0.000110445
-0.00115163
0.00108247
-0.000430298
-0.0017056
0.00116929
-0.000615311
-0.00228042
0.00115666
-0.00058184
-0.00286158
0.00112244
-0.000541288
-0.00339065
0.00105328
-0.000524211
-0.00385528
0.000953233
-0.0004886
-0.00425307
0.000828314
-0.000430517
-0.00456827
0.000678411
-0.000363213
-0.00477595
0.000505505
-0.000297829
-0.00486244
0.000315653
-0.000229158
-0.0048382
0.000132666
-0.00015691
-0.00472586
-3.34415e-05
-7.88954e-05
-0.00454799
-0.000185771
7.89978e-06
-0.00432354
-0.000331682
0.000107227
-0.0040638
-0.00048383
0.00022409
-0.00378324
-0.00065131
0.000370752
-0.00350317
-0.000830405
0.00055034
-0.00323923
-0.00101268
0.000748738
-0.00300625
-0.00116182
0.000928842
-0.00282049
-0.00121173
0.00102598
-0.00270357
-0.00108649
0.000969568
-0.00267149
-0.00076002
0.000727939
-0.00271907
-0.000310469
0.000358043
-0.00281793
0.00010748
-8.61428e-06
-0.00292793
0.00036548
-0.00025548
-0.00301224
0.000442393
-0.000358089
-0.00304366
0.000396964
-0.000365538
-0.00299832
0.000299
-0.000344341
-0.00288054
0.000190261
-0.000308049
-0.00271339
9.02054e-05
-0.000257354
-0.00252997
5.98432e-06
-0.000189405
-0.00235746
-6.05571e-05
-0.000111948
-0.00220791
-0.000111327
-3.82225e-05
-0.0020813
-0.000148039
2.14259e-05
-0.00196949
-0.000172927
6.11156e-05
-0.00186675
-0.000190064
8.73295e-05
-0.00176933
-0.000200036
0.000102618
-0.00167577
-0.000205418
0.000111859
-0.00158676
-0.000207067
0.000118053
-0.00150462
-0.000204856
0.000122714
-0.00143191
-0.000198986
0.000126281
-0.00137042
-0.00019041
0.000128919
-0.00132096
-0.00018066
0.000131196
-0.00128299
-0.000171441
0.000133475
-0.00125477
-0.000164145
0.000135926
-0.00123379
-0.000159681
0.000138699
-0.00121739
-0.000158242
0.000141835
-0.0012031
-0.000159519
0.000145236
-0.00118889
-0.000162915
0.000148697
-0.0011731
-0.000167749
0.000151966
-0.00115456
-0.000173351
0.000154811
-0.00113247
-0.000179195
0.000157101
-0.00110636
-0.000184972
0.000158868
-0.00107609
-0.000190633
0.000160358
-0.00104173
-0.000196398
0.000162035
-0.00100357
-0.00020269
0.000164537
-0.000962119
-0.000210042
0.00016859
-0.000918027
-0.000218974
0.000174881
-0.000872065
-0.000229904
0.000183941
-0.000825014
-0.000243095
0.000196044
-0.000777554
-0.000258639
0.000211179
-0.000730146
-0.000276482
0.000229074
-0.000682955
-0.00029646
0.000249268
-0.00063582
-0.00031834
0.000271204
-0.000588283
-0.000341849
0.000294312
-0.000539659
-0.000366685
0.000318061
-0.000489135
-0.000392514
0.000341989
-0.000435871
-0.000418959
0.000365695
-0.000379095
-0.0004456
0.000388824
-0.000318171
-0.000471967
0.000411043
-0.000252644
-0.000497559
0.000432031
-0.000182256
-0.000521867
0.000451478
-0.000106941
-0.00054441
0.000469095
-2.6802e-05
-0.000564783
0.000484644
5.79367e-05
-0.000582717
0.000497978
0.000147036
-0.000598174
0.000509074
0.00024058
-0.000611573
0.000518029
0.000340086
-0.000624538
0.000525032
-0.000641318
0.000532678
0.000448726
0.000871845
-0.000261947
0.00230975
-0.000355433
0.00378053
-0.000301492
0.00515465
-0.000217462
0.00640224
-0.000125151
0.00747172
-1.61959e-05
0.00830012
0.000124836
0.00883615
0.000292278
0.00905483
0.000459732
0.00895876
0.000601573
0.00856027
0.000714145
0.00789469
0.000798249
0.00700737
0.000853882
0.00594457
0.000877025
0.00474915
0.000863738
0.00345338
0.000811938
0.00207489
0.000727177
0.000620989
0.000623499
-0.000907034
0.000515339
-0.00248225
0.000413401
-0.00402385
0.000329864
-0.00536896
0.000258618
-0.0063312
0.000202228
-0.00679413
0.000152462
-0.00678261
9.59528e-05
-0.00644059
2.34636e-05
-0.00593
-6.8197e-05
-0.00536208
-0.000170954
-0.00478826
-0.000274821
-0.00422714
-0.000370858
-0.00368846
-0.00044848
-0.00317957
-0.000502901
-0.00270779
-0.000532341
-0.00228128
-0.000537839
-0.00190661
-0.000522703
-0.00158818
-0.000491358
-0.00132986
-0.000448389
-0.00113201
-0.00039788
-0.000994652
-0.000342778
-0.000915916
-0.000285803
-0.000890474
-0.000230298
-0.000908638
-0.000180823
-0.000957748
-0.0001413
-0.00102392
-0.000114487
-0.00109459
-0.000100769
-0.00115994
-9.87951e-05
-0.00121371
-0.000105918
-0.00125251
-0.000119439
-0.00127487
-0.000137153
-0.00128072
-0.000157065
-0.00127114
-0.000177332
-0.0012476
-0.000196892
-0.00121195
-0.000214839
-0.00116652
-0.000230404
-0.00111391
-0.000243243
-0.00105676
-0.000253546
-0.000997457
-0.000261997
-0.000937916
-0.000269583
-0.000879538
-0.000277352
-0.000823208
-0.000286234
-0.000769335
-0.000296968
-0.000717888
-0.000310086
-0.00066844
-0.000325931
-0.000620222
-0.000344677
-0.000572214
-0.000366349
-0.000523234
-0.000390829
-0.000472054
-0.000417866
-0.000417496
-0.000447072
-0.000358524
-0.000477932
-0.00029431
-0.000509814
-0.000224284
-0.000541993
-0.000148162
-0.000573682
-6.59492e-05
-0.000604079
2.20669e-05
-0.000632426
0.000115355
-0.000658071
0.000213183
-0.000680545
0.000314671
-0.000699662
0.00041883
-0.000715733
0.000524415
-0.000730123
-0.000746586
0.000629683
-0.000110862
-0.000151085
-0.000266732
-0.000199563
-0.000425778
-0.000142446
-0.000607057
-3.61829e-05
-0.000820698
8.84896e-05
-0.00103747
0.000200577
-0.00120165
0.000289017
-0.00126417
0.000354794
-0.00121133
0.000406892
-0.00106674
0.000456986
-0.000862967
0.000510371
-0.000626556
0.000561837
-0.000374891
0.000602218
-0.000120226
0.00062236
0.000127387
0.000616125
0.00036147
0.000577855
0.000579727
0.000508919
0.000783442
0.000419785
0.00097344
0.000325341
0.00114716
0.000239678
0.00130818
0.000168844
0.00145579
0.000111006
0.00159984
5.81786e-05
0.00174888
3.4282e-06
0.00190028
-5.54526e-05
0.00204458
-0.000120836
0.00217086
-0.000194473
0.00227107
-0.000271162
0.00234247
-0.00034622
0.0023847
-0.000413087
0.00239957
-0.000463355
0.00239024
-0.00049357
0.00235988
-0.000501978
0.00231132
-0.000489278
0.00224646
-0.000457849
0.00216546
-0.000410351
0.00206595
-0.000348884
0.00194244
-0.000274372
0.00179165
-0.000191982
0.00161124
-0.000105402
0.001399
-1.80572e-05
0.00115829
5.98882e-05
0.000895765
0.000121228
0.000620873
0.000160404
0.00034524
0.000174864
8.09374e-05
0.000165508
-0.00016066
0.000135679
-0.00036986
8.97603e-05
-0.000538568
3.15552e-05
-0.000666186
-2.94469e-05
-0.000761436
-8.20821e-05
-0.000823306
-0.000135022
-0.000851845
-0.0001863
-0.000851399
-0.000230851
-0.000828862
-0.00026578
-0.00079221
-0.000290197
-0.000748752
-0.000305455
-0.000703863
-0.000314472
-0.000660673
-0.000320542
-0.000620494
-0.000326413
-0.000583408
-0.000334055
-0.000548716
-0.000344778
-0.00051523
-0.000359417
-0.000481476
-0.00037843
-0.000445861
-0.000401964
-0.000406801
-0.00042989
-0.000362835
-0.000461832
-0.000312713
-0.000497194
-0.000255458
-0.000535187
-0.000190412
-0.000574859
-0.000117272
-0.000615133
-3.60996e-05
-0.000654854
5.2672e-05
-0.000692851
0.000148258
-0.000728012
0.000249559
-0.000759372
0.000355221
-0.000786208
0.000463703
-0.000808143
0.000573286
-0.000825316
0.000681949
-0.000838786
-0.000851888
0.000787251
-0.000498024
0.000346938
-0.00107588
0.000378294
-0.00139086
0.000172533
-0.0014689
4.18521e-05
-0.0013787
-1.70438e-06
-0.00116688
-1.12398e-05
-0.000858936
-1.89315e-05
-0.000471602
-3.25397e-05
-2.06789e-05
-4.40314e-05
0.000481742
-4.54354e-05
0.00102183
-2.97142e-05
0.00158453
-8.6604e-07
0.00215326
3.34888e-05
0.00270652
6.90984e-05
0.00321943
0.000103212
0.00366596
0.000131328
0.00402576
0.000149124
0.00429009
0.000155447
0.00446586
0.000149576
0.00457139
0.000134143
0.00462724
0.000113003
0.00464945
8.87879e-05
0.00464486
6.2769e-05
0.00461319
3.51028e-05
0.00455189
5.8404e-06
0.00445573
-2.46741e-05
0.0043169
-5.56351e-05
0.00413134
-8.56046e-05
0.00389982
-0.000114701
0.0036256
-0.000138873
0.00331813
-0.000155877
0.00298991
-0.000165354
0.00265532
-0.000167384
0.00232774
-0.000161696
0.00201817
-0.000148283
0.00173439
-0.000126572
0.00148148
-9.59762e-05
0.00126316
-5.60513e-05
0.00107842
-7.23798e-06
0.000923612
4.94046e-05
0.000794727
0.000110828
0.000682642
0.000171973
0.000577282
0.000226588
0.000469317
0.000268369
0.000352024
0.000292157
0.000222444
0.000295088
8.25398e-05
0.000275584
-6.29287e-05
0.000235229
-0.000208146
0.000176772
-0.000341385
0.000103792
-0.000441794
1.83271e-05
-0.000502751
-7.40648e-05
-0.000523718
-0.000165332
-0.00050984
-0.000244729
-0.00047196
-0.000303661
-0.00042462
-0.000337538
-0.000380542
-0.000349533
-0.000346707
-0.000348307
-0.00032414
-0.000343108
-0.000310355
-0.000340198
-0.000301783
-0.000342627
-0.000295117
-0.000351443
-0.000287624
-0.00036691
-0.00027698
-0.000389074
-0.000261191
-0.000417753
-0.00023855
-0.000452531
-0.000207657
-0.000492725
-0.000167449
-0.000537401
-0.000117239
-0.000585397
-5.67282e-05
-0.000635371
1.39868e-05
-0.000685848
9.44052e-05
-0.000735273
0.000183648
-0.000782094
0.000280481
-0.000824845
0.000383354
-0.000862246
0.000490465
-0.000893318
0.00059983
-0.000917508
0.000709352
-0.000934837
0.000816839
-0.000946273
-0.000955058
0.000920009
0.000861505
-0.000514566
0.00222081
-0.000981007
0.00352319
-0.00112985
0.00472568
-0.00116064
0.00586698
-0.00114301
0.00694139
-0.00108565
0.00791779
-0.000995337
0.00875627
-0.000871016
0.00942598
-0.000713745
0.00990625
-0.0005257
0.0101923
-0.000315763
0.0102873
-9.58322e-05
0.0101957
0.000125095
0.00992337
0.000341384
0.00948046
0.000546121
0.0088855
0.000726285
0.00816913
0.000865497
0.00737299
0.000951584
0.00654143
0.000981138
0.00571701
0.000958561
0.0049369
0.000893114
0.00422903
0.000796662
0.00361083
0.000680969
0.00309006
0.000555876
0.00266663
0.000429263
0.00233483
0.000307131
0.00208534
0.000193852
0.00190732
9.24181e-05
0.00178792
4.69586e-06
0.00171726
-6.82134e-05
0.00168713
-0.000125742
0.0016895
-0.000167726
0.00171624
-0.000194129
0.00176017
-0.000205618
0.00181555
-0.000203665
0.00187807
-0.000189094
0.00194094
-0.000158841
0.00199819
-0.000113301
0.00205582
-6.48755e-05
0.00211474
-9.50816e-06
0.00217434
5.12256e-05
0.002232
0.000114308
0.00228241
0.000176182
0.00231795
0.000232832
0.00233014
0.000279968
0.00231181
0.00031341
0.00225794
0.000329457
0.00216807
0.000325097
0.00204659
0.000298254
0.0019021
0.000248282
0.00174342
0.000177009
0.00157946
8.99004e-05
0.00141422
-9.21286e-08
0.00124416
-7.46688e-05
0.00107695
-0.000136455
0.000910457
-0.000171045
0.000748286
-0.000187362
0.000599753
-0.000199773
0.000466841
-0.000210197
0.000350877
-0.000224235
0.000252264
-0.000244014
0.000170444
-0.000269623
0.00010551
-0.000301976
5.75808e-05
-0.000341145
2.67719e-05
-0.000386944
1.3032e-05
-0.000438791
1.60221e-05
-0.000495715
3.50809e-05
-0.00055646
6.92623e-05
-0.000619578
0.000117383
-0.000683491
0.000178068
-0.000746533
0.000249799
-0.000807004
0.000330922
-0.000863217
0.000419666
-0.00091359
0.000514166
-0.000956746
0.000612482
-0.000991635
0.000712635
-0.00101766
0.000812638
-0.00103484
0.00091048
-0.00104412
-0.00104861
0.00100403
-0.000358008
-0.000156558
-0.000918924
-0.000420091
-0.00151123
-0.00053754
-0.00209767
-0.000574202
-0.00266325
-0.000577423
-0.0032405
-0.000508394
-0.00383734
-0.0003985
-0.00440471
-0.000303652
-0.00487359
-0.000244861
-0.00519425
-0.000205043
-0.00535213
-0.000157879
-0.00535442
-9.3538e-05
-0.00521714
-1.21887e-05
-0.00494845
7.26898e-05
-0.0045558
0.000153476
-0.00403926
0.000209739
-0.00341052
0.000236763
-0.00269192
0.000232979
-0.00191762
0.000206838
-0.00112174
0.000162687
-0.000331746
0.000103117
0.000426675
3.82412e-05
0.00114032
-3.26781e-05
0.00179955
-0.000103355
0.00239729
-0.00016847
0.00292899
-0.000224579
0.00339267
-0.000269827
0.0037889
-0.000303806
0.00412076
-0.000327162
0.00439335
-0.000340804
0.00461312
-0.000345515
0.00478671
-0.000341317
0.00491873
-0.000326147
0.00501505
-0.000301938
0.00508148
-0.000270099
0.00512754
-0.000235152
0.00515774
-0.000189037
0.00517485
-0.000130417
0.00518056
-7.05779e-05
0.00517962
-8.56752e-06
0.00517627
5.45712e-05
0.00517295
0.00011763
0.0051697
0.000179435
0.00516364
0.000238887
0.00514889
0.000294718
0.00511704
0.000345264
0.00505749
0.000389003
0.00495806
0.000424532
0.00480564
0.000450667
0.00458743
0.000466499
0.00429314
0.000471297
0.00391848
0.000464557
0.0034721
0.000446294
0.00298043
0.000416995
0.00246747
0.000376509
0.00197314
0.000323284
0.00153051
0.000255268
0.00115635
0.000174392
0.00085867
8.74794e-05
0.000634163
2.73046e-07
0.000471554
-8.1404e-05
0.000348781
-0.00014685
0.000263297
-0.000216493
0.000208179
-0.000286027
0.000178226
-0.000356991
0.000169475
-0.000430041
0.000178759
-0.000504999
0.000203405
-0.000581106
0.000241072
-0.000657246
0.000289666
-0.000732085
0.000347285
-0.000804153
0.000412185
-0.000871904
0.000482764
-0.000933797
0.000557552
-0.000988377
0.000635199
-0.00103439
0.000714474
-0.00107091
0.000794255
-0.00109744
0.000873494
-0.00111408
0.000951146
-0.00112177
-0.00112343
0.00102596
-9.25732e-05
-6.39848e-05
-0.000296124
-0.000216541
-0.000461184
-0.000372481
-0.000549416
-0.00048597
-0.000644067
-0.000482772
-0.000806493
-0.000345967
-0.0010719
-0.000133091
-0.00142567
5.01144e-05
-0.00180127
0.000130738
-0.00212974
0.00012343
-0.00236432
7.66961e-05
-0.00251789
6.00343e-05
-0.00259847
6.83947e-05
-0.00260058
7.47942e-05
-0.002514
6.68989e-05
-0.00235158
4.7324e-05
-0.00213946
2.46342e-05
-0.00191055
4.07308e-06
-0.00168544
-1.82687e-05
-0.00147076
-5.20017e-05
-0.00126425
-0.000103384
-0.00105617
-0.000169838
-0.000847231
-0.000241622
-0.000643007
-0.00030758
-0.0004507
-0.000360777
-0.00027517
-0.000400109
-0.000117613
-0.000427384
2.35717e-05
-0.000444991
0.000151468
-0.000455059
0.000270208
-0.000459545
0.000384037
-0.000459344
0.000496444
-0.000453725
0.000611574
-0.000441277
0.0007306
-0.000420964
0.000852865
-0.000392364
0.000973299
-0.000355586
0.00109479
-0.000310529
0.00122145
-0.000257075
0.00134373
-0.000192863
0.00146235
-0.00012718
0.00157894
-6.20193e-05
0.00169059
5.97841e-06
0.00178948
8.05423e-05
0.00187066
0.000157711
0.00192751
0.000237865
0.00195412
0.000318653
0.00194525
0.000397878
0.0018968
0.000472981
0.0018066
0.000540861
0.00167537
0.000597734
0.00150766
0.000639003
0.00131285
0.000659367
0.00110559
0.000653552
0.000904687
0.000617902
0.000728826
0.00055237
0.000590488
0.000461622
0.000491016
0.000354741
0.000422488
0.000242919
0.00037417
0.000135797
0.000336394
3.80488e-05
0.00030534
-5.03506e-05
0.000290724
-0.000132233
0.00028538
-0.000211148
0.000289796
-0.000290443
0.000304212
-0.000371406
0.000328262
-0.000454091
0.000361011
-0.000537748
0.000401128
-0.000621222
0.000447069
-0.000703188
0.000497238
-0.000782254
0.0005501
-0.000857014
0.000604278
-0.000926082
0.000658625
-0.000988144
0.000712285
-0.00104204
0.000764736
-0.00108684
0.0008158
-0.00112197
0.000865619
-0.00114726
0.000914559
-0.00116302
0.000963044
-0.00117025
-0.00117151
0.00101112
-0.000301348
0.000237364
-0.000901199
0.00038331
-0.00165169
0.000378011
-0.0024809
0.000343234
-0.00327931
0.000315643
-0.00392475
0.000299475
-0.00434474
0.000286894
-0.00453919
0.000244566
-0.00454698
0.000138535
-0.00440552
-1.80358e-05
-0.00416157
-0.000167253
-0.00383104
-0.000270492
-0.00344803
-0.000314623
-0.00303436
-0.000338873
-0.00261676
-0.000350697
-0.0022197
-0.000349744
-0.00186293
-0.000332138
-0.00156162
-0.000297235
-0.00132931
-0.00025058
-0.00117431
-0.000206997
-0.00108976
-0.000187939
-0.00104937
-0.000210225
-0.00102017
-0.000270823
-0.000982596
-0.00034515
-0.000940115
-0.000403257
-0.000909943
-0.000430281
-0.000904187
-0.00043314
-0.00091769
-0.000431487
-0.000930982
-0.000441766
-0.000924173
-0.000466354
-0.000888138
-0.000495378
-0.000825687
-0.000516176
-0.000746238
-0.000520725
-0.00065975
-0.000507453
-0.000573997
-0.000478116
-0.000494133
-0.000435451
-0.000422794
-0.000381868
-0.000360605
-0.000319264
-0.000304374
-0.000249095
-0.000258775
-0.000172779
-0.00022918
-9.16145e-05
-0.000216671
-6.52982e-06
-0.000217369
8.12399e-05
-0.000230165
0.000170507
-0.000251691
0.000259391
-0.0002788
0.000345762
-0.000307821
0.0004269
-0.000334364
0.000499524
-0.000353309
0.000559806
-0.00035908
0.000603505
-0.000346412
0.000626336
-0.000311658
0.000624613
-0.000254345
0.00059624
-0.000178296
0.000541854
-9.14983e-05
0.000465572
-4.47592e-06
0.0003746
7.28785e-05
0.000277387
0.000134792
0.000181006
0.000181253
8.93366e-05
0.000216575
2.72679e-06
0.000247872
-8.16467e-05
0.000280755
-0.000165116
0.0003192
-0.000249593
0.000364414
-0.000335658
0.000415886
-0.000422878
0.000472077
-0.000510282
0.000531006
-0.000596677
0.000590609
-0.000680826
0.000648944
-0.000761523
0.000704297
-0.000837608
0.000755259
-0.000907977
0.000800783
-0.000971606
0.000840244
-0.00102761
0.000873506
-0.0010753
0.000900974
-0.00111431
0.000923611
-0.00114461
0.000942898
-0.00116655
0.000960689
-0.00118081
0.000978948
-0.00118851
-0.00119168
0.000999116
0.000325763
-8.83994e-05
0.000712849
-3.77517e-06
0.000862079
0.000228781
0.000775035
0.000430277
0.000562815
0.000527863
0.00033163
0.00053066
0.000165898
0.000452625
0.000108792
0.000301672
0.000151123
9.62046e-05
0.000261533
-0.000128446
0.000414356
-0.000320076
0.000590745
-0.000446881
0.000785973
-0.00050985
0.000975538
-0.000528438
0.00114545
-0.000520613
0.00129638
-0.000500674
0.00144229
-0.000478043
0.00160363
-0.000458576
0.00179667
-0.000443619
0.00202089
-0.000431214
0.00225122
-0.000418269
0.0024364
-0.000395408
0.00254348
-0.000377901
0.00255633
-0.000358002
0.00248005
-0.000326979
0.00233156
-0.000281794
0.00212848
-0.000230056
0.00188513
-0.000188144
0.00161065
-0.000167279
0.00131093
-0.000166633
0.000993117
-0.000177569
0.000666736
-0.000189794
0.000341948
-0.000195938
2.74321e-05
-0.000192938
-0.000269709
-0.000180976
-0.000543967
-0.000161192
-0.000791309
-0.000134526
-0.00100909
-0.000101482
-0.00119584
-6.23458e-05
-0.00135121
-1.74049e-05
-0.00147476
3.19343e-05
-0.00156964
8.83481e-05
-0.00163556
0.000147163
-0.00167211
0.000207053
-0.00167994
0.000267224
-0.00165898
0.000324795
-0.001609
0.000376918
-0.00152996
0.000420486
-0.00142248
0.000452326
-0.00128846
0.00046949
-0.00113179
0.000469661
-0.000958828
0.000451652
-0.000778453
0.000415864
-0.000601086
0.000364487
-0.000436678
0.000301164
-0.000292152
0.000230073
-0.000169507
0.000154742
-6.57432e-05
7.72426e-05
2.53315e-05
-1.73783e-06
0.000110711
-8.26528e-05
0.000194686
-0.000165621
0.000280161
-0.000250592
0.000367539
-0.00033697
0.000455674
-0.000423792
0.000542718
-0.000509922
0.000626642
-0.000594206
0.000705524
-0.000675559
0.000777687
-0.00075299
0.000841752
-0.000825587
0.000896655
-0.00089251
0.000941669
-0.000952991
0.000976438
-0.00100638
0.00100104
-0.0010522
0.00101604
-0.00109031
0.00102261
-0.00112088
0.00102252
-0.00114452
0.00101809
-0.00116212
0.0010121
-0.00117482
0.00100742
-0.00118382
-0.00119059
0.00100633
-3.98968e-05
-4.85027e-05
-0.000110135
6.64631e-05
-0.000175778
0.000294425
-0.000188666
0.000443165
-0.000126706
0.000465903
-3.26157e-05
0.000436571
3.57445e-05
0.000384265
3.22044e-05
0.000305212
-8.83824e-05
0.000216792
-0.000340636
0.000123807
-0.000707694
4.6983e-05
-0.00115062
-3.95627e-06
-0.00162812
-3.23445e-05
-0.00210681
-4.97521e-05
-0.0025582
-6.92197e-05
-0.00295819
-0.000100685
-0.00328609
-0.000150149
-0.00352749
-0.000217168
-0.00367623
-0.000294884
-0.00373377
-0.000373671
-0.00372124
-0.000430801
-0.00364943
-0.000467221
-0.0035517
-0.000475629
-0.00343649
-0.00047321
-0.00329951
-0.000463963
-0.00313021
-0.000451095
-0.00292838
-0.000431885
-0.00271177
-0.000404755
-0.00250766
-0.000371382
-0.0023386
-0.000335693
-0.00221484
-0.000301336
-0.00213484
-0.00026979
-0.00208987
-0.00024091
-0.00206981
-0.000212995
-0.00206655
-0.000184241
-0.00207428
-0.00015346
-0.00208874
-0.000120065
-0.00210648
-8.37405e-05
-0.00212441
-4.44178e-05
-0.00213947
-2.34449e-06
-0.00214979
4.22531e-05
-0.00215115
8.97131e-05
-0.00213473
0.00013074
-0.00210156
0.000173886
-0.00204784
0.0002135
-0.00197205
0.000249004
-0.00187324
0.000278107
-0.00175175
0.000298995
-0.00160947
0.000310054
-0.00145
0.000310016
-0.00127848
0.000298142
-0.0011012
0.000274371
-0.000924695
0.00023936
-0.000754562
0.000194355
-0.00059431
0.000140911
-0.00044476
8.05234e-05
-0.00030449
1.44728e-05
-0.000170594
-5.66537e-05
-4.06183e-05
-0.000131713
8.67292e-05
-0.00021
0.000211634
-0.000290526
0.000333215
-0.000372173
0.000449999
-0.000453755
0.000560327
-0.00053412
0.000662619
-0.000612214
0.000755523
-0.000687111
0.000837966
-0.000758003
0.000909162
-0.000824186
0.000968597
-0.000885023
0.00101603
-0.00093994
0.00105148
-0.00098844
0.00107527
-0.00103017
0.00108808
-0.00106502
0.001091
-0.00109323
0.0010856
-0.00111547
0.00107391
-0.00113283
0.00105846
-0.00114667
0.00104205
-0.00115841
0.00102752
-0.00116929
-0.00118029
0.00101723
-0.000236486
0.000187984
-0.000621732
0.000451709
-0.0009033
0.000575992
-0.00103001
0.000569871
-0.00104565
0.000481548
-0.000949463
0.000340383
-0.000728958
0.00016376
-0.000394311
-2.94349e-05
2.84581e-05
-0.000205978
0.000488856
-0.000336591
0.000941999
-0.00040616
0.00135276
-0.000414715
0.00169367
-0.000373261
0.0019445
-0.000300578
0.00209358
-0.000218296
0.00213646
-0.000143565
0.00207593
-8.96246e-05
0.00192064
-6.18765e-05
0.00168209
-5.6332e-05
0.00137697
-6.85527e-05
0.00103974
-9.35679e-05
0.000698165
-0.000125648
0.000383016
-0.00016048
0.000105762
-0.000195957
-0.000128175
-0.000230026
-0.000318771
-0.000260499
-0.000466007
-0.000284648
-0.000571986
-0.000298776
-0.000643524
-0.000299844
-0.000693016
-0.000286202
-0.000735603
-0.000258749
-0.000784093
-0.000221301
-0.000846408
-0.000178594
-0.000924917
-0.000134486
-0.00101771
-9.1452e-05
-0.00112012
-5.10444e-05
-0.00122596
-1.42265e-05
-0.00132928
1.95823e-05
-0.00142574
5.20369e-05
-0.00150999
8.19077e-05
-0.00157715
0.000109416
-0.00162532
0.000137877
-0.0016561
0.000161525
-0.00166347
0.000181256
-0.00164692
0.000196948
-0.00160595
0.000208037
-0.0015416
0.000213751
-0.0014558
0.000213203
-0.00135132
0.000205569
-0.00123151
0.000190202
-0.00110008
0.000166718
-0.000960744
0.000135031
-0.000816736
9.53514e-05
-0.000670456
4.80743e-05
-0.000523778
-5.76626e-06
-0.000377624
-6.5631e-05
-0.000232456
-0.000130696
-8.91432e-05
-0.000199966
5.1461e-05
-0.000272317
0.000188045
-0.000346584
0.000319094
-0.000421575
0.000443042
-0.000496121
0.000558434
-0.000569147
0.000664014
-0.0006397
0.000758775
-0.000706975
0.000841973
-0.000770308
0.000913129
-0.000829159
0.000972032
-0.000883088
0.00101874
-0.000931728
0.00105357
-0.000974776
0.00107715
-0.00101201
0.00109035
-0.00104337
0.00109435
-0.00106902
0.00109062
-0.0010895
0.0010809
-0.00110575
0.00106716
-0.00111909
0.00105153
-0.00113105
0.0010362
-0.00114308
0.00102322
-0.00115631
-0.00117133
0.00101425
-0.000100824
0.000288808
-0.000209675
0.000560559
-0.000192902
0.00055922
-8.82716e-05
0.00046524
3.57528e-05
0.000357523
0.000180223
0.000195913
0.000363717
-1.97342e-05
0.000593604
-0.000259323
0.000869663
-0.000482037
0.00118924
-0.00065617
0.00154937
-0.000766286
0.0019447
-0.000810048
0.00236473
-0.000793292
0.00279125
-0.000727094
0.00319841
-0.000625463
0.00355683
-0.000501979
0.00383463
-0.000367425
0.0040078
-0.00023505
0.00406142
-0.000109955
0.00398876
4.11356e-06
0.00379864
9.65538e-05
0.00349857
0.000174425
0.00310342
0.000234661
0.00263627
0.000271203
0.00212514
0.000281098
0.00159844
0.000266202
0.00108141
0.000232386
0.000595508
0.000187122
0.000158126
0.000137538
-0.000217936
8.98605e-05
-0.000525874
4.91896e-05
-0.000766338
1.9163e-05
-0.000946469
1.5365e-06
-0.00107699
-3.96757e-06
-0.00116923
7.86642e-07
-0.00123337
1.31033e-05
-0.00127786
3.02627e-05
-0.00130831
5.00335e-05
-0.00132704
7.07686e-05
-0.00133653
9.13893e-05
-0.001339
0.000111892
-0.00132933
0.000128201
-0.00130741
0.00013961
-0.00127479
0.00014863
-0.00123169
0.000153848
-0.00117776
0.000154109
-0.00111274
0.000148735
-0.00103675
0.00013721
-0.000950342
0.000119163
-0.00085443
9.429e-05
-0.000750323
6.26112e-05
-0.000639233
2.39404e-05
-0.000522693
-2.11881e-05
-0.000402208
-7.24111e-05
-0.000278794
-0.00012918
-0.00015371
-0.000190715
-2.83016e-05
-0.000256104
9.60298e-05
-0.000324298
0.000217857
-0.000394145
0.000335717
-0.000464444
0.000448153
-0.00053401
0.000553764
-0.000601733
0.000651244
-0.000666627
0.000739422
-0.000727879
0.000817305
-0.000784859
0.000884134
-0.000837137
0.000939445
-0.00088447
0.000983132
-0.000926775
0.00101549
-0.00096409
0.00103725
-0.000996531
0.0010495
-0.00102427
0.00105367
-0.00104754
0.00105141
-0.00106676
0.00104446
-0.00108256
0.00103462
-0.00109591
0.00102358
-0.00110805
0.00101286
-0.00112033
0.00100377
-0.00113398
0.000997304
-0.00114985
-0.00116818
0.000994153
-1.58811e-05
0.000304689
-5.09206e-05
0.000595599
-0.000204941
0.00071324
-0.0004766
0.0007369
-0.00080044
0.000681362
-0.00117536
0.000570831
-0.00162339
0.0004283
-0.00214952
0.000266804
-0.00272356
9.20041e-05
-0.00328748
-9.22502e-05
-0.00377459
-0.000279179
-0.00412554
-0.000459093
-0.00429688
-0.000621957
-0.00426544
-0.000758529
-0.00402978
-0.00086112
-0.00360723
-0.00092453
-0.00302765
-0.000947008
-0.00233411
-0.000928589
-0.00157359
-0.000870474
-0.000792638
-0.000776841
-5.20448e-05
-0.00064404
0.000608999
-0.000486619
0.00116373
-0.000320071
0.00159375
-0.000158818
0.00189945
-2.45956e-05
0.00208915
7.65007e-05
0.00217582
0.000145716
0.00217451
0.000188428
0.00210064
0.000211406
0.00196922
0.000221281
0.00179457
0.00022384
0.00159017
0.000223564
0.00136853
0.000223175
0.00114062
0.000223946
0.000915197
0.000226206
0.000698979
0.000229321
0.000496513
0.000232728
0.000309757
0.00023679
0.000143322
0.000237203
-1.21976e-06
0.00023593
-0.00012091
0.000231582
-0.000217245
0.000224537
-0.000293398
0.000215763
-0.000349182
0.000204413
-0.000385259
0.000189926
-0.000402976
0.000171826
-0.000403882
0.00014964
-0.000389848
0.000123176
-0.000362262
9.15775e-05
-0.000322753
5.47807e-05
-0.000272953
1.28111e-05
-0.000214356
-3.46565e-05
-0.000148017
-8.75272e-05
-7.49025e-05
-0.000145526
4.07986e-06
-0.000208163
8.80719e-05
-0.000274707
0.000176126
-0.000344158
0.000267134
-0.000415306
0.000359758
-0.000486769
0.000452407
-0.000557093
0.000543258
-0.000624862
0.000630342
-0.000688816
0.000711651
-0.000747937
0.000785294
-0.000801521
0.000849641
-0.000849206
0.00090348
-0.000890976
0.000946137
-0.000927127
0.000977562
-0.0009582
0.000998341
-0.000984869
0.00100963
-0.00100782
0.00101305
-0.00102768
0.00101046
-0.00104495
0.00100382
-0.00106012
0.000995019
-0.00107375
0.000985701
-0.00108659
0.000977209
-0.00109956
0.000970503
-0.00111362
0.000966155
-0.00112963
0.000964377
-0.00114807
-0.00116889
0.000965086
0.000670156
-0.000365467
0.00162436
-0.000358603
0.00230395
3.36454e-05
0.00275324
0.000287611
0.00318954
0.000245062
0.00374413
1.62442e-05
0.00444941
-0.000276982
0.00526708
-0.000550865
0.00612664
-0.000767561
0.00695445
-0.000920057
0.00768978
-0.00101451
0.00829066
-0.00105998
0.00873314
-0.00106443
0.00900723
-0.00103263
0.00911231
-0.000966194
0.00905374
-0.00086596
0.00884135
-0.000734618
0.00849067
-0.000577907
0.00802463
-0.000404433
0.0074706
-0.000222818
0.00686727
-4.07121e-05
0.00624744
0.000133219
0.00563805
0.000289317
0.00506239
0.00041684
0.00452937
0.000508429
0.0040414
0.000564463
0.00359657
0.000590547
0.00319042
0.000594583
0.00281767
0.000584154
0.00247374
0.000565212
0.00215567
0.000541911
0.00186238
0.000516849
0.00159371
0.000491849
0.00135052
0.000467141
0.00113359
0.000443129
0.000942898
0.000420016
0.000777181
0.000398445
0.000636186
0.000377785
0.000515332
0.000358056
0.00041223
0.000339032
0.000323581
0.000320231
0.000247069
0.000301048
0.000182028
0.000280803
0.000127674
0.000258767
8.3365e-05
0.000234234
4.86501e-05
0.000206541
2.32085e-05
0.000175081
6.97888e-06
0.000139405
1.49644e-06
9.70595e-05
3.12556e-06
5.31515e-05
1.39639e-05
1.97269e-06
3.42086e-05
-5.49014e-05
6.40816e-05
-0.000117401
0.000103802
-0.000185247
0.000153448
-0.000257809
0.000212762
-0.000334022
0.000281006
-0.000412403
0.00035679
-0.00049109
0.00043805
-0.000568029
0.000522148
-0.000641191
0.000606079
-0.000708794
0.000686748
-0.000769484
0.000761259
-0.000822449
0.000827182
-0.000867444
0.000882739
-0.000904762
0.000926912
-0.00093515
0.000959478
-0.000959694
0.000980953
-0.000979675
0.000992483
-0.000996398
0.000995676
-0.00101102
0.000992421
-0.00102443
0.000984698
-0.00103723
0.000974422
-0.00104985
0.00096331
-0.00106264
0.000952776
-0.00107606
0.000943858
-0.00109064
0.000937172
-0.00110694
0.000932924
-0.00112538
0.000930969
-0.00114612
-0.00116882
0.000930903
-0.000490571
0.000125104
-0.00127571
0.000426537
-0.00198542
0.000743355
-0.00256073
0.000862916
-0.00305411
0.000738446
-0.00347783
0.000439969
-0.00382664
7.18193e-05
-0.004087
-0.000290498
-0.00423877
-0.000615791
-0.00426154
-0.000897286
-0.00413532
-0.00114073
-0.00386136
-0.00133394
-0.0034621
-0.00146369
-0.00299101
-0.00150372
-0.00252118
-0.00143602
-0.00213405
-0.00125309
-0.00189905
-0.000969625
-0.00185035
-0.000626602
-0.00197209
-0.000282696
-0.00220408
9.17108e-06
-0.00246647
0.00022168
-0.0026864
0.000353149
-0.002814
0.000416918
-0.00282456
0.000427398
-0.00272005
0.000403919
-0.00251753
0.000361945
-0.00224217
0.000315187
-0.00192168
0.000274093
-0.00158236
0.000244834
-0.00124607
0.00022892
-0.000933192
0.000229034
-0.000655816
0.000239472
-0.000421247
0.00025728
-0.000231853
0.000277748
-8.70529e-05
0.000298329
1.66644e-05
0.000316299
8.60769e-05
0.000329033
0.000127144
0.000336718
0.000146508
0.000338692
0.000150644
0.000334896