/*--------------------------------*- C++ -*----------------------------------*\
| =========                 |                                                 |
| \\      /  F ield         | OpenFOAM: The Open Source CFD Toolbox           |
|  \\    /   O peration     | Version:  2012                                  |
|   \\  /    A nd           | Website:  www.openfoam.com                      |
|    \\/     M anipulation  |                                                 |
\*---------------------------------------------------------------------------*/
FoamFile
{
    version     2.0;
    format      ascii;
    class       volScalarField;
    location    "0.33";
    object      p;
}
// * * * * * * * * * * * * * * * * * * * * * * * * * * * * * * * * * * * * * //

dimensions      [0 2 -2 0 0 0 0];


internalField   nonuniform List<scalar> 
42400
(
-8619.28
-8175.15
-7584.48
-6868.22
-6026.01
-5162.71
-4366.07
-3683.3
-3103.96
-2601.14
-2171.02
-1824.84
-1553.65
-1321.48
-1086.44
-819.646
-514.048
-182.908
152.705
478.224
783.427
1053.22
1263.32
1390.75
1431.28
1402.84
1330.85
1235.07
1128.22
1018.52
911.692
811.359
719.341
636.251
561.413
493.567
431.314
373.585
320.003
270.901
226.767
188.031
154.7
126.175
101.976
81.5218
64.1814
49.3883
36.6825
25.7277
16.2853
8.19034
1.32697
-4.38806
-9.05501
-12.7833
-15.6868
-17.893
-19.5378
-20.763
-21.7083
-22.5023
-23.2521
-24.0518
-24.9559
-25.9978
-27.1783
-28.4739
-29.848
-31.2539
-32.6411
-33.9571
-35.1512
-36.1758
-36.99
-37.563
-37.8763
-37.9248
-37.7423
-37.5306
-5953.12
-5603.37
-5118.01
-4640.34
-4240.77
-4070.63
-4147.04
-4364.66
-4525.47
-4485.4
-4297.12
-4118.31
-4002.36
-3891.58
-3730.7
-3503.48
-3223.33
-2918.9
-2612.35
-2311.65
-2012.82
-1707.7
-1391.57
-1070.17
-761.622
-487.885
-263.061
-89.7963
36.7669
124.425
181.091
213.708
227.981
228.511
219.482
204.264
185.716
166.297
148.044
132.332
119.695
109.743
101.653
94.4619
87.308
79.6629
71.3485
62.445
53.167
43.7917
34.5962
25.808
17.6688
10.2942
3.76752
-1.88114
-6.68619
-10.7281
-14.12
-16.99
-19.4681
-21.6738
-23.7091
-25.6783
-27.6136
-29.5421
-31.4735
-33.3991
-35.2948
-37.1263
-38.8527
-40.4282
-41.805
-42.9371
-43.7839
-44.3145
-44.5113
-44.3757
-43.9559
-43.4424
11299.1
11084
10897.6
10677.3
10297.9
9681.94
8727.86
7318.41
5530.88
3815.81
2569.59
1690.06
938.037
315.899
-99.8392
-296.92
-305.854
-189.153
-16.147
164.266
325.464
453.189
541.882
592.13
606.995
590.164
545.844
480.133
401.378
318.437
238.806
167.479
106.945
57.7996
19.5201
-8.97
-28.9418
-41.6057
-47.9793
-48.9852
-45.5709
-39.0614
-30.9904
-22.6712
-15.0679
-8.76886
-4.01938
-0.859125
0.781008
1.05746
0.206671
-1.48535
-3.73053
-6.28302
-8.95553
-11.6223
-14.211
-16.6903
-19.0582
-21.3319
-23.54
-25.7139
-27.8817
-30.0388
-32.2166
-34.4106
-36.6063
-38.7806
-40.9016
-42.9293
-44.8177
-46.5166
-47.9744
-49.1421
-49.9763
-50.4433
-50.5222
-50.2142
-49.5271
-48.6185
1078.12
1155.5
1284.81
1442.19
1604.6
1661.99
1553.96
1277.12
900.587
528.321
232.816
33.1837
-90.1618
-158.624
-180.423
-161.859
-107.744
-26.6893
49.9758
77.4501
34.8322
-61.1392
-179.518
-296.057
-392.773
-455.587
-478.806
-468.855
-438.491
-400.339
-361.71
-325.318
-291.125
-258.876
-229.07
-202.607
-180.242
-161.237
-144.532
-128.955
-113.746
-98.7413
-84.2792
-70.8823
-59.0006
-48.883
-40.5834
-34.0273
-29.0727
-25.5434
-23.2424
-21.9617
-21.4999
-21.6698
-22.3099
-23.2899
-24.511
-25.903
-27.4213
-29.0393
-30.7432
-32.5263
-34.3842
-36.3103
-38.2952
-40.3229
-42.3703
-44.4069
-46.3951
-48.2908
-50.0455
-51.6078
-52.9268
-53.9543
-54.6479
-54.9739
-54.9073
-54.4473
-53.5517
-52.3525
-15926
-15122.9
-14183.2
-13243
-12181.5
-10995.4
-9704.23
-8345.28
-6936.87
-5519.44
-4178.76
-2999.19
-2014.39
-1212.27
-574.822
-97.803
218.036
380.562
412.163
344.592
207.618
25.4859
-173.424
-355.444
-496.315
-589.731
-640.002
-655.039
-644.99
-619.452
-585.502
-546.349
-503.179
-456.935
-409.281
-362.3
-317.506
-276.309
-238.986
-205.691
-176.337
-150.749
-128.752
-110.126
-94.5787
-81.7606
-71.3066
-62.8717
-56.1555
-50.9043
-46.8867
-43.8616
-41.6881
-40.2196
-39.3267
-38.9017
-38.8572
-39.1227
-39.6433
-40.3772
-41.2925
-42.3636
-43.5685
-44.8861
-46.2941
-47.7667
-49.2743
-50.7822
-52.2511
-53.6381
-54.8982
-55.986
-56.8586
-57.4776
-57.8106
-57.8337
-57.5271
-56.8906
-55.8723
-54.5162
7285.04
6863.91
6117.48
5106.16
4016.39
3217.67
2677.92
2252.49
1896.2
1619.93
1428.96
1316.27
1265.97
1255.66
1262.65
1268.31
1258.69
1224.26
1160.26
1064.98
937.431
780.933
611.126
450.153
309.648
189.39
86.2845
1.18525
-64.6019
-111.745
-142.053
-157.997
-162.972
-160.879
-154.97
-147.238
-138.685
-129.979
-121.695
-113.85
-106.494
-99.7067
-93.5407
-88.0074
-83.0788
-78.7049
-74.8309
-71.4073
-68.3874
-65.73
-63.4149
-61.4577
-59.8027
-58.4309
-57.3259
-56.4708
-55.8485
-55.4425
-55.2365
-55.2146
-55.3606
-55.6565
-56.0824
-56.6155
-57.2298
-57.8964
-58.5834
-59.2565
-59.88
-60.4183
-60.837
-61.1054
-61.1986
-61.0992
-60.7974
-60.2904
-59.5793
-58.6658
-57.5395
-56.1237
12336.3
12141.5
11872.9
11437.1
10771.6
9933.49
8975.31
7949.09
6914.22
5923.14
5002.47
4157.66
3383.19
2673.9
2029.61
1454.63
954.571
534.053
194.562
-66.2254
-253.58
-374.963
-439.048
-454.973
-434.614
-391.749
-338.08
-282.973
-233.128
-192.189
-160.427
-136.022
-117.102
-102.788
-92.5163
-86.0498
-82.9299
-82.4297
-83.7305
-86.0649
-88.7991
-91.4533
-93.7037
-95.3553
-96.3166
-96.577
-96.1866
-95.2352
-93.8326
-92.0943
-90.1336
-88.0556
-85.9473
-83.8826
-81.9206
-80.1063
-78.4704
-77.0309
-75.7935
-74.7533
-73.8958
-73.1983
-72.6316
-72.1615
-71.7517
-71.3654
-70.9679
-70.5277
-70.018
-69.4178
-68.7124
-67.8948
-66.9664
-65.9367
-64.8227
-63.6438
-62.4193
-61.153
-59.8642
-58.4069
-11655.1
-11157.9
-10513.2
-9748.66
-8826.71
-7775.7
-6597.58
-5314.36
-3969.49
-2626.99
-1367.12
-270.202
610.073
1260.27
1694.09
1934.27
2009.66
1955.09
1806.79
1597.3
1353.27
1094.8
837.56
594.057
373.804
185.041
33.3893
-79.1086
-155.287
-201.022
-223.558
-228.866
-221.339
-205.21
-185.802
-168.173
-155.853
-149.977
-149.473
-152.082
-155.524
-158.21
-159.374
-158.869
-156.89
-153.757
-149.803
-145.318
-140.534
-135.634
-130.753
-125.992
-121.428
-117.112
-113.082
-109.359
-105.951
-102.854
-100.053
-97.5255
-95.237
-93.148
-91.2146
-89.3912
-87.6341
-85.9048
-84.1729
-82.4175
-80.6273
-78.8004
-76.9432
-75.0688
-73.1965
-71.3492
-69.5511
-67.8225
-66.1756
-64.607
-63.1154
-61.5796
5420.37
5298.69
5081.47
4714.04
4184.14
3553.57
2868.78
2169.62
1489.23
849.491
266.707
-242.224
-659.552
-970.204
-1166.4
-1253
-1250.82
-1193.87
-1116.05
-1037.6
-964.778
-897.963
-837.271
-783.622
-738.716
-704.891
-683.917
-676.321
-679.374
-687.639
-693.656
-691.625
-677.398
-647.948
-602.777
-544.877
-480.71
-418.168
-363.526
-319.61
-286.102
-261.031
-242.125
-227.461
-215.551
-205.499
-196.608
-188.464
-180.81
-173.513
-166.511
-159.788
-153.348
-147.207
-141.381
-135.885
-130.723
-125.895
-121.389
-117.185
-113.256
-109.57
-106.093
-102.791
-99.6339
-96.5964
-93.6604
-90.8155
-88.0581
-85.3909
-82.8209
-80.358
-78.0133
-75.7967
-73.7142
-71.7653
-69.9401
-68.2202
-66.5749
-64.9601
-7354.98
-6757.92
-5949.41
-5065.74
-4105.71
-3196.46
-2365.09
-1626.47
-993.12
-473.185
-66.8497
230.314
423.46
516.736
519.814
450.177
330.176
178.219
7.33498
-169.707
-337.872
-483.004
-595.749
-673.048
-717.436
-735.808
-737.162
-729.158
-716.521
-700.049
-678.401
-649.718
-614.121
-574.685
-535.084
-498.584
-466.646
-438.94
-414.31
-391.707
-370.153
-349.292
-329.14
-309.881
-291.807
-274.901
-259.291
-244.932
-231.716
-219.517
-208.209
-197.683
-187.849
-178.639
-169.997
-161.88
-154.254
-147.089
-140.364
-134.062
-128.166
-122.663
-117.536
-112.767
-108.333
-104.212
-100.38
-96.8119
-93.4871
-90.3851
-87.488
-84.7796
-82.2451
-79.8695
-77.6376
-75.5325
-73.5361
-71.6289
-69.789
-68.0221
336.263
19.2799
-399.569
-877.523
-1413.39
-1893.79
-2264.55
-2511.46
-2653.11
-2720.95
-2738.86
-2716.34
-2658.63
-2569.45
-2453.51
-2301.67
-2087.66
-1785.64
-1392.4
-941.936
-501.215
-141.398
99.2846
224.414
262.338
243.211
190.599
122.14
49.6817
-19.0039
-79.2878
-129.134
-168.597
-199.214
-223.744
-244.444
-262.553
-278.343
-291.567
-301.882
-308.874
-312.394
-312.458
-309.333
-303.448
-295.298
-285.397
-274.226
-262.22
-249.762
-237.184
-224.773
-212.748
-201.266
-190.421
-180.257
-170.774
-161.95
-153.752
-146.142
-139.084
-132.546
-126.495
-120.901
-115.733
-110.961
-106.552
-102.476
-98.702
-95.2002
-91.9436
-88.9069
-86.0673
-83.4043
-80.8997
-78.5373
-76.3019
-74.1792
-72.1611
-70.2437
9672.51
9533.97
9332.07
8989.78
8456.52
7775.99
7021.48
6282.72
5608.97
4977.52
4337.17
3668.78
2993.48
2349.74
1774.89
1292.83
907.567
608.917
379.671
198.903
45.1385
-98.1747
-237.433
-368.943
-484.112
-575.002
-637.659
-672.614
-682.387
-672.199
-649.146
-620.65
-593.028
-569.97
-552.303
-538.839
-527.517
-516.335
-503.544
-487.411
-467.72
-445.165
-420.634
-395.29
-370.126
-345.868
-322.95
-301.567
-281.743
-263.439
-246.608
-231.21
-217.196
-204.495
-193.002
-182.587
-173.112
-164.443
-156.463
-149.079
-142.219
-135.83
-129.873
-124.314
-119.126
-114.284
-109.764
-105.545
-101.606
-97.9266
-94.4872
-91.2694
-88.2557
-85.4298
-82.7759
-80.2799
-77.9284
-75.711
-73.6226
-71.6396
-8402.43
-8040.08
-7585.51
-7084.2
-6500.12
-5857.48
-5114.25
-4253.73
-3349.57
-2532.59
-1880.66
-1381.29
-991.408
-683.301
-443.316
-261.777
-129.977
-40.2646
13.4131
35.6627
30.0725
-0.122091
-51.4849
-119.644
-198.917
-282.501
-363.317
-434.924
-492.58
-534.215
-558.554
-564.894
-555.51
-534.387
-505.838
-473.511
-439.887
-406.446
-374.156
-343.892
-315.916
-290.317
-268.165
-250.444
-237.717
-229.306
-223.502
-219.207
-215.296
-210.858
-205.485
-199.215
-192.332
-185.169
-177.988
-170.938
-164.082
-157.439
-151.011
-144.811
-138.854
-133.163
-127.754
-122.638
-117.817
-113.286
-109.036
-105.051
-101.317
-97.8154
-94.5302
-91.4449
-88.5446
-85.8154
-83.2451
-80.8221
-78.5356
-76.3759
-74.3344
-72.3818
-7852.41
-7711.86
-7539.04
-7327.85
-7051.92
-6742.67
-6412.24
-6069.14
-5715.89
-5345.19
-4942.56
-4498.88
-4022.23
-3535.48
-3065.29
-2635.14
-2261.98
-1954.58
-1715.99
-1544.74
-1432.95
-1367.93
-1333.39
-1312.87
-1293.11
-1264.43
-1219.54
-1154.41
-1070.4
-973.133
-870.359
-769.805
-675.91
-590.734
-515.262
-450.336
-395.824
-351.122
-315.39
-287.614
-266.669
-251.367
-240.537
-232.837
-226.525
-220.991
-216.726
-212.55
-207.561
-201.525
-194.576
-187.055
-179.375
-171.89
-164.824
-158.26
-152.18
-146.514
-141.18
-136.116
-131.283
-126.66
-122.239
-118.017
-113.989
-110.154
-106.504
-103.034
-99.7362
-96.6039
-93.6288
-90.8031
-88.1193
-85.57
-83.1481
-80.8468
-78.6589
-76.5778
-74.5959
-72.689
11253.5
11055.7
10779.4
10375.4
9811.94
9172.87
8510.69
7852.93
7204.53
6562.86
5930.19
5313.81
4720.74
4154.69
3617.67
3113.83
2648.55
2224.69
1844.17
1508.65
1217.04
967.437
753.696
562.443
377.921
193.025
15.4615
-137.849
-252.73
-325.715
-363.262
-375.602
-371.731
-358.435
-339.751
-317.931
-294.959
-272.348
-251.108
-231.886
-215.124
-200.932
-189.263
-180.136
-173.46
-168.597
-164.492
-160.82
-157.419
-154.156
-150.983
-147.913
-144.969
-142.136
-139.367
-136.593
-133.753
-130.805
-127.734
-124.552
-121.287
-117.982
-114.676
-111.407
-108.205
-105.091
-102.082
-99.1849
-96.4036
-93.7374
-91.1827
-88.7342
-86.3864
-84.1338
-81.9717
-79.896
-77.9033
-75.99
-74.1518
-72.371
877.395
865.565
825.024
825.677
944.38
1167.67
1407.12
1597.02
1722.51
1796.82
1834.69
1846.05
1837.57
1813.98
1778.33
1733.46
1681.43
1623.7
1561.25
1495.72
1428.31
1358.67
1283.77
1198.55
1098.67
982.947
854.266
718.968
584.555
457.521
342.02
240.163
152.674
79.4628
19.8284
-27.4068
-63.662
-90.5093
-109.598
-122.515
-130.671
-135.395
-137.801
-138.762
-138.897
-138.591
-138.018
-137.232
-136.218
-134.946
-133.413
-131.66
-129.755
-127.757
-125.696
-123.575
-121.378
-119.089
-116.708
-114.244
-111.723
-109.171
-106.615
-104.08
-101.586
-99.1458
-96.7711
-94.4672
-92.2361
-90.0759
-87.9827
-85.9516
-83.9781
-82.0587
-80.1917
-78.3763
-76.6125
-74.9002
-73.238
-71.6128
-5470.37
-5190.88
-4880.02
-4666.83
-4532.61
-4583.05
-4798.71
-5110.75
-5467.22
-5832.46
-6151.91
-6364.67
-6437.12
-6365.84
-6163.49
-5846.9
-5432.85
-4943.46
-4409.7
-3864.67
-3337.76
-2851.2
-2415.89
-2032.32
-1696.58
-1405.21
-1155.02
-942.876
-765.88
-621.249
-505.571
-414.81
-344.613
-290.837
-249.801
-218.455
-194.414
-175.873
-161.483
-150.254
-141.423
-134.436
-128.898
-124.513
-121.058
-118.357
-116.263
-114.646
-113.397
-112.416
-111.612
-110.901
-110.206
-109.46
-108.614
-107.634
-106.512
-105.253
-103.876
-102.403
-100.853
-99.2456
-97.5957
-95.9168
-94.2219
-92.5229
-90.8307
-89.1535
-87.4965
-85.8615
-84.248
-82.6535
-81.0756
-79.5131
-77.966
-76.4359
-74.9251
-73.4361
-71.9702
-70.5196
-5105.8
-4947.83
-4704.26
-4360.77
-3922.24
-3473.6
-3026.75
-2558.52
-2071.38
-1609.35
-1208.66
-871.144
-577.105
-311.738
-73.4918
127.249
276.359
370.908
427.732
466.869
486.038
466.798
403.058
309.089
205.442
108.085
26.5994
-35.1188
-76.7276
-100.647
-110.923
-111.728
-106.749
-99.0876
-90.9236
-83.7108
-77.9
-73.7216
-71.1028
-69.7678
-69.3927
-69.6886
-70.4373
-71.4956
-72.7818
-74.2539
-75.8869
-77.6549
-79.5191
-81.4233
-83.2961
-85.059
-86.6383
-87.9759
-89.0374
-89.8141
-90.3176
-90.5714
-90.602
-90.433
-90.084
-89.572
-88.9136
-88.127
-87.2318
-86.2487
-85.1977
-84.0966
-82.9594
-81.7955
-80.6102
-79.4054
-78.1816
-76.9394
-75.6805
-74.4082
-73.1269
-71.8412
-70.5548
-69.2653
12553.2
12389.2
12198.6
11933
11571.3
11124.9
10580.1
9911.32
9122.85
8258.59
7374.74
6503.18
5651.47
4829.4
4047.26
3309.73
2634.24
2082.06
1726.42
1547.88
1431.12
1299.14
1159.83
1032.57
917.479
812.921
718.862
634.089
556.042
482.18
411.234
343.363
279.665
221.676
170.537
126.869
90.347
60.4553
36.4354
17.3689
2.3214
-9.61518
-19.2385
-27.2151
-34.0693
-40.1841
-45.8111
-51.0861
-56.0522
-60.6851
-64.9218
-68.69
-71.9341
-74.6333
-76.8083
-78.5136
-79.822
-80.8051
-81.52
-82.0055
-82.2854
-82.3757
-82.2901
-82.0437
-81.6545
-81.1423
-80.5276
-79.8298
-79.0651
-78.2456
-77.3787
-76.4683
-75.516
-74.5235
-73.4933
-72.4294
-71.337
-70.2217
-69.0886
-67.9389
-6592.29
-5650.2
-4379.89
-3072.91
-1755.18
-641.698
222.435
849.412
1304.82
1663.97
1964.14
2206.67
2377.97
2466.76
2469.32
2389.22
2237.94
2037.92
1816.09
1589.45
1362.59
1143.56
948.453
786.579
656.827
552.497
465.537
389.106
319.14
254.338
195.204
143.388
100.884
68.9411
47.3505
34.4437
27.6693
24.3752
22.4841
20.2146
16.8606
12.1123
5.99886
-1.24333
-9.28929
-17.7865
-26.3888
-34.7722
-42.6459
-49.7654
-55.9515
-61.1095
-65.2414
-68.4415
-70.8692
-72.7074
-74.1214
-75.2335
-76.1182
-76.8122
-77.329
-77.6732
-77.8487
-77.8634
-77.7301
-77.4654
-77.0882
-76.617
-76.0678
-75.453
-74.7804
-74.0542
-73.2764
-72.4485
-71.5731
-70.6539
-69.6957
-68.7042
-67.6846
-66.6404
8755.86
8553.42
8271.35
7870.61
7316.77
6641.51
5862.88
5007.31
4127.11
3297.18
2580.69
1999.97
1539.97
1174.94
885.487
659.288
485.746
355.136
259.618
194.078
155.463
139.574
136.6
131.026
110.243
72.823
29.1338
-10.9639
-43.6255
-69.0594
-89.8671
-108.874
-128.014
-148.108
-168.951
-189.469
-207.858
-221.761
-229.728
-231.372
-226.635
-216.404
-202.122
-185.334
-167.446
-149.567
-132.49
-116.714
-102.493
-89.8901
-78.8291
-69.1459
-60.6471
-53.1444
-46.4772
-40.5186
-35.1725
-30.3674
-26.0483
-22.172
-18.7026
-15.6095
-12.8658
-10.4479
-8.33429
-6.50578
-4.94465
-3.63456
-2.56033
-1.70778
-1.06375
-0.615891
-0.352671
-0.263271
-0.337619
-0.566272
-0.940087
-1.44917
-2.08595
-2.85285
1424.74
1587.87
1878.27
2288.61
2741.98
3147.05
3443.84
3611.79
3659.72
3607.48
3479.21
3304.71
3114.72
2932.2
2769.73
2626.9
2491.57
2344.05
2164.49
1938.33
1662.12
1344.5
1004.57
671.113
369.593
112.532
-100.35
-273.699
-411.514
-517.335
-592.324
-636.267
-650.004
-636.614
-601.523
-551.693
-494.365
-436.193
-381.839
-333.491
-292.164
-257.467
-228.173
-202.906
-180.585
-160.562
-142.506
-126.249
-111.677
-98.6802
-87.1343
-76.8988
-67.8264
-59.7742
-52.6135
-46.2327
-40.538
-35.4504
-30.9036
-26.842
-23.2186
-19.9936
-17.1337
-14.6106
-12.3999
-10.4805
-8.83316
-7.44068
-6.28699
-5.35717
-4.63731
-4.11449
-3.77668
-3.61289
-3.61309
-3.76813
-4.06943
-4.50742
-5.07486
-5.77676
-4615.63
-4952.47
-5354.54
-5744.42
-6173.8
-6577.2
-6954.32
-7277.75
-7496.14
-7568.75
-7482.9
-7255.2
-6915.7
-6491.61
-6002.09
-5460.9
-4885.77
-4304.27
-3747.83
-3236.64
-2778.81
-2374.53
-2015.99
-1697.74
-1415.89
-1167.74
-951.803
-767.455
-614.434
-492.52
-400.513
-335.139
-291.283
-263.139
-245.25
-233.115
-223.444
-214.186
-204.389
-193.814
-182.497
-170.477
-157.876
-144.862
-131.827
-119.232
-107.434
-96.5997
-86.7467
-77.8232
-69.7612
-62.4929
-55.9502
-50.0635
-44.7633
-39.9833
-35.6642
-31.7546
-28.212
-25.0021
-22.098
-19.4791
-17.1292
-15.0357
-13.1877
-11.5751
-10.1879
-9.0152
-8.04599
-7.26866
-6.67193
-6.24502
-5.978
-5.86193
-5.88902
-6.05248
-6.34611
-6.76251
-7.29661
-7.96054
-13652.2
-12681.5
-11460
-10264.1
-9055.7
-7966.66
-6991.73
-6116.47
-5344.01
-4692.08
-4160.66
-3711.67
-3289.82
-2873.52
-2485.55
-2161.03
-1920.74
-1761.12
-1655.13
-1566.29
-1463.53
-1333.09
-1179.49
-1014.95
-852.002
-699.875
-564.049
-447.517
-350.714
-272.297
-209.814
-160.366
-121
-89.4301
-64.3684
-44.9572
-30.5492
-20.629
-14.6699
-12.0478
-11.9778
-13.5955
-16.0863
-18.8446
-21.5319
-24
-26.1475
-27.8635
-29.0584
-29.7051
-29.8395
-29.5324
-28.8626
-27.9018
-26.7115
-25.3443
-23.8465
-22.2601
-20.6245
-18.9772
-17.3541
-15.7888
-14.3122
-12.9503
-11.7233
-10.6444
-9.71983
-8.9496
-8.33046
-7.85254
-7.50868
-7.29057
-7.19094
-7.20388
-7.32492
-7.55093
-7.87961
-8.30742
-8.83111
-9.46772
11398.6
11368.9
11261.8
10957.2
10411
9660.4
8800.59
7941.14
7166.12
6510.61
5969.76
5521.86
5135.13
4765.79
4359.48
3869.65
3302.8
2738.27
2277.92
1965.91
1765.77
1612.07
1466.32
1321.99
1183.4
1053.25
931.775
818.571
712.487
612.737
519.565
434.164
357.859
291.672
235.99
190.282
153.758
125.198
103.051
85.6521
71.4689
59.3216
48.4827
38.6307
29.7063
21.7518
14.7986
8.82149
3.74485
-0.527672
-4.08673
-7.0056
-9.34133
-11.1409
-12.4474
-13.3037
-13.7554
-13.8524
-13.65
-13.2094
-12.5963
-11.8781
-11.1198
-10.3783
-9.69855
-9.11082
-8.63041
-8.26046
-7.99622
-7.82895
-7.74962
-7.75078
-7.82741
-7.97685
-8.19844
-8.49301
-8.86229
-9.30705
-9.82611
-10.4355
8360.72
8238.99
8128.6
8018.12
7877.86
7709.14
7539.04
7411.13
7352.61
7356.98
7397.74
7442.48
7450.85
7373.6
7171.28
6838.6
6402.58
5897.53
5347.1
4767.61
4178.02
3602.41
3064.22
2579.72
2156.55
1795.87
1494.52
1246.1
1042.14
874.044
734.337
617.586
519.799
437.67
368.272
309.74
260.414
218.846
183.796
154.198
129.122
107.777
89.5122
73.8068
60.2504
48.5174
38.3448
29.5189
21.8659
15.2471
9.55377
4.70133
0.623437
-2.73395
-5.41783
-7.47313
-8.94779
-9.89762
-10.3902
-10.5061
-10.3374
-9.98143
-9.53234
-9.07135
-8.65865
-8.33002
-8.09863
-7.96101
-7.90506
-7.91708
-7.98618
-8.10594
-8.27408
-8.49131
-8.76022
-9.08432
-9.46748
-9.91284
-10.421
-11.0026
616.435
440.075
272.501
172.909
115.09
116.325
123.982
60.9702
-123.504
-423.942
-789.448
-1156.52
-1466.54
-1671.05
-1743.53
-1690.65
-1546.52
-1351.96
-1137.69
-921.751
-714.345
-522.317
-350.629
-202.459
-79.2278
19.1733
93.8304
146.492
179.681
196.598
201.414
197.996
189.37
177.631
164.43
150.698
137.099
123.858
111.057
98.7746
87.0663
75.9761
65.5394
55.7794
46.7091
38.3324
30.6467
23.648
17.3327
11.6974
6.73684
2.44177
-1.2011
-4.20924
-6.60431
-8.41335
-9.67227
-10.4297
-10.7545
-10.7311
-10.4586
-10.0409
-9.5743
-9.13568
-8.77505
-8.51418
-8.35216
-8.27471
-8.26375
-8.30426
-8.3874
-8.51045
-8.67502
-8.88494
-9.14468
-9.45847
-9.82998
-10.262
-10.7553
-11.3159
-12859.5
-12012
-10959.3
-9945.02
-8939.77
-8068.65
-7340.82
-6766.08
-6334.56
-6008.1
-5734.41
-5466.94
-5172.91
-4836.56
-4459.98
-4059.19
-3654.96
-3263.63
-2893.55
-2547.09
-2224.3
-1925.31
-1651.3
-1403.63
-1182.61
-987.796
-818.084
-671.934
-547.161
-441.374
-352.387
-278.204
-217.042
-167.242
-127.215
-95.5075
-70.898
-52.0762
-37.9109
-27.4531
-19.7145
-14.0576
-10.0299
-7.35193
-5.72162
-4.8907
-4.67394
-4.91596
-5.47976
-6.24327
-7.10417
-7.98167
-8.81467
-9.55563
-10.1642
-10.6055
-10.8551
-10.9057
-10.7729
-10.4943
-10.1239
-9.72223
-9.34393
-9.02876
-8.79649
-8.64791
-8.57076
-8.54799
-8.56491
-8.61318
-8.69135
-8.80311
-8.95472
-9.15287
-9.40319
-9.70977
-10.0753
-10.501
-10.9858
-11.5294
-1288.58
-1328.03
-1445.18
-1647.37
-1875.59
-2027.5
-2062.37
-2007.46
-1901.16
-1763.4
-1605.95
-1442.57
-1288.83
-1157.66
-1056.75
-988.486
-950.905
-938.862
-945.04
-960.812
-976.656
-985.051
-981.354
-963.448
-931.683
-887.62
-833.675
-772.567
-707.381
-640.833
-575.033
-511.578
-451.577
-395.702
-344.241
-297.199
-254.409
-215.653
-180.723
-149.546
-122.532
-99.6444
-80.448
-64.6051
-51.8928
-42.0135
-34.5522
-29.0152
-24.8896
-21.7191
-19.1701
-17.0548
-15.2984
-13.8753
-12.7549
-11.8832
-11.1937
-10.6271
-10.1444
-9.72824
-9.37731
-9.09701
-8.89104
-8.7565
-8.68325
-8.65676
-8.66248
-8.68975
-8.73383
-8.79582
-8.88117
-8.9976
-9.15322
-9.35525
-9.60901
-9.91776
-10.283
-10.7047
-11.1812
-11.6916
8055.45
7897.15
7670.92
7330.27
6846.16
6278.45
5670.65
5054.99
4454.21
3884.35
3355.3
2868.8
2418.72
1996.89
1599.94
1230.78
895.607
600.581
350.189
146.281
-12.2084
-127.436
-203.419
-247.238
-267.209
-270.661
-263.316
-249.355
-231.721
-212.393
-192.648
-173.375
-154.657
-136.493
-119.064
-102.635
-87.5708
-74.2273
-62.8993
-53.5466
-45.6605
-39.0999
-33.845
-29.5356
-25.8772
-22.6997
-19.9211
-17.5044
-15.4264
-13.6643
-12.1945
-10.994
-10.0398
-9.30659
-8.76519
-8.38443
-8.13496
-7.99197
-7.93528
-7.94768
-8.01295
-8.11487
-8.23747
-8.36628
-8.48982
-8.60085
-8.69698
-8.7806
-8.85811
-8.93856
-9.03202
-9.14764
-9.29789
-9.49174
-9.73573
-10.0323
-10.386
-10.7978
-11.2734
-11.7745
-5544.74
-5276.67
-4918.57
-4456.75
-3893.75
-3266.1
-2611.16
-1960.67
-1336.91
-754.715
-223.022
250.936
659.187
997.083
1265.55
1469.64
1617.74
1719.18
1781.19
1807.06
1797.42
1753.9
1680.42
1581.96
1464.18
1333.46
1196.21
1057.94
922.635
792.997
671.028
558.244
455.585
363.809
283.455
214.661
157.053
109.721
71.6177
41.4256
17.7727
-0.123754
-13.3522
-22.5121
-28.102
-30.6917
-30.9002
-29.3629
-26.6909
-23.4289
-20.0238
-16.8126
-14.0204
-11.7652
-10.0714
-8.89479
-8.15247
-7.74959
-7.596
-7.6139
-7.7398
-7.92399
-8.12935
-8.33006
-8.51014
-8.66195
-8.78474
-8.88327
-8.96654
-9.0475
-9.14075
-9.21354
-9.32822
-9.49152
-9.70993
-9.99399
-10.3475
-10.7719
-11.268
-11.8498
8748.79
8406.6
7877.4
7114.52
6084.69
5020.89
4070.73
3283.29
2631.19
2066.62
1558.96
1103.47
708.812
380.905
117.07
-90.0283
-248.667
-367.868
-454.655
-513.544
-547.947
-561.124
-556.6
-537.968
-508.843
-472.606
-432.111
-389.55
-346.444
-304.031
-263.596
-226.007
-191.813
-161.307
-134.509
-111.296
-91.5275
-75.0839
-61.8102
-51.4824
-43.8228
-38.4947
-34.5576
-31.4694
-28.8287
-26.3105
-23.7109
-20.9582
-18.1001
-15.2714
-12.6492
-10.4023
-8.64811
-7.4277
-6.70791
-6.40444
-6.4121
-6.62875
-6.96816
-7.36365
-7.76751
-8.14803
-8.48587
-8.77123
-9.00104
-9.17734
-9.30561
-9.39399
-9.45116
-9.49112
-9.52536
-9.61385
-9.72151
-9.86726
-10.0678
-10.3349
-10.6782
-11.1063
-11.6205
-12.2854
-2447.31
-2071.58
-1651.03
-1323.26
-1059.18
-851.898
-674.611
-533.325
-442.866
-411.366
-439.29
-521.109
-645.043
-794.441
-951.125
-1100.69
-1232.56
-1337.75
-1409.24
-1441.41
-1432.33
-1384.95
-1306.79
-1208.12
-1099.42
-989.12
-882.729
-782.892
-689.45
-601.04
-517.191
-439.125
-368.933
-307.943
-256.121
-212.637
-176.541
-147.129
-123.272
-104.063
-88.607
-76.0776
-65.7483
-57.0235
-49.4508
-42.7233
-36.6671
-31.2131
-26.362
-22.1478
-18.6059
-15.7506
-13.5624
-11.9864
-10.9391
-10.3218
-10.0327
-9.9769
-10.0748
-10.2533
-10.4651
-10.6741
-10.8628
-11.0196
-11.1388
-11.2248
-11.2758
-11.2987
-11.3047
-11.3021
-11.303
-11.3204
-11.3634
-11.4419
-11.5656
-11.7425
-11.9794
-12.2822
-12.6603
-13.1337
-7532.01
-7428.94
-7314.22
-7190.12
-7077.44
-6980.53
-6879.47
-6744.78
-6550.91
-6281.33
-5930.24
-5500.54
-5002.13
-4448.48
-3857.32
-3254.77
-2679.07
-2171.64
-1757.37
-1433.3
-1176.49
-958.933
-759.86
-567.98
-380.136
-201.632
-43.1928
84.3807
174.574
227.374
247.271
241.658
219.817
190.321
159.705
131.273
106.198
84.2209
64.5997
47.1679
31.992
19.1153
8.49931
0.019027
-6.51806
-11.352
-14.7518
-16.9965
-18.3562
-19.0759
-19.3633
-19.3816
-19.2488
-19.0411
-18.8003
-18.542
-18.2687
-17.9817
-17.6729
-17.3466
-16.9958
-16.5669
-16.1842
-15.8481
-15.5566
-15.3034
-15.0879
-14.9023
-14.7401
-14.5959
-14.4673
-14.3543
-14.259
-14.1842
-14.134
-14.1123
-14.1222
-14.1653
-14.2378
-14.3366
454.982
439.757
385.352
282.353
162.448
110.473
155.418
278.869
452.009
658.31
887.133
1118.95
1320.06
1447.25
1462.28
1347.23
1121.3
837.598
560.978
335.735
176.33
77.7139
26.0466
7.07445
10.2865
28.9239
57.7583
90.0299
118.054
134.952
138.137
129.914
114.915
97.9402
81.8115
67.4284
54.3042
41.7267
29.6001
18.1578
7.70338
-1.52994
-9.42773
-15.9864
-21.2804
-25.4309
-28.5818
-30.8814
-32.4706
-33.4743
-33.9967
-34.1196
-33.9072
-33.4119
-32.6667
-31.6825
-30.5074
-29.2829
-27.9133
-26.4848
-25.049
-23.725
-22.4719
-21.3651
-20.4502
-19.7303
-19.1767
-18.7472
-18.401
-18.1054
-17.8385
-17.5876
-17.3473
-17.1174
-16.901
-16.7026
-16.5262
-16.3738
-16.2403
-16.1398
8483.43
8278.73
8014.23
7682.13
7274.09
6880.83
6532.1
6222.41
5939.14
5668.42
5391.57
5088.89
4745.28
4354.06
3921.64
3468.86
3023.38
2609.43
2240.68
1925.14
1670.67
1477.97
1336.13
1221.57
1110.98
992.398
865.899
737.862
615.359
503.277
403.862
317.477
243.557
181.097
128.844
85.7023
50.4271
22.1231
-0.216682
-17.5321
-30.6489
-40.2755
-47.0432
-51.6138
-54.5133
-56.1708
-56.9389
-57.0999
-56.8706
-56.4081
-55.8171
-55.1579
-54.4528
-53.6898
-52.8444
-51.8649
-50.6063
-48.7074
-46.2169
-43.0994
-39.4412
-35.529
-31.7695
-28.5357
-26.0293
-24.244
-23.0302
-22.2013
-21.6043
-21.1373
-20.7399
-20.38
-20.0432
-19.7247
-19.4252
-19.1474
-18.8943
-18.6669
-18.4633
-18.3284
888.093
769.615
620.557
450.654
243.622
43.4545
-137.67
-314.982
-516.394
-754.007
-1001.4
-1214.14
-1368.29
-1468.44
-1528.51
-1556.83
-1557.89
-1544.27
-1535.67
-1540.1
-1541.73
-1515.67
-1450.1
-1348.37
-1223.53
-1090.47
-961.212
-843.052
-738.959
-649.015
-572.004
-506.357
-450.393
-402.391
-360.753
-324.052
-291.18
-261.382
-234.177
-209.27
-186.705
-166.513
-148.666
-132.983
-119.336
-107.605
-97.6436
-89.2872
-82.3523
-76.6377
-71.9253
-67.9853
-64.5838
-61.4886
-58.4935
-55.4314
-52.1877
-48.6594
-44.6634
-40.3128
-35.8055
-31.5666
-28.0123
-25.3891
-23.6951
-22.7347
-22.2501
-22.0197
-21.9013
-21.8169
-21.7325
-21.6357
-21.5254
-21.4048
-21.2781
-21.149
-21.0202
-20.893
-20.7729
-20.7129
-11862.7
-11693.2
-11488.7
-11227
-10892.8
-10485.5
-9993.22
-9445.35
-8920.05
-8477.64
-8097.07
-7714.66
-7300.28
-6860.8
-6408.03
-5948.19
-5483.41
-5018.44
-4566.42
-4142.55
-3754.78
-3403.82
-3086.4
-2796.7
-2527.89
-2274.56
-2033.73
-1804.54
-1587.71
-1385.21
-1198.97
-1030.21
-879.501
-746.759
-631.413
-532.571
-449.028
-379.288
-321.683
-274.466
-235.531
-203.393
-176.808
-154.712
-136.264
-120.839
-107.974
-97.301
-88.5048
-81.2905
-75.3673
-70.4448
-66.2411
-62.5016
-59.0076
-55.6818
-52.2171
-48.4248
-44.2107
-39.4906
-34.4971
-29.5454
-25.1027
-21.6367
-19.4038
-18.3569
-18.2229
-18.6299
-19.342
-20.1151
-20.8529
-21.5052
-22.0498
-22.4857
-22.8205
-23.0635
-23.2245
-23.3131
-23.3527
-23.3679
-2544.78
-2280.13
-1969.99
-1629.14
-1223.11
-685.76
-36.9909
603.106
1126.81
1504.97
1763.06
1932.46
2030.54
2061.14
2025.1
1922.23
1749.5
1508.26
1216.62
907.684
615.138
360.058
152.156
-6.61762
-119.874
-194.641
-239.311
-262.747
-272.632
-274.733
-272.704
-268.35
-262.191
-254.103
-243.773
-231.424
-217.615
-202.756
-187.194
-171.499
-156.253
-141.686
-128.017
-115.483
-104.273
-94.4991
-86.1778
-79.2383
-73.5339
-68.8606
-64.9797
-61.6443
-58.6354
-55.7526
-52.8453
-49.7294
-46.5429
-43.3631
-40.2186
-37.1523
-34.1699
-31.2532
-28.4475
-25.9252
-23.9306
-22.6386
-22.0656
-22.061
-22.3886
-22.9507
-23.6127
-24.2892
-24.9318
-25.5074
-25.9917
-26.3664
-26.6172
-26.7371
-26.7367
-26.6085
18685.5
18294.3
17593.8
16395.8
14647.8
12784.3
11110.7
9724.07
8611.76
7743.16
7060.85
6487.18
5957.21
5440.07
4931.14
4437.63
3967.72
3525.11
3109.76
2719.55
2349.4
1997.59
1672.4
1392
1172.32
1014.47
903.043
816.757
738.919
660.78
579.347
495.049
410.897
331.557
261.672
204.507
160.754
128.517
104.701
86.4978
71.6491
58.6884
46.7734
35.7956
25.5838
16.0525
7.21108
-0.893866
-8.19705
-14.6223
-20.0951
-24.5484
-27.9365
-30.2805
-31.6573
-32.1763
-31.984
-31.2446
-30.133
-28.8257
-27.4836
-26.2382
-25.1898
-24.4163
-23.9723
-23.8791
-24.1166
-24.6552
-25.3985
-26.2782
-27.2294
-28.1915
-29.11
-29.935
-30.6217
-31.1308
-31.4287
-31.4841
-31.2662
-30.7435
-4.53365
-7.47654
-10.6185
-13.7411
-16.6009
-19.0766
-21.1194
-22.7708
-24.1044
-25.1564
-25.9479
-26.4343
-26.465
-25.7559
-24.0103
-21.1474
-17.5198
-13.7694
-10.4701
-7.90683
-6.09491
-4.90635
-4.16784
-3.7097
-3.39143
-3.1117
-2.81209
-2.47965
-2.13952
-1.83338
-1.59582
-1.44308
-1.37543
-1.38434
-1.45785
-1.58302
-1.7465
-1.93439
-2.13162
-2.32134
-2.48508
-2.60447
-2.66411
-2.65498
-2.583
-2.44823
-2.26337
-2.04311
-1.80148
-1.55049
-1.2995
-1.05531
-0.822529
-0.604119
-0.401972
-0.217309
-0.0508895
0.0969493
0.22625
0.337319
0.430607
0.506667
0.566139
0.609706
0.637989
0.651458
0.650405
0.634928
0.604915
0.560014
0.499615
0.422814
0.328365
0.214676
0.0798805
-0.0780622
-0.261349
-0.472459
-0.714401
-0.991013
-1.30718
-1.6688
-2.0822
-2.55294
-3.0844
-3.67668
-4.32661
-5.02879
-5.77686
-6.56407
-7.38286
-8.22386
-9.07507
-9.92177
-10.7471
-11.5333
-12.2624
-12.9179
-13.4851
-13.9515
-14.3064
-14.5449
-14.6644
-14.6647
-14.5483
-14.3197
-13.9858
-13.5555
-13.0395
-12.4498
-11.7991
-11.1002
-10.3659
-9.60821
-8.83824
-8.06578
-7.29915
-6.5452
-5.80936
-5.09586
-4.40785
-3.74762
-3.1168
-2.51657
-1.9478
-1.41117
-0.907162
-0.436074
0.00196722
0.407005
0.779237
1.11903
1.42693
1.7037
1.95028
2.16778
2.35738
2.52035
2.65799
2.77223
2.86484
2.93776
2.99275
3.03152
3.05567
3.06665
3.06578
3.05421
3.03289
3.00258
2.96383
2.91697
2.86213
2.79922
2.72791
2.64767
2.55779
2.45734
2.34521
2.2201
2.08053
1.92486
1.75132
1.55801
1.34302
1.10443