/*--------------------------------*- C++ -*----------------------------------*\
| =========                 |                                                 |
| \\      /  F ield         | OpenFOAM: The Open Source CFD Toolbox           |
|  \\    /   O peration     | Version:  2012                                  |
|   \\  /    A nd           | Website:  www.openfoam.com                      |
|    \\/     M anipulation  |                                                 |
\*---------------------------------------------------------------------------*/
FoamFile
{
    version     2.0;
    format      ascii;
    class       volScalarField;
    location    "0.23";
    object      p;
}
// * * * * * * * * * * * * * * * * * * * * * * * * * * * * * * * * * * * * * //

dimensions      [0 2 -2 0 0 0 0];


internalField   nonuniform List<scalar> 
42400
(
-1652.86
-1637.71
-1648.52
-1725.64
-1868.72
-2068.1
-2238.63
-2288.25
-2217.76
-2137.02
-2164.3
-2314.33
-2520.47
-2720.41
-2890.22
-3022.45
-3104.02
-3117.1
-3050.17
-2904.19
-2696.03
-2452.12
-2195.29
-1938.74
-1689.29
-1451.8
-1229.85
-1026.15
-843.061
-682.501
-545.147
-430.325
-336.32
-260.684
-200.59
-153.264
-116.31
-87.5616
-65.2902
-48.0369
-34.6226
-24.0771
-15.6226
-8.66189
-2.75187
2.42798
7.11061
11.4724
15.6552
19.775
23.9137
28.1
32.2916
36.3718
40.1829
43.5754
46.24
47.9122
48.7859
48.921
48.6198
48.0358
47.2989
46.5414
45.8186
45.1487
44.5325
43.9627
43.4289
42.9194
42.4219
41.9241
41.4137
40.8786
40.307
39.6894
39.0228
38.3074
37.5092
36.5752
-9057.55
-8553.81
-7954.79
-7412.03
-6876.18
-6410.43
-5988.89
-5585.06
-5189.37
-4807.88
-4449.8
-4117.34
-3807.5
-3517.42
-3248.27
-3003.77
-2785.2
-2588.55
-2405.9
-2229.64
-2054.65
-1877.71
-1699.92
-1522.57
-1347.27
-1176.01
-1011.55
-856.664
-713.709
-584.448
-469.834
-370.174
-285.304
-214.662
-157.24
-111.323
-75.303
-47.5031
-26.2411
-10.0312
2.3666
11.9643
19.5564
25.7452
30.9624
35.4965
39.5177
43.0986
46.2306
48.8462
50.853
52.1808
52.8277
52.8799
52.4989
51.8537
51.0685
50.1991
49.2626
48.2677
47.2511
46.265
45.3963
44.6471
44.0256
43.5271
43.1344
42.8232
42.5648
42.3286
42.0825
41.7955
41.4389
40.9887
40.4282
39.7506
38.9639
38.0822
37.0775
35.9979
3794.69
3774.64
3743.88
3695.17
3646.52
3583.98
3481.13
3297.59
3016.83
2668.61
2311.91
1992.09
1724.66
1507.3
1330.29
1183.79
1060.63
956.451
868.079
792.469
725.384
662.061
599.019
534.787
470.675
409.384
353.589
305.101
264.586
231.686
205.691
185.246
168.826
155.103
143.052
131.704
120.856
110.697
101.498
93.4533
86.6268
80.9673
76.3443
72.5802
69.4815
66.8666
64.5858
62.531
60.6318
58.8404
57.114
55.4065
53.6744
51.8934
50.0727
48.2556
46.5073
44.8975
43.4862
42.3161
41.4074
40.7628
40.3725
40.2041
40.2127
40.3495
40.5669
40.8209
41.0712
41.2794
41.4078
41.4205
41.2856
40.9794
40.4911
39.8264
39.0096
38.0774
37.0532
35.9377
4187.4
4243.15
4350.6
4494.47
4657.34
4805.25
4928.64
5047.38
5213.22
5481.4
5850.15
6237.53
6527.09
6650.24
6605.69
6428.19
6155.92
5817.64
5432.83
5017.33
4585.61
4150.98
3724.44
3313.55
2922.77
2554.11
2207.49
1883.85
1585.19
1314.94
1076
870.358
698.332
557.924
445.424
356.4
286.497
231.879
189.354
156.338
130.771
111.015
95.7557
83.9441
74.7396
67.4714
61.6083
56.7358
52.5408
48.7985
45.3626
42.1539
39.15
36.374
33.8857
31.7706
30.124
29.0259
28.5268
28.5621
28.9839
29.8508
31.0541
32.4617
33.9476
35.4073
36.7673
37.9831
39.0306
39.8946
40.5599
41.0081
41.2206
41.186
40.9072
40.4075
39.7315
38.9379
38.1295
37.2322
7938.8
7727.73
7448.94
7053.86
6499.8
5822.93
5025.37
4112.6
3138.28
2211.72
1429.25
797.881
253.955
-257.761
-742.433
-1175.43
-1531.31
-1795.1
-1961.81
-2035.56
-2027.94
-1955.51
-1835.89
-1682.79
-1504.73
-1307.87
-1100.46
-891.97
-693.75
-516.023
-365.083
-242.981
-148.594
-78.5921
-28.7433
5.22157
27.0888
40.1289
46.9497
49.5468
49.3878
47.513
44.6346
41.2186
37.5499
33.7861
30.0015
26.2247
22.4687
18.7548
15.1288
11.6696
8.49138
5.73846
3.57371
2.1575
1.62353
2.05307
3.40159
5.68482
8.88341
12.6505
16.7188
20.8207
24.7201
28.2461
31.3129
33.9042
36.0485
37.7901
39.1675
40.2048
40.9157
41.3137
41.4231
41.285
40.9592
40.5099
40.0498
39.5372
-12269.6
-12158.8
-12000.4
-11768
-11403.3
-10914.8
-10320.7
-9648.18
-8921.72
-8159.6
-7378.74
-6599.51
-5845.25
-5136.99
-4489.09
-3907.75
-3392.56
-2939.03
-2541.92
-2197.3
-1903.71
-1660.74
-1465.23
-1309.82
-1184.5
-1079.48
-986.911
-900.639
-816.349
-731.998
-647.786
-565.337
-486.766
-413.942
-348.114
-289.847
-239.134
-195.568
-158.524
-127.297
-101.191
-79.5682
-61.8621
-47.5829
-36.31
-27.6787
-21.3637
-17.0617
-14.4755
-13.3006
-13.2172
-13.8874
-14.9593
-16.0762
-16.8925
-17.0918
-16.421
-14.722
-11.8833
-7.96322
-3.13203
2.33896
8.10914
13.8244
19.1788
23.9618
28.0767
31.5236
34.3619
36.6702
38.5193
39.9623
41.0391
41.7869
42.2483
42.4743
42.5215
42.446
42.3094
42.1246
-4267.15
-3835.98
-3259.18
-2676.17
-2070.45
-1564.12
-1160.57
-834.733
-557.106
-308.668
-83.7496
113.458
274.958
394.45
468.706
496.068
473.443
408.06
319.375
220.541
109.392
-15.4262
-143.573
-258.795
-348.568
-409.502
-444.036
-459.314
-460.325
-450.264
-431.373
-405.486
-374.384
-339.873
-303.71
-267.465
-232.401
-199.425
-169.107
-141.741
-117.419
-96.0936
-77.6349
-61.877
-48.65
-37.7944
-29.1513
-22.5447
-17.7671
-14.5709
-12.6625
-11.712
-11.3676
-11.2771
-11.1144
-10.5582
-9.15251
-6.93478
-3.84493
0.0862307
4.6933
9.72882
14.9015
19.9242
24.5623
28.6663
32.1783
35.1128
37.5249
39.4823
41.0478
42.2741
43.206
43.8845
44.3496
44.6394
44.7879
44.8263
44.7819
44.6619
11023
10910.4
10731.2
10391
9815.76
9035.58
8068.53
6963.64
5825.79
4792.39
3974.03
3393.58
2995.51
2698.39
2437.3
2172.51
1867.03
1524.26
1225.04
1022.23
877.842
745.749
618.133
501.169
396.642
302.717
218.699
145.197
82.2071
29.4547
-13.5368
-47.4186
-72.8654
-90.5169
-101.11
-105.562
-104.915
-100.251
-92.6231
-83.0115
-72.2446
-60.9834
-49.7528
-38.9615
-28.9097
-19.8074
-11.7837
-4.89168
0.882353
5.60741
9.39561
12.3891
14.7476
16.6282
18.318
19.9391
21.5315
23.3484
25.3695
27.556
29.8765
32.2537
34.5863
36.7795
38.7653
40.5113
42.0159
43.2948
44.3681
45.254
45.9681
46.5251
46.9406
47.2309
47.4123
47.4985
47.4999
47.4233
47.2814
47.0519
-5068.72
-4791.08
-4411.66
-3920.12
-3205.39
-2302.89
-1304.01
-365.095
366.85
825.644
1056.27
1156.05
1188.7
1162.88
1075.91
952.101
836.874
750.987
667.978
564.945
458.793
367.33
287.114
212.381
144.145
84.547
34.3557
-5.0388
-32.846
-52.1188
-67.0343
-79.5715
-88.9929
-94.0397
-94.2831
-90.1445
-82.4888
-72.3307
-60.7182
-48.5386
-36.3522
-24.6102
-13.5363
-3.2997
5.97731
14.232
21.4483
27.6469
32.8736
37.1891
40.6629
43.3664
45.3821
46.799
47.6126
48.0606
48.2286
48.2219
48.1439
48.0727
48.0648
48.1559
48.3593
48.6662
49.0501
49.4732
49.8945
50.2768
50.5927
50.8259
50.9727
51.0389
51.0354
50.9719
50.8538
50.6825
50.4585
50.1825
49.8637
49.475
-4376.87
-4501.64
-4734
-4999.69
-5195.06
-5239.84
-5188.42
-5104.06
-4981.46
-4778.16
-4473.76
-4085.3
-3652.3
-3218.1
-2815.79
-2457.62
-2130.45
-1811.56
-1500.73
-1227.94
-1024.65
-896.902
-828.829
-801.719
-801.538
-817.067
-839.965
-863.524
-878.937
-874.378
-843.284
-788.642
-719.166
-642.883
-564.933
-488.563
-415.924
-348.251
-286.047
-229.516
-178.933
-134.43
-96.0834
-63.7034
-36.8441
-14.8977
2.81268
16.9556
28.1426
36.9046
43.6859
48.8506
52.7028
55.4878
57.413
58.6635
59.3998
59.7609
59.8642
59.8024
59.6435
59.4329
59.1951
58.939
58.6634
58.3631
58.033
57.6715
57.281
56.8675
56.4379
55.9972
55.548
55.0905
54.6233
54.1435
53.6472
53.1293
52.5901
52.0056
9089.24
8926.97
8672.15
8335.63
7908.98
7457.35
6976.35
6449.57
5877.11
5276.33
4673.22
4094.51
3559.68
3078.88
2648.97
2257.02
1887.43
1528.24
1173.26
820.481
473.743
144.418
-153.753
-411.325
-624.441
-791.57
-910.304
-977.555
-992.953
-962.208
-896.831
-809.872
-713.383
-616.898
-526.186
-443.675
-369.819
-304.284
-246.544
-195.542
-150.987
-112.526
-79.6756
-51.891
-28.5823
-9.15644
6.94949
20.2432
31.1794
40.1506
47.4812
53.4269
58.1824
61.898
64.7018
66.7169
68.0704
68.8894
69.2912
69.3735
69.2107
68.8578
68.356
67.7383
67.0319
66.2597
65.4413
64.5927
63.7274
62.8563
61.9885
61.1306
60.2854
59.4525
58.6283
57.8084
56.9889
56.1676
55.346
54.5123
1390
1330.78
1262.55
1195.37
1095.31
972.484
832.689
689.164
558.66
462.634
421.622
443.112
507.33
569.087
581.604
526.427
421.722
303.125
200.641
127.262
85.7802
78.1944
103.295
152.479
212.853
274.22
331.936
384.744
431.473
469.641
496.113
507.257
501.228
479.116
444.306
401.325
354.999
309.402
267.38
230.046
198.017
171.287
149.123
130.617
115.414
103.193
93.9701
87.3127
82.8238
80.1782
79.0293
78.9836
79.613
80.4993
81.3043
81.8232
81.9938
81.8561
81.486
80.9399
80.2386
79.3813
78.3687
77.2146
75.9457
74.5948
73.194
71.7706
70.3463
68.9364
67.5515
66.1983
64.881
63.6023
62.3637
61.1655
60.0069
58.8858
57.8001
56.7428
-10829.5
-10550.4
-10209.4
-9803.14
-9311.32
-8746.26
-8103.66
-7372.07
-6539.9
-5613.39
-4641.78
-3732.76
-3007.86
-2509.78
-2179.79
-1938.25
-1750.6
-1607.3
-1492.97
-1381.95
-1252.11
-1094.51
-912.53
-716.881
-521.336
-338.989
-179.869
-49.7862
49.6956
120.462
166.431
192.241
202.418
200.979
191.293
176.229
158.41
139.168
119.673
100.963
83.893
69.1202
57.4438
49.589
44.9145
43.1084
43.6476
46.4244
51.2171
57.5638
64.8524
72.4187
79.6093
85.8969
90.9443
94.6107
96.9142
97.9676
97.9428
97.0502
95.5086
93.5162
91.2351
88.7907
86.2783
83.7677
81.3089
78.9349
76.6658
74.5117
72.4759
70.5568
68.75
67.0486
65.4446
63.929
62.493
61.1277
59.8252
58.5776
6216.67
6092.11
5913.05
5637.37
5243.45
4782.04
4303.04
3839.76
3397.12
2953.82
2469.62
1892.28
1181.05
372.776
-386.849
-945.844
-1272.67
-1432.42
-1487.3
-1466.7
-1386.12
-1263
-1116.76
-964.697
-820.166
-691.921
-584.227
-497.7
-430.718
-379.902
-341.514
-312.098
-288.78
-269.387
-252.4
-236.76
-221.801
-206.401
-190.075
-172.754
-154.475
-135.327
-115.302
-94.2966
-71.7018
-47.689
-22.7128
2.44631
27.2127
51.0499
72.7709
91.1077
105.145
114.479
119.333
120.517
119.126
116.258
112.718
108.95
105.171
101.48
97.9308
94.5451
91.3294
88.2804
85.3917
82.6577
80.0741
77.6375
75.3441
73.1882
71.1629
69.2594
67.4681
65.7789
64.182
62.6682
61.2286
59.8553
4538.84
4410.04
4248.36
4037.01
3754.09
3433
3105.93
2798.76
2528.66
2305.93
2133.17
2000.82
1881.89
1737.35
1542.89
1312.11
1079.91
870.741
689.62
533.189
397.691
280.175
177.674
87.5132
7.75328
-62.8101
-124.68
-177.903
-222.437
-258.697
-286.888
-306.784
-318.633
-322.998
-320.488
-311.86
-298.092
-280.274
-259.701
-237.75
-215.634
-194.187
-173.761
-154.167
-134.805
-114.799
-93.2801
-69.0069
-42.5037
-15.1007
12.035
37.5497
59.9952
78.2282
91.7072
100.598
105.652
107.818
107.994
106.882
104.926
102.422
99.5805
96.5576
93.472
90.4073
87.42
84.5473
81.8122
79.2274
76.7969
74.5185
72.3849
70.3857
68.5089
66.7424
65.074
63.493
61.9893
60.5558
-5409.44
-5335.35
-5221.16
-5036.07
-4757.35
-4401.46
-3984.88
-3523.35
-3029.67
-2516.33
-1997.08
-1487.28
-1003.33
-561.016
-172.698
155.349
423.494
636.333
799.582
918.873
999.561
1046.22
1063.19
1055.16
1026.91
982.579
925.099
856.402
778.376
693.516
605.032
516.04
429.635
348.501
274.695
209.346
152.336
103.135
61.0313
25.2557
-4.88224
-29.875
-49.8854
-64.6912
-73.7808
-76.865
-73.8405
-65.1067
-50.9088
-32.078
-10.0314
13.4308
36.369
57.0214
74.1407
87.1747
96.2337
101.864
104.749
105.512
104.701
102.762
100.079
96.9768
93.7025
90.4278
87.2617
84.2657
81.4681
78.874
76.4741
74.2511
72.1843
70.2531
68.4385
66.7244
65.0971
63.5457
62.0612
60.6384
929.389
1032.66
1167.73
1302.96
1460.37
1598.11
1702.44
1764.72
1780.8
1751.26
1680.32
1575.13
1444.39
1294.82
1133.84
967.188
799.154
633.163
472.185
318.533
173.764
38.8904
-85.0685
-196.57
-293.706
-374.968
-439.478
-486.347
-514.188
-522.329
-511.361
-484.46
-447.027
-404.25
-359.381
-313.76
-267.972
-223.415
-181.979
-145.33
-114.509
-89.8722
-71.1467
-57.5218
-47.7514
-39.992
-32.23
-23.1615
-11.9953
1.47169
16.8468
33.2789
49.7514
64.8754
77.7839
87.8436
94.8516
99.006
100.761
100.645
99.2174
96.9578
94.2235
91.2846
88.3338
85.4948
82.8353
80.3802
78.1251
76.0481
74.1197
72.3103
70.5948
68.954
67.3744
65.8469
64.3657
62.9269
61.5281
60.1691
1161.14
1047.33
880.72
659.224
396.606
110.857
-191.237
-503.576
-816.515
-1118.13
-1396.11
-1640.92
-1847.21
-2013.52
-2140.85
-2231.15
-2286.17
-2306.95
-2293.5
-2244.79
-2158.66
-2031.63
-1859.42
-1641.4
-1390.11
-1135.42
-914.757
-751.778
-645.244
-577.682
-531.981
-498.22
-471.572
-448.639
-425.746
-399.662
-368.923
-334.029
-296.676
-258.83
-222.082
-187.405
-155.215
-125.572
-98.3551
-73.3735
-50.422
-29.3133
-9.90449
7.87425
24.0057
38.3929
50.8941
61.3685
69.7416
76.043
80.4213
83.1122
84.3964
84.6187
84.0643
82.9671
81.5539
80.0064
78.4513
76.9638
75.5748
74.2814
73.0587
71.8721
70.6889
69.4864
68.2541
66.9925
65.7082
64.4102
63.1075
61.8079
60.5183
59.2447
-11788.8
-11227.1
-10477.1
-9582.23
-8499.29
-7328.16
-6138.68
-4995.42
-3939.44
-2992.87
-2169.74
-1479.98
-929.133
-518.133
-242.27
-91.017
-45.291
-77.6764
-159.188
-267.166
-385.038
-496.167
-583.013
-632.713
-640.426
-610.269
-553.1
-482.091
-407.894
-337.521
-275.415
-224.209
-184.482
-154.689
-132.085
-113.968
-98.3733
-84.1542
-70.7178
-57.7987
-45.3062
-33.2342
-21.6143
-10.4833
0.175179
10.3359
19.9242
28.8811
37.1397
44.6265
51.2678
57.0002
61.7799
65.5938
68.4659
70.4559
71.6589
72.2043
72.2445
71.9286
71.4037
70.7985
70.2117
69.7063
69.308
69.0082
68.7708
68.5416
68.2603
67.8725
67.3417
66.6549
65.8219
64.8666
63.8178
62.7027
61.5439
60.3594
59.1636
57.9679
12662.7
12393.6
12041.2
11536.9
10829.4
10000.1
9105.34
8186.99
7272.71
6378.94
5516.73
4692.88
3909.93
3165.49
2454.31
1780
1168.55
667.419
317.078
115.764
20.069
-17.4134
-22.4443
-6.99658
17.6281
40.6114
56.054
63.671
65.454
63.5814
59.7174
55.0363
50.4817
46.946
45.0971
45.2279
47.1901
50.5506
54.7758
59.367
63.866
67.9184
71.2991
73.9065
75.6977
76.747
77.2063
77.2077
76.8685
76.2823
75.5153
74.6102
73.5942
72.4868
71.3109
70.0966
68.8834
67.7242
66.6788
65.8019
65.1365
64.7067
64.5122
64.5257
64.6964
64.9554
65.2242
65.4241
65.4855
65.3577
65.0173
64.47
63.7438
62.8766
61.9054
60.8612
59.7688
58.6479
57.5141
56.3794
11664.4
11315.5
10776.9
9972.36
8853.35
7585.16
6305.23
5135.14
4162.27
3414.93
2866.29
2458.72
2127.16
1823.82
1535.18
1278.09
1077.79
944.881
870.118
831.604
804.733
769.959
717.084
644.646
556.79
461.015
365.234
276.564
200.664
140.188
94.5692
61.5854
39.0052
24.7425
16.8735
13.5051
12.8538
13.4885
14.4179
15.053
15.1195
14.5563
13.4263
11.8518
9.97411
7.93037
5.83946
3.7939
1.85694
0.064394
-1.57017
-3.04897
-4.3838
-5.59117
-6.6888
-7.69351
-8.62016
-9.48137
-10.2876
-11.0476
-11.7685
-12.4565
-13.1169
-13.7542
-14.3729
-14.9767
-15.5695
-16.1547
-16.7357
-17.3156
-17.8975
-18.4838
-19.0764
-19.6768
-20.2859
-20.9035
-21.5281
-22.1528
-22.7765
-23.3973
13170.8
13061.2
12965.7
12900.8
12808.6
12732
12579.6
12286.1
11846.3
11263.8
10552.6
9759.43
8939.67
8127.74
7336.01
6566.12
5819.64
5099.09
4409.25
3759.7
3164.47
2636.66
2184.51
1807.2
1495.77
1237.24
1022.48
846.556
705.628
595.088
509.637
444.383
394.398
355.162
322.897
294.79
268.991
244.465
220.802
198.017
176.343
156.057
137.37
120.383
105.089
91.4075
79.2166
68.3777
58.7499
50.1983
42.5987
35.8396
29.8223
24.4597
19.6758
15.4043
11.5869
8.17293
5.11772
2.38175
-0.0703194
-2.27048
-4.24801
-6.03002
-7.64175
-9.10674
-10.4468
-11.682
-12.8307
-13.9094
-14.9329
-15.9139
-16.8633
-17.7902
-18.7015
-19.6028
-20.4983
-21.3878
-22.2676
-23.1143
2612.36
2499.2
2220.75
1685.06
851.622
-42.4067
-690.219
-928.086
-862.199
-701.175
-560.703
-446.993
-316.21
-146.913
18.2773
126.873
158.861
122.682
49.7049
-18.3636
-50.4954
-37.4588
9.59832
72.2068
135.338
192.361
242.619
286.368
323.383
353.438
376.555
392.567
400.974
401.367
393.981
379.89
360.662
337.883
312.695
286.313
259.611
233.25
207.745
183.523
160.943
140.273
121.672
105.169
90.679
78.0251
66.9802
57.3062
48.7849
41.2354
34.5176
28.527
23.1839
18.4239
14.1901
10.4294
7.0906
4.12464
1.48483
-0.872305
-2.98669
-4.89452
-6.62831
-8.21704
-9.68642
-11.0591
-12.3549
-13.5909
-14.7818
-15.9399
-17.0751
-18.1952
-19.3066
-20.4137
-21.5132
-22.5738
-14398.1
-13667.1
-12737.8
-11780.3
-10787.5
-9742.22
-8533.74
-7145.54
-5738.8
-4583.7
-3895.69
-3695.61
-3792.92
-3927.34
-3919.75
-3733.77
-3419.06
-3024.88
-2581.56
-2118.06
-1669.58
-1268.2
-927.64
-644.363
-405.696
-201.402
-27.3042
117.376
232.936
320.768
383.099
422.414
441.187
442.299
429.26
406.234
377.285
345.724
314.166
283.841
255.303
228.858
204.157
181.191
160.015
140.645
123.057
107.218
93.0937
80.6278
69.7139
60.1899
51.8563
44.511
37.9806
32.1322
26.8701
22.1254
17.8469
13.993
10.5275
7.41599
4.62425
2.11783
-0.137824
-2.17675
-4.03173
-5.73363
-7.31081
-8.7888
-10.1901
-11.5343
-12.8379
-14.1147
-15.3758
-16.6296
-17.8828
-19.1406
-20.4025
-21.6443
7020.4
6868.21
6721.89
6575.21
6396.5
6288.38
6344.23
6594.04
6945.38
7199.9
7164.44
6756.5
6048.6
5225.83
4466.86
3841.53
3324.17
2872.18
2464.45
2095.81
1766.77
1480.2
1237.6
1038.05
879.502
757.757
667.229
601.448
554.026
519.574
494.3
475.538
461.113
449.088
437.875
425.288
409.671
389.4
363.091
330.22
291.401
248.608
204.788
162.722
124.714
92.3572
66.5049
47.3198
34.3407
26.5653
22.5983
20.9017
20.1061
19.2795
18.0114
16.2829
14.2541
12.1057
9.96908
7.91804
5.98367
4.17197
2.47621
0.884041
-0.618759
-2.04664
-3.41352
-4.73255
-6.01596
-7.27502
-8.52
-9.76011
-11.0033
-12.2564
-13.5248
-14.8125
-16.1222
-17.4559
-18.8137
-20.19
5762.51
5761.14
5675.97
5425.54
5038.08
4540.5
3972.93
3367.01
2755.83
2178.92
1673.13
1270.79
1000.75
868.964
835.657
837.51
833.078
811.315
774.798
725.007
662.609
588.717
504.457
411.082
308.254
196.303
79.2912
-34.7286
-137.058
-221.59
-286.504
-333.306
-364.987
-384.938
-396.14
-400.053
-397.377
-388.079
-371.891
-348.789
-319.26
-284.383
-245.726
-205.177
-164.756
-126.425
-91.8828
-62.3438
-38.4136
-20.0907
-6.89513
1.9363
7.27465
9.98179
10.8367
10.4899
9.43974
8.03784
6.51455
5.00913
3.59495
2.29963
1.12137
0.0418112
-0.964696
-1.925
-2.86369
-3.8015
-4.7549
-5.73643
-6.75512
-7.81718
-8.92646
-10.085
-11.2933
-12.5506
-13.8548
-15.2022
-16.5879
-18.012
-15699.5
-15559.6
-15415.7
-15238.8
-14940.6
-14462
-13777.4
-12917.4
-11932
-10874.8
-9812.78
-8815.6
-7922.58
-7135.98
-6436.39
-5804.36
-5229.19
-4705.7
-4229.46
-3790.68
-3368.9
-2939.35
-2487.82
-2023.82
-1581.35
-1204.74
-927.169
-756.123
-674.932
-654.614
-666.563
-689.412
-710.056
-722.103
-723.872
-715.381
-697.758
-672.228
-639.496
-600.194
-555.134
-505.427
-452.517
-398.124
-344.119
-292.361
-244.49
-201.727
-164.728
-133.542
-107.721
-86.5353
-69.1884
-54.9686
-43.307
-33.7748
-26.0485
-19.8667
-14.9991
-11.2345
-8.38176
-6.27334
-4.76788
-3.74977
-3.12673
-2.82639
-2.79257
-2.98197
-3.36116
-3.90421
-4.59066
-5.40405
-6.33076
-7.35926
-8.47942
-9.68216
-10.9587
-12.2993
-13.694
-15.1512
-1438.19
-1140.42
-648.827
45.8279
971.096
1869.12
2463.71
2641.09
2530.82
2322.24
2111.1
1920.37
1748.86
1588.81
1432.12
1273.31
1109.68
939.455
757.849
557.066
332.15
86.4791
-167.851
-412.995
-630.82
-810.606
-949.66
-1050.46
-1115.92
-1148.25
-1149.08
-1121.02
-1068.92
-999.837
-920.912
-838.251
-756.41
-678.414
-606.105
-540.111
-480.19
-425.655
-375.712
-329.693
-287.177
-248.009
-212.245
-180.036
-151.516
-126.693
-105.406
-87.3333
-72.0547
-59.13
-48.1668
-38.8534
-30.9569
-24.3009
-18.7417
-14.1529
-10.4185
-7.43139
-5.09401
-3.31908
-2.02953
-1.15817
-0.646942
-0.446096
-0.513237
-0.812332
-1.31278
-1.98856
-2.81749
-3.78052
-4.86114
-6.04488
-7.31874
-8.66937
-10.083
-11.5735
17128.9
16833.2
16365.8
15602.6
14468.9
13082.5
11508.4
9839.84
8204.07
6711.64
5416.2
4312.2
3368.07
2555.52
1863.01
1295.73
866.416
584.932
448.836
435.267
497.969
577.34
622.42
609.279
539.602
428.83
294.839
155.127
24.0883
-88.9172
-179.883
-248.194
-296.008
-326.659
-343.356
-348.681
-344.717
-333.263
-316.023
-294.628
-270.577
-245.174
-219.493
-194.366
-170.408
-148.043
-127.535
-109.013
-92.4936
-77.9072
-65.1182
-53.9533
-44.2282
-35.7694
-28.4271
-22.0777
-16.6198
-11.9669
-8.0416
-4.77199
-2.09089
0.0640233
1.74987
3.01834
3.91578
4.4835
4.75821
4.77255
4.55556
4.13311
3.5283
2.76175
1.85194
0.815546
-0.332354
-1.57813
-2.9094
-4.31346
-5.77539
-7.30884
-9934.36
-9344.16
-8788.66
-8310.11
-7555.51
-6513.65
-5313.71
-4085.14
-2926
-1899.28
-1041.01
-376.743
80.7409
341.096
437.796
430.102
394.562
387.493
415.853
461.217
520.069
603.008
710.553
829.638
942.392
1027.43
1066.72
1055.2
1001.75
921.101
825.847
723.754
620.139
519.492
425.617
341.282
268.065
206.474
156.146
116.113
85.0586
61.5256
44.0698
31.3585
22.2333
15.7432
11.156
7.94768
5.76961
4.4009
3.69824
3.5538
3.86909
4.54423
5.47728
6.56892
7.72664
8.87146
9.93976
10.8836
11.6696
12.2771
12.6951
12.9207
12.9561
12.8076
12.4839
11.9956
11.3543
10.572
9.66073
8.63249
7.49891
6.27125
4.9603
3.5763
2.12879
0.62754
-0.914328
-2.50344
-7450.23
-6904.47
-6130.08
-5210.11
-4104.29
-2921.24
-1716.51
-609.607
268.136
840.921
1116.39
1165.5
1090.07
963.318
787.074
550.186
309.258
138.965
35.8672
-47.6326
-118.271
-151.263
-140.171
-103.69
-58.9434
-11.3098
42.0772
101.949
162.749
216.315
256.775
282.355
294.358
295.426
288.372
275.667
259.283
240.696
220.975
200.901
181.06
161.917
143.835
127.092
111.877
98.2862
86.3366
75.993
67.1826
59.7962
53.6876
48.6797
44.5837
41.2207
38.4366
36.1065
34.1316
32.4326
30.9448
29.6143
28.3957
27.2508
26.1478
25.0603
23.9669
22.8509
21.6995
20.5041
19.2587
17.9605
16.6089
15.2051
13.7519
12.2534
10.7141
9.13923
7.53421
5.90457
4.25852
2.597
9405.18
9229.94
9049.19
8857.13
8661.23
8468.63
8260.87
7976.69
7560.44
7022.23
6415.94
5763.94
5057.08
4325.04
3622.35
2997.96
2506.58
2150
1851.79
1565.64
1320.84
1142.13
1015.8
921.294
843.634
775.053
711.671
651.676
594.199
538.968
486.271
436.85
391.67
351.619
317.02
287.631
262.767
241.398
222.699
205.967
190.695
176.505
163.127
150.395
138.242
126.689
115.822
105.767
96.6468
88.5305
81.4118
75.2124
69.8091
65.0671
60.8643
57.1024
53.7064
50.6176
47.7913
45.1892
42.777
40.5237
38.4007
36.3819
34.444
32.5666
30.7322
28.9266
27.1385
25.3596
23.5839
21.8077
20.0296
18.2493
16.468
14.6876
12.9104
11.1388
9.37575
7.62208
3949.69
4264.49
4666.73
5025.52
5383.34
5645.23
5804.83
5861.98
5818.48
5672.63
5418.91
5061.34
4625.08
4154.73
3700.5
3291.13
2919.25
2559.29
2205.16
1879.36
1602.56
1374.21
1182.98
1018.32
873.448
743.371
623.331
510.949
408.278
320.628
253.114
207.611
182.029
171.375
169.748
171.858
173.936
174.08
171.642
166.82
160.315
152.868
145.064
137.289
129.759
122.577
115.786
109.401
103.424
97.841
92.6247
87.7358
83.133
78.7795
74.648
70.7214
66.9901
63.4488
60.0925
56.9145
53.9056
51.0531
48.3423
45.7567
43.2793
40.8936
38.5845
36.3383
34.1438
31.9918
29.8754
27.79
25.7326
23.7018
21.6975
19.7206
17.7721
15.8528
13.9622
12.0955
-6910.25
-7056.27
-7216.45
-7319.81
-7360.78
-7330.81
-7243.74
-7111.9
-6937.69
-6712.83
-6430.15
-6085.57
-5675.57
-5206.4
-4699.83
-4186.11
-3694.41
-3244.92
-2845.3
-2495.82
-2193.27
-1923.06
-1653.59
-1351.13
-1005.58
-638.17
-292.427
-10.3013
185.232
296.091
342.329
348.263
332.612
306.718
276.881
246.779
218.737
194.171
173.608
156.946
143.684
133.234
124.98
118.358
112.911
108.284
104.221
100.538
97.1069
93.8378
90.6645
87.5404
84.4353
81.3338
78.233
75.1392
72.0648
69.024
66.0308
63.0965
60.229
57.4322
54.7068
52.0503
49.4585
46.9257
44.4461
42.0141
39.6247
37.274
34.959
32.678
30.4301
28.2151
26.0334
23.8861
21.7743
19.6997
17.6642
15.6657
-4162.15
-3811.49
-3322.72
-2754.72
-2077.67
-1436.42
-924.893
-589.201
-409.946
-335.857
-324.716
-353.975
-412.653
-494.671
-599.101
-729.198
-887.98
-1066.69
-1246.94
-1427.34
-1619.24
-1800.86
-1913.78
-1909.13
-1779.87
-1563.3
-1312.44
-1068.58
-851.594
-665.554
-507.994
-375.576
-265.684
-176.157
-104.833
-49.378
-7.32594
23.7765
46.2054
61.9509
72.6702
79.693
84.0509
86.5214
87.6727
87.9088
87.5105
86.6695
85.5146
84.1308
82.5736
80.8789
79.071
77.167
75.1802
73.1221
71.0031
68.8326
66.6193
64.3712
62.095
59.7966
57.4809
55.1521
52.8139
50.4693
48.1215
45.7734
43.4282
41.0888
38.7583
36.4394
34.1342
31.8444
29.5711
27.3149
25.078
22.8656
20.693
18.5812
12273.8
12154.1
11889.3
11402.2
10738
9993.57
9208.83
8414.42
7651.12
6956.91
6349.34
5813.77
5309.42
4791.4
4232.04
3606.42
2883.06
2128.27
1535.7
1160.92
862.255
581.475
365.396
219.952
123.313
61.1025
22.5161
-0.431709
-13.266
-19.747
-22.0332
-20.7756
-16.4641
-9.50655
-0.403681
10.0651
20.9527
31.431
40.9899
49.2415
56.1014
61.3541
65.1625
67.7867
69.4881
70.4931
70.9832
71.0985
70.9452
70.6018
70.1236
69.5472
68.893
68.1693
67.3751
66.5033
65.5436
64.4852
63.3187
62.0383
60.6408
59.1272
57.5015
55.7709
53.9448
52.0343
50.0511
48.0068
45.9132
43.7811
41.6202
39.4383
37.2411
35.0323
32.8136
30.5857
28.3505
26.1201
23.8859
21.8329
-1704.58
-1431.21
-1142.17
-939.546
-696.911
-396.204
-58.2446
265.101
545.669
794.022
1034.63
1252.2
1395.83
1450.8
1437.56
1353.8
1194.11
991.174
794.943
625.389
477.887
355.138
262.443
196.526
149.975
115.362
88.0173
66.0807
49.3318
37.9602
31.7979
29.8963
31.418
35.3422
40.5925
46.355
52.0291
56.9219
60.5424
62.8056
63.9418
64.2854
63.9586
63.1305
61.9969
60.7358
59.492
58.3728
57.4491
56.759
56.3126
56.0971
56.0808
56.2175
56.4508
56.7187
56.9589
57.1127
57.1277
56.9671
56.6044
56.027
55.2334
54.2383
53.0597
51.7186
50.2366
48.6387
46.9463
45.1805
43.3598
41.4987
39.6082
37.6947
35.7596
33.8014
31.808
29.791
27.6741
25.7071
-11804.5
-11351.4
-10670.7
-9825.06
-8832.41
-7863.03
-6994.1
-6291.26
-5793.65
-5486.45
-5277.98
-5023.75
-4618.49
-4083.67
-3529.2
-3037.74
-2630.2
-2288.87
-1991.53
-1724.7
-1480.29
-1252.62
-1039.61
-843.758
-668.588
-516.127
-387.139
-280.666
-194.553
-126.324
-73.5812
-34.0108
-5.37558
14.5389
27.5739
35.1615
38.4412
38.7499
37.3112
34.8511
32.112
29.8639
28.4805
28.0101
28.3273
29.2436
30.5731
32.1632
33.9027
35.7189
37.569
39.4286
41.2808
43.1078
44.8834
46.5727
48.1295
49.5005
50.5874
51.3653
51.8193
51.947
51.7695
51.3163
50.6238
49.7301
48.6742
47.4894
46.2078
44.8568
43.46
42.0379
40.6057
39.1733
37.7442
36.3149
34.8716
33.3862
31.8551
30.1836
7439.11
7203.63
6959.42
6699.99
6374.15
6034.13
5730.35
5456.77
5138.41
4692.87
4087.52
3380.55
2717.91
2243.78
1975.3
1805
1632.48
1422.64
1182.57
939.685
725.314
554.792
422.087
313.159
217.759
132.393
57.146
-6.96741
-58.4785
-96.2526
-120.171
-131.423
-132.087
-124.48
-110.527
-91.8908
-70.7535
-49.7525
-31.2115
-16.1426
-4.86892
3.01125
8.25013
11.6098
13.7355
15.1332
16.1809
17.1497
18.227
19.5367
21.1545
23.1175
25.4284
28.0546
30.9248
33.9119
36.7689
39.3929
41.6874
43.5109
44.8525
45.745
46.2448
46.4141
46.3102
45.9818
45.4709
44.815
44.0489
43.2047
42.312
41.3964
40.4784
39.572
38.6829
37.8066
36.9261
36.0116
35.0357
33.7316
3208.6
3271.46
3322.9
3290.68
3191.6
3037.07
2888.46
2789.42
2769.12
2855.42
3053.55
3313.88
3536.36
3645.66
3655.53
3623.12
3572.98
3492.19
3360.44
3165.73
2910.03
2607.97
2283.71
1963.12
1665.25
1400.26
1171.2
975.871
809.292
666.32
542.971
436.522
344.927
266.586
200.312
145.27
100.772
66.0298
39.9906
21.3619
8.7588
0.855501
-3.52184
-5.35261
-5.41038
-4.27123
-2.3355
0.141598
3.01393
6.20612
9.67619
13.3836
17.2654
21.2276
25.1382
28.833
32.3903
35.7587
38.643
40.9792
42.7614
44.0122
44.7869
45.1608
45.2132
45.0183
44.638
44.1327
43.5433
42.9041
42.2411
41.5729
40.911
40.2602
39.6176
38.973
38.3097
37.5761
36.6221
35.3952
-24.5408
-25.9012
-26.7444
-26.9384
-26.5243
-25.7243
-24.687
-23.4503
-22.0025
-20.3516
-18.5478
-16.678
-14.8396
-13.11
-11.5319
-10.1191
-8.86434
-7.72594
-6.71399
-5.81199
-5.00734
-4.28449
-3.62854
-3.02601
-2.46558
-1.9385
-1.43873
-0.962607
-0.508274
-0.0750382
0.337141
0.727957
1.09672
1.44205
1.7615
2.05135
2.3065
2.52072
2.68759
2.80182
2.86009
2.86238
2.81179
2.71515
2.58215
2.42383
2.25113
2.07363
1.8985
1.72991
1.56908
1.41483
1.26434
1.11388
0.959343
0.796627
0.621724
0.430656
0.219358
-0.0164669
-0.281584
-0.58154
-0.922902
-1.31331
-1.76124
-2.27545
-2.86393
-3.53215
-4.28076
-5.10326
-5.98437
-6.89986
-7.81792
-8.70163
-9.51195
-10.2109
-10.7647
-11.1453
-11.3295
-11.3343
-11.141
-10.7712
-10.2507
-9.61084
-8.88587
-8.11038
-7.3166
-6.5324
-5.78001
-5.07541
-4.42845
-3.84347
-3.32047
-2.85636
-2.44623
-2.08437
-1.76497
-1.48262
-1.23243
-1.01022
-0.812416
-0.635979
-0.478312
-0.337089
-0.210085
-0.0950037
0.0106187
0.109353
0.203617
0.295296
0.385437
0.474151
0.560669
0.643769
0.722062
0.794297
0.85961
0.917622
0.968346
1.01208
1.04931
1.08059
1.10645
1.1274
1.14385
1.15609
1.16432
1.16862
1.16902
1.1655
1.15795
1.14621
1.13003
1.1091
1.08307
1.0516
1.01442
0.971346
0.922354
0.867583
0.807312
0.741862
0.671453
0.596051
0.515262
0.428303
0.334043
0.231083
0.117851
-0.00729207
-0.145953
-0.29959
-0.469386
-0.656129
-0.860089
-1.08091
-1.31753
-1.5681
-1.82998
-2.09974
-2.37328
-2.64598
-2.91283
-3.16867
-3.40842
-3.62723
-3.82079
-3.98541
-4.11813
-4.21675
-4.28014
-4.30788
-4.30041
-4.25888
-4.18514
-4.08158
-3.95104
-3.79667
-3.6218
-3.42987
-3.22432
-3.00853
-2.78577
-2.5591
-2.33137
-2.1052
-1.8829
-1.66654
-1.45797
-1.25871
-1.0702
-0.893423
-0.729654
-0.578961
-0.443328
-0.320229
-0.21598
-0.118355
-0.053464
0.0270559
-24.6196
-26.3997
-27.5762
-28.0226
-27.7945
-27.1532
-26.2422
-25.065
-23.5731
-21.7616
-19.6946
-17.495
-15.3065
-13.2473
-11.385
-9.74124
-8.30593
-7.02219
-5.9073
-4.92659
-4.06354
-3.29976
-2.61831
-2.00409
-1.44409
-0.927828
-0.447645
0.00151021
0.422591
0.817064
1.18558
1.52853
1.84628
2.13897
2.40619
2.64651
2.85704
3.0333
3.16962
3.26008
3.29999
3.2864
3.21957
3.10374
2.94764
2.76273
2.56101
2.35372
2.14994
1.95531
1.77185
1.5984
1.4316
1.26685
1.09916
0.923667
0.73581
0.531226
0.305622
0.0545834
-0.226722
-0.543885
-0.903518
-1.31333
-1.78193
-2.31834
-2.9309
-3.62555
-4.40343
-5.25843
-6.17549
-7.13017
-8.08995
-9.01664
-9.8695
-10.6087
-11.1984
-11.6108
-11.8317
-11.8281
-11.6292
-11.2452
-10.7004
-10.0267
-9.26016
-8.43722
-7.59215
-6.75485
-5.94947
-5.19372
-4.49888
-3.87031
-3.30854
-2.8106
-2.37135
-1.98465
-1.64415
-1.34387
-1.07844
-0.843226
-0.634278
-0.448282
-0.282435
-0.13431
-0.00169969
0.117565
0.225752
0.325249
0.41839
0.507156
0.592844
0.675911
0.756022
0.832329
0.903371
0.968248
1.02604
1.07634
1.11916
1.15481