/*--------------------------------*- C++ -*----------------------------------*\
| =========                 |                                                 |
| \\      /  F ield         | OpenFOAM: The Open Source CFD Toolbox           |
|  \\    /   O peration     | Version:  2012                                  |
|   \\  /    A nd           | Website:  www.openfoam.com                      |
|    \\/     M anipulation  |                                                 |
\*---------------------------------------------------------------------------*/
FoamFile
{
    version     2.0;
    format      ascii;
    class       volVectorField;
    location    "0.23";
    object      U;
}
// * * * * * * * * * * * * * * * * * * * * * * * * * * * * * * * * * * * * * //

dimensions      [0 1 -1 0 0 0 0];


internalField   nonuniform List<vector> 
42400
(
(-4.50915 3.84214 -1.4809e-17)
(-3.15554 4.15368 -2.24035e-17)
(4.251 -1.82982 2.26376e-17)
(11.0652 -3.09951 0)
(18.3443 -3.06226 0)
(36.877 -11.4359 4.87209e-19)
(64.425 -27.5583 0)
(81.9079 -35.9166 -4.73665e-19)
(73.8906 -25.001 0)
(45.2781 -1.03929 -4.37686e-19)
(13.9798 20.76 -4.26484e-19)
(-6.8351 30.6719 4.24129e-19)
(-16.2814 29.3933 4.51894e-17)
(-20.1645 22.9636 -4.61622e-17)
(-23.1262 16.2703 4.31539e-19)
(-26.4156 10.9293 0)
(-29.5595 6.68861 0)
(-32.0155 3.08992 0)
(-33.7456 0.130061 0)
(-34.9087 -2.00436 0)
(-35.49 -3.47944 0)
(-35.2045 -4.76517 6.90395e-19)
(-33.946 -6.13893 4.34948e-17)
(-32.008 -7.47071 -4.75066e-18)
(-29.8388 -8.46381 -3.87057e-17)
(-27.6783 -8.90781 4.43431e-19)
(-25.5997 -8.74297 3.83032e-19)
(-23.5695 -8.02229 -6.5123e-19)
(-21.5747 -6.88658 0)
(-19.5857 -5.49587 0)
(-17.6041 -3.99881 -1.11636e-17)
(-15.6628 -2.51788 1.12667e-17)
(-13.8064 -1.14028 -2.2588e-19)
(-12.079 0.0805591 5.41754e-18)
(-10.5141 1.122 -5.32537e-18)
(-9.13688 1.98418 0)
(-7.9519 2.68347 0)
(-6.94439 3.24472 0)
(-6.0803 3.6962 0)
(-5.32776 4.05721 1.00465e-18)
(-4.65165 4.3413 -1.00764e-18)
(-4.02195 4.55736 4.8538e-19)
(-3.41577 4.71105 -1.85359e-19)
(-2.81676 4.80605 -4.51249e-19)
(-2.21517 4.84391 1.61902e-19)
(-1.60782 4.82384 8.64062e-20)
(-0.998363 4.74316 -3.04604e-19)
(-0.397839 4.59837 1.82971e-19)
(0.174735 4.38722 4.66724e-20)
(0.692286 4.11122 -5.2378e-19)
(1.12098 3.77803 1.14088e-18)
(1.42409 3.40199 2.18352e-19)
(1.56963 3.00158 -8.35219e-19)
(1.54103 2.59333 1.30209e-19)
(1.34805 2.1854 0)
(1.02961 1.77464 0)
(0.643785 1.34642 0)
(0.252185 0.879899 -1.37121e-19)
(-0.0893057 0.37544 -1.35235e-19)
(-0.347893 -0.141154 0)
(-0.517242 -0.635947 -2.07096e-18)
(-0.605757 -1.07991 2.16139e-18)
(-0.631614 -1.45936 1.94356e-18)
(-0.609764 -1.76917 -1.90776e-18)
(-0.552862 -2.01111 0)
(-0.47206 -2.19071 0)
(-0.376192 -2.31416 1.69099e-18)
(-0.271536 -2.38709 -1.65315e-18)
(-0.161911 -2.41467 -1.961e-19)
(-0.0490406 -2.40182 0)
(0.0671932 -2.35353 0)
(0.188553 -2.27518 -1.76884e-19)
(0.318345 -2.17267 -1.70349e-19)
(0.461374 -2.05262 0)
(0.623928 -1.92259 -1.56789e-19)
(0.813974 -1.79124 -1.18717e-18)
(1.04223 -1.66796 1.15139e-18)
(1.32343 -1.5626 2.70682e-19)
(1.66948 -1.49244 1.01703e-18)
(2.06868 -1.49068 9.50635e-19)
(-0.236795 1.12078 0)
(3.7881 7.50097 -1.11187e-16)
(6.66873 3.31977 1.14321e-16)
(18.2448 -0.101413 0)
(26.1504 -5.42665 0)
(28.5581 -5.30635 -9.23311e-17)
(22.8532 0.27231 9.38125e-17)
(9.59182 10.5416 4.74988e-19)
(-6.16819 22.6095 0)
(-18.7331 33.4523 4.36781e-19)
(-24.9748 41.2268 4.24718e-19)
(-24.6495 45.0048 6.59802e-17)
(-19.3849 44.889 -5.28037e-18)
(-11.4535 41.8488 -6.40509e-17)
(-2.84925 37.2205 -5.61737e-17)
(4.99388 32.2903 5.65495e-17)
(11.2925 27.8992 0)
(15.7815 24.3449 -2.40026e-19)
(18.442 21.6454 0)
(19.5075 19.7033 0)
(19.3383 18.3217 0)
(18.3583 17.2312 3.53137e-17)
(16.9707 16.1554 -4.24704e-18)
(15.4926 14.8659 -3.41428e-17)
(14.1384 13.2486 0)
(13.007 11.3253 -3.10038e-19)
(12.0899 9.23082 -3.78401e-19)
(11.3264 7.16061 6.43892e-19)
(10.6162 5.29935 1.44019e-17)
(9.89938 3.7948 -1.45675e-17)
(9.13905 2.736 9.34815e-20)
(8.32305 2.15159 6.61048e-20)
(7.45825 2.01949 5.96736e-18)
(6.56673 2.27816 -5.83466e-18)
(5.67705 2.82622 -3.29139e-18)
(4.81163 3.54962 3.17501e-18)
(3.99793 4.34449 0)
(3.2549 5.12388 2.36193e-20)
(2.60251 5.81514 0)
(2.04984 6.36828 6.29242e-20)
(1.60352 6.75786 -1.04331e-19)
(1.25844 6.97727 1.72131e-19)
(0.998435 7.03557 -2.99034e-21)
(0.797057 6.9518 1.29991e-20)
(0.620808 6.7508 5.4973e-20)
(0.43324 6.45899 2.88428e-20)
(0.200099 6.1005 -3.54083e-20)
(-0.104722 5.69391 -1.0408e-18)
(-0.493396 5.25014 1.03188e-18)
(-0.960012 4.77212 0)
(-1.47968 4.257 -8.07714e-20)
(-2.01207 3.70066 -1.19391e-19)
(-2.50864 3.10326 -1.12306e-18)
(-2.92222 2.47278 1.10791e-18)
(-3.21612 1.82463 1.48861e-19)
(-3.36935 1.17803 -2.2219e-18)
(-3.37795 0.550769 2.47739e-18)
(-3.25522 -0.042632 1.3759e-19)
(-3.02854 -0.589508 1.35638e-19)
(-2.73061 -1.08062 -2.08368e-18)
(-2.39355 -1.50853 2.05105e-18)
(-2.04091 -1.86798 -1.24421e-19)
(-1.68862 -2.15756 -1.1116e-19)
(-1.34666 -2.38081 0)
(-1.02024 -2.54329 1.53664e-18)
(-0.710872 -2.65057 -1.74455e-20)
(-0.418131 -2.70799 -1.85661e-18)
(-0.140633 -2.72048 0)
(0.12361 -2.69254 3.86877e-19)
(0.377082 -2.62849 -1.86043e-19)
(0.622844 -2.53278 -1.45555e-18)
(0.864745 -2.41033 1.5944e-18)
(1.10765 -2.26658 1.52582e-18)
(1.35758 -2.10761 -1.48164e-18)
(1.62181 -1.94006 3.13791e-19)
(1.9089 -1.77112 -1.1866e-18)
(2.22947 -1.60807 8.6583e-19)
(2.59693 -1.45967 -2.70501e-19)
(3.01862 -1.35271 1.25666e-18)
(3.47697 -1.36344 -9.89609e-19)
(12.6184 -11.5326 -1.6995e-17)
(23.8535 -20.6752 2.10694e-19)
(19.7889 -18.2809 -1.13056e-19)
(12.7191 -11.8265 2.24478e-19)
(9.55126 -9.00978 0)
(9.02976 -7.60837 -5.15732e-17)
(10.1506 -6.83079 1.03018e-16)
(12.5242 -6.10503 -5.1423e-17)
(14.9784 -4.58225 4.39925e-17)
(16.1863 -1.9979 -5.55663e-18)
(16.2961 0.200761 -3.95998e-17)
(15.5909 1.11382 1.3637e-19)
(13.7584 1.71377 1.3646e-19)
(10.5739 3.1771 2.43151e-17)
(6.36048 5.89442 -2.4811e-17)
(1.59111 9.6403 7.83137e-19)
(-3.34462 13.956 -1.93549e-17)
(-8.15907 18.457 1.04025e-18)
(-12.5832 22.8547 1.71979e-17)
(-16.3621 26.8699 8.70144e-19)
(-19.2806 30.2585 -8.0911e-19)
(-21.205 32.8702 -7.45514e-19)
(-22.1098 34.6572 0)
(-22.0733 35.646 7.73351e-19)
(-21.2509 35.886 9.15552e-18)
(-19.8168 35.4267 -1.69868e-17)
(-17.9258 34.3136 8.1729e-18)
(-15.7076 32.5936 -6.18708e-18)
(-13.2762 30.3395 6.26941e-18)
(-10.7481 27.6606 5.41148e-18)
(-8.24944 24.7124 -9.43259e-18)
(-5.91057 21.6922 -2.09464e-20)
(-3.8671 18.8013 4.43296e-18)
(-2.23897 16.21 0)
(-1.08971 14.0326 0)
(-0.422104 12.317 7.52953e-21)
(-0.185886 11.0363 0)
(-0.293032 10.1135 1.04618e-19)
(-0.636956 9.44248 -2.35043e-18)
(-1.12075 8.92335 4.66832e-18)
(-1.67267 8.47597 -2.257e-18)
(-2.24873 8.04498 0)
(-2.82845 7.59729 0)
(-3.40627 7.11752 -1.73783e-18)
(-3.98217 6.60212 1.66177e-18)
(-4.55353 6.05388 1.0267e-19)
(-5.10995 5.47787 0)
(-5.63185 4.87905 0)
(-6.09242 4.26158 -1.45113e-18)
(-6.46205 3.62895 1.44489e-18)
(-6.71354 2.9846 8.1155e-20)
(-6.82684 2.33279 0)
(-6.79212 1.67952 1.3901e-18)
(-6.61065 1.03308 -1.2418e-18)
(-6.29353 0.404017 2.14181e-18)
(-5.85906 -0.195531 -2.29559e-18)
(-5.32996 -0.753004 1.94337e-18)
(-4.73113 -1.25662 -4.04308e-18)
(-4.08812 -1.69625 3.86255e-18)
(-3.42511 -2.06407 -4.54913e-20)
(-2.76329 -2.35494 -1.7995e-18)
(-2.11957 -2.56931 -1.71408e-18)
(-1.50611 -2.71059 1.79447e-18)
(-0.929733 -2.78468 0)
(-0.39363 -2.80009 -1.39683e-18)
(0.102397 -2.76595 -6.89036e-21)
(0.560882 -2.69056 1.93036e-18)
(0.985584 -2.58056 0)
(1.38063 -2.44102 -3.73124e-19)
(1.75009 -2.27601 -1.28461e-18)
(2.09802 -2.08957 1.2556e-18)
(2.42881 -1.88661 0)
(2.7478 -1.67333 0)
(3.06164 -1.45725 1.63581e-19)
(3.37846 -1.2467 -1.56861e-19)
(3.70762 -1.04995 -8.8489e-19)
(4.05946 -0.874008 1.43549e-18)
(4.44466 -0.724663 0)
(4.8692 -0.614665 -2.53836e-19)
(5.24745 -0.645299 -9.64491e-19)
(11.7438 -9.22537 -3.74308e-17)
(29.8634 -22.0948 5.71414e-17)
(40.0297 -29.9263 -2.9625e-17)
(50.1494 -34.6865 -3.21752e-17)
(61.6019 -39.7456 3.29892e-17)
(73.3878 -43.9722 0)
(82.5935 -45.6883 -7.51094e-17)
(83.1807 -40.5936 7.62044e-17)
(68.5438 -23.6337 -8.40811e-17)
(38.8573 4.70199 8.59352e-17)
(4.6028 35.0066 -9.92998e-17)
(-21.0644 55.9847 2.08466e-16)
(-31.9357 63.3458 -2.2182e-16)
(-30.3755 60.2289 2.31266e-16)
(-22.7798 52.3488 -2.35172e-16)
(-14.6092 44.0823 1.18553e-16)
(-8.3211 37.3542 1.12239e-16)
(-4.06681 32.319 -2.1868e-16)
(-1.20611 28.5581 1.08315e-16)
(0.769 25.6888 -8.88315e-19)
(2.08006 23.5119 4.27785e-19)
(2.81531 21.9406 8.06917e-17)
(3.0616 20.9114 -8.07621e-17)
(2.93012 20.3377 -6.24872e-19)
(2.53952 20.1153 0)
(2.00147 20.1412 -4.94283e-19)
(1.39852 20.2778 0)
(0.788619 20.3405 -3.78609e-17)
(0.219218 20.1444 6.30934e-18)
(-0.275095 19.5646 3.20227e-17)
(-0.689504 18.5717 2.21073e-17)
(-1.06638 17.2155 -2.19682e-17)
(-1.46522 15.6174 -1.14857e-19)
(-1.93896 13.9351 1.75095e-19)
(-2.52095 12.3158 9.47171e-18)
(-3.21583 10.8589 -9.68194e-18)
(-4.00468 9.61626 0)
(-4.84984 8.59489 -5.21235e-18)
(-5.71086 7.76885 5.11144e-18)
(-6.55189 7.09714 -1.90021e-19)
(-7.34586 6.53503 1.37571e-19)
(-8.074 6.04219 0)
(-8.72372 5.58624 0)
(-9.28599 5.14333 0)
(-9.75286 4.6972 8.6284e-20)
(-10.1159 4.23744 -1.69011e-18)
(-10.3654 3.75789 1.58427e-18)
(-10.4914 3.25535 0)
(-10.4844 2.72884 0)
(-10.3374 2.17924 -1.14284e-18)
(-10.047 1.60927 1.09072e-18)
(-9.61498 1.0237 -9.74556e-19)
(-9.04836 0.429623 7.5827e-19)
(-8.35946 -0.163281 -6.20162e-20)
(-7.56503 -0.742593 7.11633e-19)
(-6.68501 -1.29314 -8.73262e-19)
(-5.7417 -1.7982 1.3488e-18)
(-4.75955 -2.24107 -1.28746e-18)
(-3.76411 -2.60676 0)
(-2.77817 -2.8839 4.67545e-20)
(-1.82864 -3.06773 1.26403e-18)
(-0.93672 -3.15539 -1.24987e-20)
(-0.113908 -3.14791 -2.64092e-18)
(0.633303 -3.05657 2.57369e-18)
(1.30494 -2.89821 -1.17682e-18)
(1.90671 -2.69152 -1.40765e-18)
(2.44771 -2.45337 1.02993e-18)
(2.93778 -2.19629 1.6755e-19)
(3.38545 -1.92753 1.44791e-18)
(3.79697 -1.65009 -1.40119e-18)
(4.17644 -1.36502 3.49771e-19)
(4.527 -1.07397 1.55662e-18)
(4.85243 -0.781161 -1.34804e-18)
(5.15854 -0.494169 0)
(5.45383 -0.223323 1.25894e-18)
(5.74907 0.0198208 -3.19001e-19)
(6.05649 0.224943 -2.60844e-18)
(6.38494 0.380799 1.11112e-18)
(6.76037 0.499712 -1.03078e-18)
(7.04269 0.435443 1.00136e-18)
(-9.0024 4.35058 -3.57669e-17)
(-10.5236 0.689117 0)
(3.09689 -12.0982 0)
(19.3192 -30.3333 -1.87793e-19)
(32.2974 -46.5024 0)
(40.9245 -62.3365 0)
(45.4899 -77.3595 0)
(46.0781 -90.3424 8.83137e-19)
(41.9699 -98.5051 0)
(32.2752 -98.8083 -3.73268e-19)
(18.4785 -91.7413 -1.91868e-17)
(5.15183 -81.8922 2.75681e-17)
(-3.63214 -73.4374 -9.48734e-18)
(-6.8096 -67.5947 0)
(-5.68747 -63.934 4.05337e-19)
(-2.30467 -61.5351 -7.27869e-19)
(1.59793 -59.3048 0)
(4.85002 -56.417 3.50853e-17)
(6.88376 -52.4392 -7.43743e-17)
(7.66316 -47.3635 -1.29139e-18)
(7.55406 -41.5475 4.03443e-17)
(7.11155 -35.5252 -3.42638e-19)
(6.83438 -29.7691 0)
(6.96797 -24.5227 -3.23681e-17)
(7.36393 -19.7316 3.37803e-17)
(7.45522 -15.0828 -2.55746e-17)
(6.51713 -10.2248 2.62945e-17)
(4.14595 -5.01628 1.71623e-17)
(0.527448 0.352527 -1.75637e-17)
(-3.66132 5.36655 0)
(-7.56236 9.44904 -6.91065e-18)
(-10.5424 12.2442 6.98802e-18)
(-12.3843 13.7109 -1.98858e-19)
(-13.2294 14.048 -1.43864e-18)
(-13.392 13.5726 1.27476e-18)
(-13.1922 12.6025 2.40027e-19)
(-12.8814 11.398 -7.93328e-20)
(-12.6145 10.1411 1.04801e-18)
(-12.4603 8.94102 -1.05399e-18)
(-12.4249 7.84865 -1.23443e-18)
(-12.4779 6.87723 -1.13135e-19)
(-12.5739 6.01999 1.16416e-18)
(-12.6679 5.26181 0)
(-12.7223 4.58598 4.8942e-21)
(-12.7079 3.97653 7.91304e-19)
(-12.6033 3.41877 -1.66769e-18)
(-12.393 2.89911 1.4745e-18)
(-12.0662 2.40509 -6.81866e-19)
(-11.6166 1.92566 0)
(-11.0412 1.45161 -4.13544e-21)
(-10.341 0.976123 3.68001e-19)
(-9.52049 0.49534 -3.21591e-19)
(-8.58767 0.00883445 8.03482e-20)
(-7.5541 -0.479871 1.8722e-19)
(-6.43488 -0.963059 -7.37655e-20)
(-5.2491 -1.4295 4.36727e-20)
(-4.02007 -1.86508 1.93473e-20)
(-2.77444 -2.25266 -1.26084e-19)
(-1.54362 -2.5746 2.00405e-19)
(-0.356562 -2.81352 -2.4403e-19)
(0.760051 -2.95079 0)
(1.77979 -2.97565 5.60059e-20)
(2.68153 -2.89107 8.05296e-19)
(3.45737 -2.70759 -6.49141e-19)
(4.11221 -2.44474 -2.5503e-19)
(4.66156 -2.12856 0)
(5.12724 -1.78577 -1.22056e-18)
(5.53149 -1.43824 1.04568e-18)
(5.89185 -1.09934 1.70519e-19)
(6.21856 -0.773473 1.64963e-19)
(6.515 -0.458719 -3.39891e-19)
(6.7805 -0.151067 -2.19889e-21)
(7.01431 0.151416 1.51334e-18)
(7.21923 0.445953 -1.30824e-18)
(7.40344 0.724628 1.61652e-19)
(7.58002 0.975577 0)
(7.76593 1.18773 1.47906e-18)
(7.971 1.3426 -1.14899e-18)
(8.23145 1.46518 0)
(8.42874 1.42325 1.03995e-18)
(3.84561 -1.28565 -2.44672e-19)
(19.7952 -9.73355 -8.28576e-17)
(30.1941 -20.3681 8.26476e-17)
(18.2853 -17.0047 -1.66628e-16)
(-9.01017 -5.25201 8.42546e-17)
(-32.2967 4.67786 7.26516e-19)
(-42.8419 7.46134 7.55973e-17)
(-42.5542 4.48392 -7.84707e-17)
(-37.2044 -0.644373 -5.92847e-19)
(-31.186 -5.03531 -1.61205e-19)
(-26.2061 -7.43365 -5.81186e-17)
(-22.1336 -7.96237 -4.66219e-17)
(-18.4848 -7.29773 1.08443e-16)
(-15.0956 -6.10877 -8.58164e-17)
(-12.0999 -4.82107 1.62728e-16)
(-9.68478 -3.68106 -7.71882e-17)
(-7.93438 -2.86512 0)
(-6.75565 -2.51679 0)
(-5.92958 -2.71394 4.69196e-17)
(-5.28697 -3.37442 -5.63239e-18)
(-4.87126 -4.19827 -4.10083e-17)
(-4.95829 -4.79247 3.17415e-17)
(-5.84095 -4.91883 -6.08324e-17)
(-7.52078 -4.66608 2.85449e-17)
(-9.68818 -4.34586 2.35833e-17)
(-12.0126 -4.19125 -2.12746e-18)
(-14.3413 -4.188 -2.29042e-17)
(-16.6245 -4.14134 2.34772e-19)
(-18.7633 -3.85946 -2.23168e-19)
(-20.5675 -3.30338 4.18241e-19)
(-21.837 -2.55299 0)
(-22.5 -1.71597 1.1832e-17)
(-22.6204 -0.880605 -2.2518e-17)
(-22.339 -0.104883 1.06253e-17)
(-21.8061 0.579614 0)
(-21.143 1.16039 -6.44492e-18)
(-20.4291 1.63778 6.45967e-18)
(-19.707 2.02101 0)
(-18.9923 2.32337 0)
(-18.2853 2.5591 -2.76726e-18)
(-17.5792 2.74158 2.80571e-18)
(-16.8656 2.88185 -1.1026e-19)
(-16.1369 2.98823 0)
(-15.3863 3.06629 1.02972e-18)
(-14.6075 3.11893 -2.4438e-19)
(-13.7936 3.14646 -7.82904e-19)
(-12.9369 3.14691 -3.8682e-20)
(-12.029 3.11653 2.32336e-20)
(-11.0617 3.05052 0)
(-10.0272 2.94394 -3.16578e-19)
(-8.92032 2.79265 6.65145e-19)
(-7.73861 2.59409 -3.42309e-19)
(-6.48391 2.3482 -9.56539e-21)
(-5.16275 2.05768 -4.01446e-19)
(-3.78694 1.72831 7.41534e-21)
(-2.37237 1.3695 7.74408e-19)
(-0.943216 0.993907 -3.22704e-19)
(0.470388 0.618468 0)
(1.83736 0.263781 0)
(3.12421 -0.0486659 1.06903e-20)
(4.2954 -0.299195 -2.08474e-21)
(5.31963 -0.471609 0)
(6.17351 -0.55429 -4.18336e-19)
(6.84757 -0.544002 3.9799e-19)
(7.35058 -0.448562 9.626e-19)
(7.70853 -0.286445 3.00696e-19)
(7.95843 -0.082807 -8.46103e-19)
(8.13869 0.136967 1.22227e-18)
(8.27988 0.35345 -1.19359e-18)
(8.39937 0.556474 3.74157e-21)
(8.50158 0.744608 -1.18538e-18)
(8.58292 0.921756 1.14934e-18)
(8.63905 1.09273 1.18605e-18)
(8.67111 1.25959 -1.48626e-18)
(8.68881 1.4199 1.14659e-18)
(8.70945 1.56677 -1.26988e-18)
(8.75425 1.69224 1.23546e-18)
(8.8399 1.78352 -2.39203e-18)
(8.9873 1.84868 4.3763e-21)
(9.14236 1.83916 5.73631e-21)
(-28.442 15.4239 1.9121e-17)
(-85.7251 54.4756 4.21512e-19)
(-130.571 73.0803 -2.09545e-17)
(-137.896 78.2595 3.78702e-17)
(-121.747 65.4432 -1.72315e-17)
(-93.0306 47.6817 9.40263e-18)
(-61.4999 29.1308 -2.49992e-18)
(-33.4661 12.8237 -8.12759e-18)
(-11.7249 0.0636734 3.70535e-18)
(3.88738 -9.28348 -3.26492e-18)
(14.7274 -15.9373 -1.10156e-19)
(22.1018 -20.5832 -1.18214e-19)
(26.8746 -23.6951 -2.86219e-18)
(29.5662 -25.584 3.2393e-18)
(30.5115 -26.4497 2.79381e-19)
(29.9078 -26.4635 2.41342e-19)
(27.8448 -25.879 -8.13218e-18)
(24.6624 -24.9674 8.27421e-18)
(21.2281 -24.3044 -3.31233e-19)
(18.4384 -24.5208 -1.88406e-19)
(16.4564 -25.402 -1.09865e-18)
(14.5668 -26.0683 8.48039e-19)
(11.8573 -25.7659 0)
(7.98931 -24.2947 3.92822e-20)
(3.32936 -21.9845 0)
(-1.4783 -19.3396 0)
(-5.91012 -16.6959 -3.81608e-20)
(-9.68279 -14.219 -1.0279e-17)
(-12.6956 -12.0108 1.04494e-17)
(-14.9229 -10.1149 9.51121e-18)
(-16.3989 -8.53567 -1.00414e-17)
(-17.2382 -7.24254 3.49184e-19)
(-17.6034 -6.17818 -3.12906e-19)
(-17.6547 -5.28085 0)
(-17.5112 -4.50107 -1.49794e-19)
(-17.2419 -3.80629 0)
(-16.8776 -3.17615 0)
(-16.4298 -2.59573 -1.13249e-19)
(-15.9029 -2.05174 0)
(-15.3009 -1.53118 0)
(-14.6285 -1.02243 2.61921e-18)
(-13.8906 -0.516486 -2.49039e-18)
(-13.0913 -0.00807975 0)
(-12.2337 0.504257 0)
(-11.3205 1.01773 0)
(-10.3529 1.52552 -4.41494e-20)
(-9.33163 2.01706 3.86107e-20)
(-8.25713 2.48013 4.61921e-19)
(-7.12982 2.90206 -4.8975e-19)
(-5.95143 3.27066 3.28717e-19)
(-4.72575 3.57532 -3.48343e-19)
(-3.45884 3.80829 1.85128e-20)
(-2.16027 3.96453 -2.48928e-21)
(-0.843116 4.0411 0)
(0.477322 4.03623 0)
(1.7852 3.9584 -2.38734e-19)
(3.06115 3.82236 4.66165e-21)
(4.28749 3.64395 1.79459e-19)
(5.43559 3.43144 -4.1957e-20)
(6.47537 3.1966 -6.66048e-21)
(7.37937 2.95534 -3.02935e-19)
(8.12336 2.72308 -2.13445e-19)
(8.69153 2.51353 1.15441e-18)
(9.08245 2.33686 -7.00433e-19)
(9.31258 2.19775 -7.82384e-20)
(9.41469 2.09434 -1.27382e-19)
(9.43028 2.01909 -1.27424e-18)
(9.39875 1.96179 2.59101e-18)
(9.34783 1.91323 -1.31398e-18)
(9.28968 1.86797 -1.68151e-19)
(9.22417 1.825 -1.43484e-18)
(9.14692 1.78658 1.58415e-18)
(9.05797 1.75613 0)
(8.96681 1.73619 1.70129e-19)
(8.89201 1.72701 0)
(8.85627 1.72636 -1.3404e-18)
(8.87851 1.72959 -2.746e-21)
(8.96886 1.73192 1.26316e-18)
(9.12228 1.7276 -9.06968e-19)
(9.3101 1.7145 -2.95122e-19)
(-3.56857 0.411004 4.90877e-17)
(-11.3428 4.29132 -7.35122e-17)
(-17.0969 11.4908 -1.68449e-19)
(-21.1737 17.0369 -7.01793e-17)
(-21.9673 23.3816 7.13953e-17)
(-20.2281 29.1428 -6.17019e-17)
(-15.7923 33.6248 1.18044e-16)
(-8.11214 36.1741 -5.56997e-17)
(1.91491 35.8988 4.06875e-17)
(12.0371 33.2254 -4.092e-17)
(19.4869 28.9626 0)
(22.899 24.0272 -6.58665e-20)
(22.8358 19.1615 2.70436e-19)
(20.5609 14.6328 0)
(17.144 10.7928 0)
(12.8623 7.98416 0)
(5.85976 6.21374 0)
(-4.02106 7.20264 -1.66195e-19)
(-12.2454 10.184 0)
(-16.1225 10.8359 9.48381e-18)
(-16.9463 8.70388 -9.32458e-18)
(-16.4319 5.96703 -1.37484e-17)
(-15.6728 3.4182 1.41083e-17)
(-15.1988 1.09953 9.40571e-18)
(-15.0808 -0.867882 -9.68476e-18)
(-15.2176 -2.42349 5.65929e-18)
(-15.4755 -3.58283 -5.70008e-18)
(-15.7149 -4.35879 2.46132e-18)
(-15.8523 -4.77625 -1.30482e-18)
(-15.8661 -4.87573 -1.28057e-18)
(-15.7628 -4.7233 0)
(-15.5601 -4.39619 4.60694e-20)
(-15.2697 -3.95944 5.92217e-20)
(-14.8898 -3.46439 0)
(-14.4114 -2.94341 1.50333e-19)
(-13.8266 -2.40923 0)
(-13.1317 -1.86907 0)
(-12.3309 -1.32436 2.44552e-18)
(-11.4345 -0.774949 -4.41682e-18)
(-10.4574 -0.221295 2.14008e-18)
(-9.42042 0.340099 1.58669e-18)
(-8.34436 0.905896 -1.63072e-18)
(-7.25002 1.47354 -2.41935e-20)
(-6.15744 2.04146 0)
(-5.08696 2.60737 6.1456e-19)
(-4.05455 3.16858 -5.52009e-19)
(-3.06996 3.72003 0)
(-2.13623 4.25283 0)
(-1.24893 4.75459 5.19018e-20)
(-0.396901 5.21014 -1.09e-19)
(0.435125 5.60302 -2.93867e-19)
(1.26333 5.91789 2.57611e-19)
(2.10052 6.14245 3.70181e-19)
(2.95192 6.26706 -7.70165e-19)
(3.82043 6.29653 4.01733e-19)
(4.70099 6.23029 1.10053e-19)
(5.56532 6.05929 0)
(6.38721 5.79129 -9.92842e-20)
(7.14282 5.45 4.78316e-19)
(7.80286 5.05824 -1.15217e-18)
(8.33829 4.63635 6.0939e-19)
(8.72972 4.20704 0)
(8.97323 3.79177 6.34782e-20)
(9.08393 3.40731 0)
(9.09383 3.0634 7.82088e-20)
(9.04264 2.76244 1.08885e-19)
(8.96543 2.5015 2.17726e-19)
(8.88346 2.27546 1.62428e-18)
(8.8029 2.07967 -1.37197e-18)
(8.72107 1.91121 2.1225e-19)
(8.63618 1.7689 1.59389e-18)
(8.55499 1.65258 -1.9441e-18)
(8.49421 1.56222 1.53919e-18)
(8.47533 1.49713 -1.49698e-18)
(8.5161 1.45533 1.65586e-18)
(8.62332 1.4333 -1.23937e-18)
(8.78997 1.42578 -1.38107e-18)
(8.99754 1.42657 1.33868e-18)
(9.21821 1.42971 -3.14378e-19)
(9.42679 1.42298 3.01748e-19)
(2.7111 -0.992148 2.27117e-17)
(9.99889 -1.78554 3.12873e-17)
(12.9884 -8.25627 -6.03509e-17)
(24.6385 -14.7933 5.456e-17)
(49.1702 -29.5053 -2.57132e-17)
(82.9736 -46.4626 1.93756e-19)
(108.394 -57.5296 6.34262e-18)
(108.356 -55.7997 -6.52623e-18)
(78.9933 -41.0849 4.43038e-18)
(33.6318 -20.1657 -4.78792e-18)
(-7.46019 -2.06774 -2.20708e-19)
(-32.808 7.86438 1.02141e-17)
(-43.5457 9.91234 -1.04216e-17)
(-45.4996 7.09198 9.90408e-18)
(-42.6408 1.9154 -1.01192e-17)
(-36.4858 -4.15487 -8.26071e-18)
(-28.0998 -10.1136 8.43146e-18)
(-19.5933 -15.4779 1.70758e-19)
(-13.4841 -19.8205 0)
(-10.6628 -21.846 5.06534e-18)
(-10.098 -21.6672 -5.21094e-18)
(-10.6688 -20.9644 8.55903e-20)
(-11.7245 -20.321 -2.63341e-18)
(-12.8634 -19.579 2.578e-18)
(-13.8672 -18.7949 2.03298e-19)
(-14.5883 -18.1067 0)
(-14.9106 -17.5504 -1.40657e-19)
(-14.8293 -17.0644 -1.28812e-19)
(-14.4848 -16.5434 -8.06165e-19)
(-14.0951 -15.9473 9.79084e-19)
(-13.7912 -15.2591 1.70804e-18)
(-13.5659 -14.4423 -1.60846e-18)
(-13.3466 -13.5309 2.39128e-19)
(-13.0474 -12.5902 -2.5189e-18)
(-12.6128 -11.6632 4.47098e-18)
(-12.0331 -10.761 -2.22535e-18)
(-11.325 -9.87318 -1.69028e-18)
(-10.5164 -8.98353 1.88769e-18)
(-9.63741 -8.08702 7.39047e-20)
(-8.71774 -7.18881 -1.06564e-19)
(-7.78618 -6.29029 4.17125e-20)
(-6.86319 -5.39804 -4.71705e-19)
(-5.96407 -4.51801 2.8696e-19)
(-5.0966 -3.65555 2.09288e-19)
(-4.26365 -2.81704 2.29243e-19)
(-3.46426 -2.00901 -2.46349e-19)
(-2.69306 -1.23871 0)
(-1.94191 -0.51342 -7.7043e-19)
(-1.20113 0.159945 7.58487e-19)
(-0.46061 0.774864 -9.05738e-19)
(0.288337 1.32514 -3.66604e-20)
(1.04894 1.80634 -5.62197e-20)
(1.82052 2.21357 -4.05621e-20)
(2.59862 2.54204 -2.61496e-20)
(3.37201 2.79253 1.09037e-18)
(4.12464 2.96243 -2.08957e-20)
(4.83762 3.05917 0)
(5.48897 3.09061 1.17249e-18)
(6.06044 3.06521 -9.57011e-19)
(6.54105 2.994 0)
(6.9284 2.88874 1.16743e-18)
(7.23031 2.76009 -8.66279e-19)
(7.46307 2.61686 0)
(7.64587 2.46608 1.35731e-19)
(7.79408 2.31338 0)
(7.91502 2.16332 1.81714e-18)
(8.00889 2.01969 -3.87549e-18)
(8.07431 1.88575 1.85815e-18)
(8.11539 1.76468 -2.1511e-19)
(8.14612 1.65969 -2.12418e-19)
(8.18869 1.57375 1.75929e-18)
(8.26599 1.50888 -1.50899e-18)
(8.39243 1.46569 2.17868e-19)
(8.56829 1.44292 2.10832e-19)
(8.78019 1.43714 -3.93511e-19)
(9.00599 1.44269 -1.84094e-19)
(9.22117 1.45254 -1.65387e-18)
(9.40376 1.45855 8.37888e-21)
(9.53842 1.45828 1.54183e-18)
(9.62206 1.42929 3.34221e-19)
(-18.925 9.78034 0)
(-64.4583 30.1256 -2.44807e-19)
(-103.317 50.8301 1.06274e-19)
(-115.669 58.0643 -3.61473e-17)
(-95.9429 50.8521 7.48051e-17)
(-54.5318 29.6302 -7.73536e-17)
(-15.944 5.76183 3.96333e-17)
(0.844346 -9.5255 0)
(-1.99407 -14.2826 2.87037e-19)
(-12.1906 -12.6156 -3.76778e-17)
(-20.6035 -8.68385 3.8717e-17)
(-24.4037 -4.71879 3.28777e-17)
(-24.4699 -1.47592 -6.33235e-17)
(-22.437 0.982357 3.68448e-18)
(-19.465 2.70457 3.42086e-18)
(-16.1623 3.7483 2.41263e-17)
(-12.8219 4.31018 1.76597e-20)
(-9.97531 4.5191 -1.56895e-17)
(-8.44719 4.20931 1.59415e-17)
(-8.1908 3.20408 5.07792e-20)
(-8.38118 1.5537 4.29863e-20)
(-8.59094 -0.40663 3.54381e-20)
(-8.87757 -2.53362 -8.44952e-18)
(-9.27589 -4.86745 4.43095e-19)
(-9.63822 -7.30977 8.24918e-18)
(-9.7784 -9.78268 2.7397e-19)
(-9.54321 -12.3362 -9.58614e-18)
(-8.83784 -14.9545 1.94814e-17)
(-7.70096 -17.4553 -2.00242e-17)
(-6.34646 -19.5724 9.7484e-18)
(-5.13322 -21.1782 0)
(-4.37034 -22.2811 -1.78502e-17)
(-4.04947 -22.8723 3.36624e-17)
(-3.91645 -22.9082 -1.59701e-17)
(-3.71736 -22.4358 1.22479e-17)
(-3.34673 -21.5565 -1.30906e-17)
(-2.81046 -20.3908 -1.89205e-19)
(-2.16367 -19.0405 0)
(-1.46158 -17.5853 7.119e-20)
(-0.748147 -16.0817 -4.7633e-18)
(-0.0601588 -14.565 5.04533e-18)
(0.578388 -13.0597 -9.52743e-20)
(1.15451 -11.5844 6.78391e-20)
(1.66472 -10.1572 0)
(2.11317 -8.79227 0)
(2.50846 -7.49902 1.33673e-19)
(2.8628 -6.28419 -1.44203e-19)
(3.18934 -5.15192 3.40436e-20)
(3.50076 -4.10482 7.88704e-19)
(3.80826 -3.1448 -1.81448e-18)
(4.12035 -2.27367 8.97277e-19)
(4.44014 -1.49157 0)
(4.76833 -0.797961 -1.35836e-18)
(5.10394 -0.191698 1.26443e-18)
(5.44348 0.329138 0)
(5.78191 0.7672 -1.4267e-18)
(6.11426 1.12611 1.33387e-18)
(6.43547 1.41148 -1.33384e-18)
(6.74063 1.63118 1.13758e-18)
(7.02515 1.79448 0)
(7.28423 1.91101 -3.15101e-19)
(7.51242 1.98996 -1.40893e-19)
(7.70386 2.03935 1.21568e-18)
(7.85359 2.06573 -1.4119e-19)
(7.96021 2.07424 -1.16432e-18)
(8.02903 2.06907 0)
(8.07433 2.05389 -1.28021e-19)
(8.11835 2.03202 0)
(8.18587 2.00652 0)
(8.29594 1.98024 2.00415e-18)
(8.45477 1.95555 -1.95401e-18)
(8.65364 1.93387 -1.62792e-18)
(8.87241 1.91495 -2.02993e-19)
(9.08633 1.8967 1.54831e-18)
(9.27282 1.87569 1.88398e-18)
(9.41602 1.84818 -1.63138e-18)
(9.50874 1.81136 1.8934e-19)
(9.55187 1.76351 1.49126e-18)
(9.55388 1.70889 -3.23309e-18)
(9.52572 1.63222 1.04451e-18)
(12.2858 -4.86039 -8.10775e-17)
(32.087 -14.6525 6.07181e-17)
(41.4342 -12.5421 5.86324e-17)
(20.0857 0.815121 -6.01134e-17)
(-20.1016 24.4506 -7.68753e-20)
(-50.3701 41.1322 -6.42927e-20)
(-60.5564 45.9014 0)
(-60.3758 43.7113 -4.78011e-17)
(-58.1597 39.6198 4.89776e-17)
(-56.0856 35.6306 0)
(-53.8979 32.0598 3.60542e-17)
(-51.2343 28.7756 -6.87487e-17)
(-48.2379 25.7536 4.33011e-18)
(-45.2826 23.0641 5.35409e-17)
(-42.6583 20.8011 -2.51863e-17)
(-40.4912 18.9983 1.39773e-20)
(-38.8512 17.6321 -1.80496e-19)
(-37.9235 16.7608 0)
(-38.0178 16.511 -9.29863e-18)
(-39.2775 16.9044 9.46507e-18)
(-41.162 17.767 -8.34193e-20)
(-42.7085 18.7058 -9.17791e-20)
(-43.1982 19.3249 -1.94956e-20)
(-42.4272 19.4291 5.0085e-18)
(-40.5228 19.0143 -5.05057e-18)
(-37.703 18.1661 -2.60813e-19)
(-34.2021 17.0013 1.02185e-17)
(-30.3357 15.63 4.45461e-19)
(-26.4659 14.1404 -2.11536e-17)
(-22.8701 12.6107 7.55071e-19)
(-19.4904 11.0631 1.02816e-17)
(-15.9112 9.41429 8.60129e-18)
(-11.7261 7.54528 -8.75048e-18)
(-6.99348 5.52367 0)
(-2.25799 3.58632 3.98516e-19)
(1.84787 1.9495 3.43717e-19)
(4.97229 0.713282 0)
(7.10108 -0.180939 6.61143e-18)
(8.41892 -0.809427 -6.85268e-18)
(9.15873 -1.28055 -1.60957e-19)
(9.50421 -1.61443 0)
(9.5704 -1.82836 9.41749e-20)
(9.43592 -1.93588 1.52043e-18)
(9.16629 -1.94468 -1.61566e-18)
(8.82052 -1.86334 0)
(8.44825 -1.70291 -4.76938e-20)
(8.08866 -1.47549 2.26418e-20)
(7.76825 -1.19291 0)
(7.50355 -0.868547 0)
(7.30405 -0.51624 5.80094e-20)
(7.17296 -0.149123 6.82066e-20)
(7.10791 0.220861 0)
(7.10208 0.583002 -1.33293e-18)
(7.14615 0.92741 1.40161e-18)
(7.23009 1.24497 1.51876e-18)
(7.34435 1.52817 -6.74916e-20)
(7.47993 1.77255 -3.06836e-18)
(7.62749 1.97755 3.06632e-18)
(7.77633 2.14614 1.82794e-19)
(7.91441 2.28321 -1.29765e-18)
(8.02997 2.39344 1.71587e-19)
(8.11461 2.47976 0)
(8.16678 2.54308 0)
(8.19363 2.58333 -1.36074e-18)
(8.2104 2.60082 1.51098e-18)
(8.2366 2.59731 0)
(8.29031 2.57633 -1.64408e-19)
(8.38231 2.54247 0)
(8.51278 2.50024 -1.14694e-18)
(8.67152 2.45281 1.11926e-18)
(8.84154 2.40141 -2.79159e-19)
(9.0042 2.3457 -2.28524e-18)
(9.14392 2.28462 1.98497e-18)
(9.25117 2.21751 -2.44532e-19)
(9.32321 2.14468 0)
(9.3631 2.06764 0)
(9.37761 1.98876 0)
(9.37479 1.91063 1.77628e-18)
(9.36245 1.83745 1.61764e-19)
(9.34455 1.75958 -2.87676e-18)
(0.559289 -0.149234 -6.22675e-18)
(19.9584 -9.26715 -8.73963e-18)
(51.9566 -21.3893 8.94821e-18)
(72.0695 -31.1102 -8.09521e-18)
(70.773 -30.4655 8.05373e-18)
(55.9048 -22.9321 -2.24537e-19)
(38.5992 -13.3403 -2.14627e-19)
(24.9989 -4.78985 0)
(16.3207 2.04875 -1.97951e-19)
(11.8326 7.50302 0)
(10.2306 12.036 -1.34784e-19)
(10.3656 15.7932 3.84184e-18)
(11.6812 18.6951 -4.01286e-18)
(14.2589 20.7442 -4.93768e-18)
(18.0158 22.5055 5.12102e-18)
(22.1561 24.7572 -4.29774e-18)
(25.7151 27.7146 4.33312e-18)
(28.0225 31.0477 0)
(28.7931 34.4701 0)
(28.025 37.8977 0)
(26.0171 41.3586 9.1279e-19)
(23.1064 44.8188 -1.75244e-18)
(19.6181 48.0539 -3.68311e-19)
(15.8472 50.8048 3.10218e-18)
(12.0976 52.9658 -1.80427e-18)
(8.6909 54.5059 0)
(5.95273 55.3742 -2.48954e-20)
(4.13171 55.5003 0)
(3.33123 54.8726 4.75633e-18)
(3.47245 53.5561 -4.73052e-18)
(4.3307 51.6817 1.83655e-19)
(5.59741 49.4307 0)
(6.91797 46.9354 -5.50913e-18)
(7.98232 44.2481 1.10047e-17)
(8.6223 41.4035 -5.44365e-18)
(8.82151 38.4331 4.40343e-18)
(8.68081 35.4133 -8.33521e-18)
(8.34382 32.3862 3.92483e-18)
(7.94699 29.4253 0)
(7.60223 26.5494 0)
(7.34312 23.7806 0)
(7.1989 21.1448 -1.93063e-18)
(7.17605 18.6856 5.34341e-18)
(7.28029 16.4259 -3.38766e-18)
(7.48352 14.3656 0)
(7.74538 12.5048 2.42477e-18)
(8.02718 10.852 -2.38649e-18)
(8.30419 9.42656 -2.05411e-18)
(8.56093 8.23136 1.86935e-19)
(8.78768 7.25293 4.57286e-20)
(8.97888 6.47209 1.44399e-20)
(9.12931 5.86435 1.8693e-18)
(9.23282 5.4009 0)
(9.28481 5.04949 0)
(9.2864 4.77651 1.75585e-18)
(9.24639 4.55104 -1.87971e-18)
(9.1798 4.35035 0)
(9.10233 4.16327 0)
(9.0237 3.98894 -1.23057e-19)
(8.94479 3.83156 -2.03152e-19)
(8.86042 3.6942 0)
(8.76621 3.5753 0)
(8.66463 3.46889 2.17978e-19)
(8.56638 3.36757 2.09397e-19)
(8.48696 3.26548 -1.66658e-18)
(8.44093 3.15974 2.89198e-18)
(8.43701 3.05013 1.37594e-19)
(8.47579 2.93791 -2.66293e-18)
(8.55053 2.82467 2.71624e-18)
(8.64978 2.7118 -2.43864e-18)
(8.76067 2.60057 4.53703e-19)
(8.87161 2.49227 1.12354e-18)
(8.97385 2.38842 -2.10112e-18)
(9.06195 2.2906 2.49412e-20)
(9.1333 2.2002 3.85598e-18)
(9.18736 2.11799 -2.08832e-18)
(9.2248 2.04397 0)
(9.24684 1.97734 -4.14636e-19)
(9.25491 1.91695 0)
(9.25153 1.85737 1.48464e-18)
(5.71427 0.778545 0)
(11.5558 3.1341 5.86983e-20)
(14.136 5.95123 -5.78746e-20)
(16.4138 9.0753 -6.74087e-17)
(18.2327 11.3884 1.34169e-16)
(19.5741 14.5669 -6.63535e-17)
(20.6078 18.5101 2.13453e-19)
(21.4708 22.9254 0)
(21.7859 27.5391 0)
(20.6405 32.1605 0)
(17.2122 36.2361 1.35083e-19)
(12.1577 38.2262 4.74163e-20)
(8.75704 36.4302 0)
(11.0733 30.8863 7.30274e-20)
(18.4449 23.9163 6.76002e-20)
(24.5398 18.4694 1.71384e-17)
(24.9113 16.0766 -1.72891e-17)
(20.6341 16.2525 -2.25038e-19)
(14.4134 17.6188 0)
(7.81244 19.2666 2.18409e-19)
(1.47054 20.8981 -9.08876e-20)
(-4.29387 22.3576 1.02595e-17)
(-9.21415 23.6152 -1.77654e-18)
(-13.0934 24.6525 -8.50557e-18)
(-15.8338 25.4658 -5.0892e-20)
(-17.4361 26.0837 8.61106e-20)
(-17.9818 26.5285 -1.35703e-18)
(-17.6223 26.8146 1.17456e-18)
(-16.5736 26.9528 6.59147e-20)
(-15.0977 26.9513 -1.03199e-19)
(-13.4543 26.816 -1.1708e-19)
(-11.8488 26.5508 2.25294e-18)
(-10.3997 26.156 -2.27384e-18)
(-9.13772 25.6345 -1.11119e-19)
(-8.02626 24.9921 1.16357e-19)