/*--------------------------------*- C++ -*----------------------------------*\
| =========                 |                                                 |
| \\      /  F ield         | OpenFOAM: The Open Source CFD Toolbox           |
|  \\    /   O peration     | Version:  2012                                  |
|   \\  /    A nd           | Website:  www.openfoam.com                      |
|    \\/     M anipulation  |                                                 |
\*---------------------------------------------------------------------------*/
FoamFile
{
    version     2.0;
    format      ascii;
    class       volScalarField;
    location    "0.78";
    object      p;
}
// * * * * * * * * * * * * * * * * * * * * * * * * * * * * * * * * * * * * * //

dimensions      [0 2 -2 0 0 0 0];


internalField   nonuniform List<scalar> 
42400
(
-9515.57
-8995.93
-8329.53
-7591.99
-6768.46
-5939.99
-5123.55
-4329.11
-3561.05
-2823.58
-2129.44
-1494.54
-928.914
-437.423
-23.8237
309.725
563.664
741.087
847.989
892.412
883.485
831.428
747.51
643.017
528.199
412.066
301.549
201.563
114.164
39.9232
-21.0022
-68.6922
-103.526
-125.382
-134.959
-133.916
-125.23
-111.153
-94.2755
-77.0714
-61.4117
-48.4068
-38.4763
-31.5585
-27.346
-25.4543
-25.4957
-27.091
-29.8679
-33.4484
-37.484
-41.6557
-45.6857
-49.3387
-52.4239
-54.8027
-56.3996
-57.2106
-57.2969
-56.7794
-55.8042
-54.545
-53.2191
-52.0001
-51.0324
-50.4269
-50.23
-50.4401
-51.0075
-51.8499
-52.8731
-53.9876
-55.1159
-56.1922
-57.1586
-57.958
-58.5262
-58.7838
-58.669
-58.074
11369.6
11251.2
11102.6
10860.3
10485.9
10018.8
9539.01
9125.94
8786.11
8442.95
8020
7509.65
6950.21
6376.24
5806.4
5250.19
4717.66
4216.62
3750.74
3319.4
2918.98
2545.89
2200.47
1888.28
1617.64
1395.01
1220.49
1085.22
976.13
879.262
782.652
679.646
571.198
464.17
366.873
284.766
219.04
168.208
129.681
100.606
78.3824
60.9063
46.6219
34.4475
23.6589
13.7683
4.46548
-4.43628
-13.022
-21.2947
-29.197
-36.6272
-43.45
-49.5019
-54.601
-58.567
-61.2509
-62.5679
-62.5316
-61.2591
-58.9575
-55.7835
-52.0926
-48.3392
-44.9652
-42.3272
-40.6415
-39.8899
-39.9446
-40.6091
-41.6546
-42.8997
-44.2192
-45.5259
-46.7545
-47.8446
-48.7277
-49.3227
-49.5469
-49.3826
9475.04
9320.67
9165.27
8934.49
8531.99
7900.03
7042.63
6019.8
4924.67
3868.44
2954.62
2239.49
1713.71
1337.04
1071.42
888.174
764.147
678.57
614.915
565.609
530.803
508.418
489.963
469.224
447.984
430.684
418.478
409.052
398.865
385.299
366.471
341.763
312.45
281.229
250.519
221.789
195.569
171.808
150.243
130.594
112.619
96.1253
80.9512
66.9483
53.9654
41.8461
30.4388
19.6117
9.27057
-0.627984
-10.0694
-18.9782
-27.2186
-34.6
-40.8924
-45.858
-49.2926
-51.0722
-51.1916
-49.7925
-47.1208
-43.6036
-39.6314
-35.6003
-32.1147
-29.5216
-27.929
-27.3123
-27.476
-28.1989
-29.2801
-30.5549
-31.916
-33.3052
-34.6843
-36.0119
-37.2286
-38.2452
-38.947
-39.3755
-14906.3
-14184.9
-13234.3
-12195
-11074.2
-9997.78
-8982.81
-8009.36
-7027.53
-6000.37
-4954.44
-3970.15
-3116.2
-2419.25
-1876.41
-1467.14
-1159.76
-928.102
-762.727
-658.741
-596.859
-556.458
-537.404
-543.6
-558.832
-562.507
-545.933
-510.424
-461.415
-404.945
-346.071
-288.078
-233.22
-182.831
-137.5
-97.533
-63.096
-34.1905
-10.6203
7.96303
22.0243
32.0896
38.6979
42.3707
43.5886
42.7766
40.3031
36.487
31.6112
25.9379
19.7194
13.2056
6.64736
0.294195
-5.61499
-10.8644
-15.2773
-18.735
-21.1782
-22.6047
-23.0608
-22.6483
-21.5318
-20.0191
-18.2995
-16.7391
-15.6624
-15.1817
-15.2696
-15.8076
-16.6542
-17.7019
-18.8949
-20.2103
-21.6298
-23.1178
-24.6081
-26.015
-27.1767
-28.1779
5974.41
5798.33
5549.95
5208.39
4770.44
4296.27
3809.17
3317.21
2822.66
2323.77
1820.62
1313.67
807.872
318.57
-132.948
-530.903
-868.937
-1145.56
-1358.48
-1502.41
-1577.51
-1598.47
-1584.17
-1540.17
-1459.33
-1332.74
-1165.4
-980.677
-805.94
-656.248
-533.03
-431.513
-347.143
-276.818
-218.241
-169.696
-129.703
-96.9228
-70.1562
-48.3476
-30.6353
-16.3328
-4.90009
4.08412
10.9514
15.9605
19.3104
21.1595
21.6521
20.9403
19.2022
16.6471
13.5119
10.0803
6.51674
3.00719
-0.155264
-2.85621
-5.02601
-6.63219
-7.6883
-8.24747
-8.39133
-8.22017
-7.84453
-7.38676
-6.95496
-6.6211
-6.42424
-6.3866
-6.53298
-6.89887
-7.52189
-8.42543
-9.60363
-11.0127
-12.5529
-14.1295
-15.5673
-16.9633
-1914.99
-1771.84
-1574.02
-1334.41
-1047.76
-779.465
-555.864
-383.224
-248.258
-123.196
23.6843
211.079
433.096
669.446
898.311
1092.43
1219.61
1262.58
1232.51
1157.87
1063.61
960.876
851.059
734.8
615.517
497.448
383.809
277.319
181.275
99.7657
35.6508
-10.6628
-40.9523
-58.0712
-65.609
-66.6614
-63.7033
-58.5742
-52.4963
-46.1735
-39.938
-33.9071
-28.0978
-22.4619
-16.9571
-11.5832
-6.42396
-1.66311
2.44722
5.66549
7.83857
8.94321
9.07227
8.40267
7.28879
5.99455
4.59386
3.26414
2.14789
1.30137
0.770368
0.566129
0.667362
1.02717
1.57787
2.23943
2.92823
3.5662
4.0858
4.42781
4.53674
4.3612
3.86125
3.01984
1.85307
0.416729
-1.21415
-2.91314
-4.51483
-6.14214
-6538.42
-6265.79
-5875.78
-5403.13
-4851.97
-4336.57
-3919.14
-3611.97
-3385.34
-3197.38
-3019.92
-2841.13
-2652.47
-2442.83
-2208.75
-1954.4
-1683.9
-1399.23
-1105.42
-814.77
-545.119
-313.688
-131.967
-4.24165
71.7537
103.64
102.406
79.9332
47.3956
13.2229
-17.3014
-41.6011
-58.9918
-70.2347
-76.4285
-78.8683
-78.4223
-76.3766
-73.5058
-70.0759
-66.333
-62.5422
-58.5803
-53.9895
-48.2164
-40.799
-31.7039
-21.4535
-11.0035
-1.41445
6.52396
12.4468
16.4413
18.7778
19.827
19.9499
19.4742
18.6747
17.6497
16.6845
15.8651
15.2418
14.8419
14.6637
14.6806
14.8455
15.0959
15.3603
15.5631
15.6295
15.4902
15.0884
14.3873
13.3781
12.0825
10.5537
8.87747
7.14824
5.50917
3.8186
5123.17
4747.67
4298.75
3790.58
3132.64
2381.77
1545.14
644.378
-274.101
-1149.07
-1923.55
-2560.8
-3045.05
-3376.96
-3567.34
-3630.96
-3584.6
-3447.2
-3239.24
-2981.74
-2694.99
-2396.83
-2101.5
-1819.37
-1557.56
-1319.79
-1106.94
-918.225
-751.999
-606.373
-479.67
-370.356
-277.188
-199.04
-135.136
-84.0095
-43.6615
-12.7561
9.33104
23.3944
30.5975
32.2297
29.7855
24.8563
19.017
13.9079
10.79
10.2655
12.8726
17.7788
23.4764
29.025
33.733
37.1301
39.01
39.4257
38.8602
37.8207
36.4815
34.8867
33.2608
31.7491
30.4293
29.3359
28.4679
27.7958
27.2669
26.8158
26.3698
25.8567
25.2126
24.3893
23.3578
22.1141
20.6821
19.1082
17.4593
15.8075
14.2575
12.6778
-3849.66
-3510.45
-3015.11
-2394.33
-1673.52
-963.097
-310.379
265.793
758.179
1163.03
1478.77
1707.93
1858.77
1943.37
1975.1
1965.88
1925.18
1858.67
1768.69
1655.67
1519.56
1361.53
1184.99
995.82
802.24
612.816
434.535
272.062
128.054
3.87537
-99.9744
-183.721
-248.037
-293.718
-321.401
-332.601
-329.776
-315.509
-292.773
-264.54
-233.328
-201.009
-168.668
-136.628
-104.627
-72.1634
-39.1374
-6.09878
25.1655
52.8821
75.3837
91.0797
99.5683
101.621
98.7368
92.711
85.0182
76.7387
68.8354
61.7984
55.7831
50.8026
46.7792
43.584
41.07
39.1068
37.5203
36.2011
35.0361
33.9305
32.811
31.6253
30.3453
28.9657
27.5031
25.9924
24.4807
23.0212
21.669
20.3473
9433.01
9253.98
8979.53
8619.06
8200.1
7775.3
7344.39
6901
6448.22
5993.85
5545.95
5115.77
4714.29
4347.13
4011.62
3697.42
3392.09
3087.57
2781.76
2476.27
2174.42
1881.83
1605.9
1353.29
1127.36
927.635
751.453
596.007
459.111
339.206
235.143
146.005
71.6051
11.8609
-34.0891
-67.0231
-88.1053
-99.1506
-101.6
-96.9016
-86.5534
-71.9985
-54.4604
-35.356
-15.6318
3.77608
22.0262
38.4238
52.3901
63.4456
71.262
75.8151
77.4751
76.9133
74.8823
72.0177
68.7568
65.3478
61.9448
58.6601
55.5815
52.7707
50.2595
48.0518
46.1278
44.4507
42.9642
41.619
40.3615
39.142
37.9211
36.6735
35.3893
34.0728
32.7414
31.4228
30.1488
28.9551
27.8555
26.834
1990.84
1915.97
1769.9
1614.16
1509.11
1514.58
1570.15
1593.29
1532.43
1371.98
1143.66
908.614
696.522
501.659
338.928
237.412
197.939
203.194
240.628
295.826
346.717
375.951
381.85
374.581
364.736
356.114
346.707
333.44
314.957
291.918
266.362
240.63
215.579
190.87
166.645
143.485
122.028
102.868
86.6253
73.5351
63.484
56.2123
51.429
48.805
47.9881
48.6054
50.275
52.612
55.2357
57.7824
59.9357
61.4676
62.2681
62.3468
61.8035
60.7832
59.4356
57.8911
56.2534
54.6023
52.9948
51.4683
50.0437
48.7278
47.4996
46.3578
45.2852
44.2505
43.2295
42.203
41.1577
40.0887
39.0002
37.9043
36.8196
35.7673
34.7676
33.8366
32.9735
32.1712
-12625.4
-12343.4
-12053.7
-11741.1
-11334.1
-10809.7
-10185.7
-9522.72
-8877.78
-8274.26
-7693.11
-7072.06
-6337.57
-5460.15
-4476.19
-3446.34
-2417.45
-1423.62
-501.528
296.81
905.172
1272.39
1401.98
1355.25
1214.67
1043.28
872.034
712.712
571.562
452.42
355.022
275.057
208.34
153.78
111.789
81.3516
60.0881
46.0711
37.2508
32.1342
29.287
27.7002
27.073
27.2559
28.088
29.4372
31.178
33.1863
35.3395
37.5179
39.6102
41.5236
43.1918
44.5789
45.6766
46.4981
47.0701
47.4261
47.6021
47.6325
47.5482
47.3745
47.1294
46.8243
46.4797
46.0815
45.6283
45.116
44.5407
43.9013
43.2019
42.4522
41.6673
40.8661
40.0683
39.2904
38.5432
37.8279
37.1395
36.4478
3952.42
3792.69
3615.87
3409.95
3113.48
2753.21
2323.99
1829.98
1292.41
753.139
294.516
15.6777
-45.6684
42.3408
159.357
210.753
153.526
-17.6428
-286.02
-620.599
-984.163
-1336.22
-1629.27
-1809.85
-1842.6
-1741.42
-1560.3
-1351.08
-1140.76
-941.567
-762.696
-611.137
-489.169
-393.988
-319.639
-260.134
-212.117
-173.42
-142.333
-117.405
-97.0068
-79.8444
-65.2139
-52.6015
-41.4405
-31.2037
-21.8751
-13.4364
-5.79182
1.13039
7.37953
12.9924
18.0006
22.4349
26.3284
29.7178
32.6432
35.1475
37.2725
39.063
40.5563
41.7876
42.7876
43.5803
44.1844
44.6126
44.8746
44.979
44.9362
44.7601
44.4695
44.0873
43.6387
43.1482
42.6354
42.1127
41.5838
41.0467
40.496
39.9166
4838.27
4713.04
4618.19
4536.08
4360.8
4059.97
3599.93
2961.55
2167.61
1329.22
618.62
153.241
-85.9635
-189.003
-231.332
-257.913
-299.127
-376.951
-497.543
-638.79
-748.771
-770.47
-681.505
-514.638
-337.585
-210.766
-151.723
-141.804
-155.638
-177.997
-202.797
-227.565
-250.212
-267.733
-277.18
-278.124
-270.905
-256.612
-236.835
-213.507
-188.649
-164.122
-140.985
-119.656
-100.363
-83.2364
-67.921
-54.1303
-41.7119
-30.5326
-20.4789
-11.4586
-3.39499
3.77993
10.129
15.7108
20.5955
24.8788
28.5858
31.7778
34.5179
36.8591
38.846
40.515
41.8948
43.0083
43.8752
44.5149
44.9488
45.2025
45.3044
45.2844
45.1705
44.9861
44.7479
44.4669
44.1502
43.8027
43.426
43.0279
-5948.59
-5383.05
-4568.82
-3641.66
-2663.57
-1750.92
-947.822
-259.968
336.714
859.043
1299.11
1628.14
1809.2
1826.58
1696.42
1448.94
1111.44
706.624
259.146
-193.883
-600.742
-908.196
-1087.06
-1149.64
-1132.82
-1071.88
-991.384
-906.151
-824.98
-752.647
-689.692
-633.431
-580.522
-528.765
-477.638
-427.993
-381.405
-338.893
-300.339
-265.208
-233.002
-203.265
-175.827
-150.645
-127.646
-106.72
-87.8014
-70.8201
-55.6715
-42.2229
-30.3266
-19.8327
-10.5962
-2.47666
4.65209
10.8224
16.2206
20.9053
24.9935
28.5593
31.6678
34.3779
36.7385
38.7881
40.5549
42.0596
43.3186
44.3476
45.1647
45.7913
46.2511
46.5684
46.7658
46.8636
46.8787
46.8242
46.7103
46.5445
46.3327
46.0927
5596.33
5037.68
4243.75
3206.34
1888.15
495.135
-820.262
-1952.86
-2865.16
-3564.03
-4070.44
-4409.2
-4609
-4700.13
-4708.79
-4655.41
-4554.78
-4414.58
-4242.49
-4043.96
-3820.93
-3573.81
-3305.16
-3017.31
-2714.53
-2397.1
-2065.87
-1731.2
-1413.87
-1138.16
-919.184
-756.95
-640.107
-553.752
-485.714
-428.406
-377.52
-330.937
-288.019
-248.745
-213.222
-181.456
-153.281
-128.399
-106.455
-87.0986
-70.0238
-54.969
-41.7136
-30.0632
-19.8427
-10.8931
-3.05484
3.79183
9.75382
15.0217
19.6057
23.5996
27.0943
30.1686
32.893
35.3272
37.5181
39.4979
41.2843
42.8834
44.2943
45.5151
46.5476
47.3987
48.0809
48.6102
49.0043
49.2799
49.4524
49.5352
49.541
49.4812
49.3667
49.2167
-13078.8
-12140.8
-10932.7
-9669.7
-8372.32
-7178.52
-6098.2
-5130.13
-4272.8
-3522.78
-2873.04
-2315.52
-1843.72
-1452.37
-1135.02
-881.272
-676.59
-504.09
-351.016
-221.741
-142.859
-143.112
-219.712
-335.346
-440.019
-502.662
-519.396
-502.567
-468.285
-427.186
-384.352
-341.638
-299.321
-257.724
-217.708
-180.412
-146.778
-117.331
-92.1725
-71.1058
-53.6915
-39.3781
-27.6341
-17.9743
-9.97723
-3.28868
2.38429
7.27048
11.4794
15.1442
18.4529
21.4654
24.2032
26.7025
28.9936
31.0909
33.0062
34.7599
36.3803
37.9014
39.3589
40.7833
42.1928
43.5894
44.9576
46.2699
47.494
48.601
49.5713
50.3963
51.077
51.6208
52.0387
52.3431
52.5468
52.6622
52.701
52.6732
52.5887
52.4643
4441.02
4396.38
4263.85
3990.15
3586.07
3166.9
2822.99
2586.78
2445.99
2377.38
2363.42
2378.54
2380.93
2331.62
2219.33
2060.61
1884.54
1721.44
1599.52
1537.92
1535.8
1570.82
1608.9
1618.72
1583.2
1502.43
1387.55
1252.7
1110.95
971.566
840.1
719.618
611.563
516.37
433.803
363.191
303.571
253.81
212.684
179.001
151.617
129.469
111.652
97.3905
86.0323
77.0332
69.9401
64.3855
60.1358
56.9433
54.516
52.6975
51.3625
50.4025
49.7299
49.2762
48.9923
48.8486
48.8338
48.95
49.2052
49.6043
50.1405
50.7915
51.5203
52.2815
53.0301
53.7291
54.353
54.8879
55.3293
55.6784
55.9394
56.1184
56.2218
56.2567
56.2301
56.1489
56.0207
55.859
10071.4
9832.87
9535.78
9176.65
8732.38
8284.94
7877.93
7513.09
7166.66
6818.68
6464.47
6105.96
5740.53
5363.84
4976.83
4589.9
4219.18
3874.23
3547.65
3223.22
2897.59
2586.88
2307.65
2062.36
1843.34
1643.52
1460.22
1293.34
1142.55
1006.8
884.929
775.764
678.234
591.421
514.498
446.692
387.262
335.488
290.673
252.138
219.231
191.321
167.811
148.138
131.78
118.26
107.147
98.0595
90.6626
84.6641
79.8045
75.8753
72.6887
70.0912
67.9573
66.1876
64.7078
63.4672
62.4346
61.5936
60.9358
60.4533
60.1331
59.9541
59.8878
59.9018
59.9649
60.0508
60.1399
60.2181
60.2759
60.3064
60.3048
60.2681
60.195
60.0854
59.9407
59.7628
59.5557
59.3266
9040.24
8856.56
8630.92
8327.51
7903.96
7386.67
6814.2
6236.72
5696.3
5201.01
4721.86
4221.65
3693.63
3172.42
2705.89
2319.35
2009.8
1761.58
1558.66
1388.48
1241.39
1111.1
996.31
896.435
808.874
729.22
653.641
580.709
511.509
447.615
390.323
340.356
297.683
261.851
232.167
207.765
187.762
171.339
157.76
146.4
136.757
128.448
121.19
114.785
109.096
104.03
99.521
95.5196
91.9823
88.867
86.1298
83.7243
81.6022
79.7159
78.0207
76.4778
75.0571
73.7385
72.5126
71.3786
70.342
69.4105
68.5902
67.8824
67.2827
66.7808
66.3624
66.0114
65.7118
65.4485
65.2081
64.979
64.7516
64.5185
64.2745
64.0161
63.7414
63.45
63.1442
62.8249
-18456.2
-16922.8
-15176.7
-13729.8
-12402
-11262
-10237.7
-9208.77
-8064.62
-6808.17
-5556.11
-4429.06
-3473.57
-2677.79
-2016.88
-1468.07
-1014.93
-648.434
-362.765
-151.069
-4.15224
87.9456
133.496
138.482
108.775
51.8437
-22.9467
-105.964
-188.325
-262.004
-320.72
-362.771
-390.765
-409.985
-425.826
-440.496
-453.611
-463.973
-470.738
-473.727
-473.082
-469.117
-462.307
-453.103
-441.955
-429.303
-415.586
-401.096
-386.098
-370.643
-354.84
-338.839
-322.801
-306.895
-291.268
-276.049
-261.344
-247.239
-233.798
-221.066
-209.07
-197.822
-187.314
-177.527
-168.43
-159.981
-152.136
-144.848
-138.07
-131.757
-125.87
-120.353
-115.186
-110.339
-105.781
-101.489
-97.4393
-93.6089
-89.985
-86.537
6575.33
6533.01
6243.54
5614.01
4800.75
4099.65
3607.59
3239.33
2886.82
2511.11
2112.65
1660.82
1115.67
502.408
-99.6734
-636.123
-1103.71
-1513.63
-1863.7
-2142.94
-2342.09
-2457.83
-2495.17
-2467
-2390.57
-2282.92
-2157.64
-2023.97
-1887.59
-1751.61
-1617.8
-1487.71
-1363.78
-1248.43
-1143.16
-1048.3
-963.629
-888.99
-824.022
-767.749
-718.81
-675.762
-637.251
-602.244
-569.946
-539.744
-511.15
-483.828
-457.249
-431.42
-406.73
-383.158
-360.698
-339.369
-319.178
-300.117
-282.172
-265.324
-249.554
-234.843
-221.173
-208.521
-196.853
-186.125
-176.274
-167.228
-158.911
-151.246
-144.163
-137.594
-131.479
-125.783
-120.451
-115.446
-110.738
-106.298
-102.103
-98.1268
-94.358
-90.7622
-3691.46
-3696.29
-3707.89
-3754.63
-3811.64
-3838.87
-3796.99
-3681.12
-3498.99
-3245.92
-2907.28
-2496.7
-2076.58
-1714.2
-1436.88
-1242.05
-1120.38
-1057.78
-1037.87
-1044.62
-1063.99
-1085.77
-1099.57
-1098.85
-1082.85
-1055.49
-1022.3
-987.936
-955.695
-927.601
-904.498
-886.071
-870.884
-856.711
-841.054
-821.718
-797.377
-767.966
-734.629
-699.189
-663.482
-628.903
-596.299
-565.938
-537.829
-511.764
-487.371
-464.257
-442.429
-421.832
-401.746
-381.661
-361.672
-341.903
-322.55
-303.812
-285.847
-268.762
-252.626
-237.484
-223.372
-210.315
-198.325
-187.389
-177.46
-168.459
-160.282
-152.818
-145.96
-139.584
-133.633
-128.08
-122.877
-117.987
-113.375
-109.011
-104.872
-100.931
-97.1788
-93.581
-11621.2
-11178.7
-10566.9
-9883.21
-9118.43
-8392.32
-7701.35
-7008.45
-6277.64
-5494.88
-4676.67
-3862.52
-3095.33
-2408.4
-1825.03
-1358.08
-1007.16
-760.809
-596.425
-483.381
-394.921
-320.969
-265.274
-232.236
-219.24
-219.673
-227.528
-239.036
-252.315
-266.619
-281.77
-297.772
-314.639
-332.351
-350.834
-369.885
-389.096
-407.852
-425.416
-441.077
-454.282
-464.689
-472.149
-476.626
-478.122
-476.611
-472.03
-464.28
-452.952
-437.121
-417.285
-394.844
-371
-347.059
-324.083
-302.675
-283.002
-264.961
-248.371
-233.082
-219.005
-206.099
-194.34
-183.697
-174.105
-165.472
-157.682
-150.626
-144.181
-138.27
-132.806
-127.705
-122.91
-118.376
-114.069
-109.96
-106.03
-102.258
-98.6375
-95.1404
13050.1
12894
12640.4
12204.7
11590.9
10854.9
10047.3
9209.84
8368.21
7525.55
6674.92
5816.97
4964.94
4135.07
3339.84
2591.97
1909.95
1315.19
822.234
430.341
126.597
-109.568
-297.334
-448.257
-567.102
-655.732
-715.706
-749.194
-759.343
-750.272
-726.718
-693.525
-655.19
-615.538
-577.522
-543.153
-513.563
-489.159
-469.781
-454.868
-443.613
-435.089
-428.344
-422.473
-416.657
-410.189
-402.49
-393.088
-381.695
-368.17
-352.22
-334.422
-316.218
-298.544
-281.951
-266.655
-252.579
-239.507
-227.241
-215.672
-204.79
-194.637
-185.259
-176.663
-168.791
-161.529
-154.741
-148.379
-142.33
-136.622
-131.294
-126.358
-121.782
-117.509
-113.477
-109.637
-105.955
-102.401
-98.9682
-95.6279
5626.4
5510.59
5375.8
5230.98
5083.48
4955.17
4831.73
4697.66
4565.21
4456.95
4357.93
4211.04
3980.61
3700.71
3435.11
3216.76
3036.49
2864.37
2675.92
2462.8
2228.97
1983.61
1736.3
1494.83
1264.7
1049.39
850.865
670.156
507.697
363.566
237.567
129.213
37.6925
-38.12
-99.6741
-148.632
-186.753
-215.79
-237.407
-253.114
-264.209
-271.768
-276.632
-279.419
-280.551
-280.273
-278.687
-275.798
-271.559
-265.925
-258.99
-251.177
-242.543
-233.673
-225.148
-217.21
-209.801
-202.805
-196.095
-189.577
-183.231
-177.105
-171.268
-165.746
-160.488
-155.372
-150.255
-144.998
-139.701
-134.482
-129.477
-124.775
-120.391
-116.291
-112.424
-108.743
-105.215
-101.806
-98.5067
-95.2898
-14233
-13968.3
-13647.3
-13237.9
-12685.3
-11979.1
-11125
-10134.3
-8993.15
-7676.09
-6248.31
-4921.59
-3899.59
-3186.66
-2641.57
-2170.95
-1776.76
-1474.42
-1248.94
-1073.81
-930.838
-811.314
-711.088
-627.379
-557.143
-497.19
-444.585
-397.017
-353.017
-312.638
-276.172
-244.03
-216.496
-193.637
-175.33
-161.302
-151.182
-144.563
-141.042
-140.222
-141.682
-144.983
-149.643
-155.217
-161.571
-168.271
-174.624
-180.134
-184.649
-188.078
-190.372
-191.559
-191.739
-191.065
-189.65
-187.554
-184.783
-181.31
-177.105
-172.277
-167.078
-161.838
-156.878
-152.416
-148.487
-144.936
-141.408
-137.753
-133.87
-129.805
-125.689
-121.647
-117.746
-114.007
-110.419
-106.965
-103.626
-100.381
-97.2234
-94.1353
1038.02
793.007
461.078
45.041
-515.953
-1177.11
-1908.98
-2660.71
-3366.49
-3959.41
-4389.79
-4642.7
-4735.91
-4698.34
-4555.68
-4331.52
-4047.39
-3717.34
-3353.93
-2973.61
-2593.74
-2227.82
-1884.56
-1568.85
-1282.97
-1027.09
-800.556
-602.472
-431.119
-284.681
-162.605
-64.726
9.40403
60.9306
91.9233
105.23
104.246
92.5003
73.2245
49.2132
22.7402
-4.42613
-30.9892
-55.9202
-78.265
-97.6159
-114.111
-127.872
-139.034
-147.858
-154.621
-159.574
-162.931
-164.862
-165.5
-164.921
-163.198
-160.431
-156.759
-152.511
-148.011
-143.651
-139.787
-136.644
-134.161
-132.084
-130.175
-128.084
-125.678
-122.951
-119.976
-116.856
-113.674
-110.486
-107.322
-104.203
-101.126
-98.0953
-95.1156
-92.182
2103.92
2372.46
2755.48
3150.03
3529.54
3846.43
4100.39
4267.96
4325.63
4273.08
4130.4
3927.1
3694.82
3461.77
3248.07
3063.93
2909.44
2776.03
2649.37
2515.36
2363.35
2189.75
1996.75
1789.96
1576.17
1362.06
1153.39
954.945
770.595
604.17
458.786
335.983
235.624
156.228
94.9362
48.2283
12.616
-14.9072
-36.6373
-54.4144
-69.5366
-82.8448
-94.8693
-105.867
-115.881
-124.87
-132.668
-139.304
-144.58
-148.607
-151.567
-153.517
-154.535
-154.717
-154.154
-152.932
-151.15
-148.92
-146.434
-143.779
-141.133
-138.649
-136.412
-134.378
-132.457
-130.463
-128.238
-125.712
-122.904
-119.888
-116.754
-113.581
-110.42
-107.298
-104.227
-101.211
-98.2493
-95.3336
-92.4663
-89.6448
5813.49
5795.54
5801.8
5819.24
5821.59
5802.85
5766
5717.58
5660.01
5588.69
5494.81
5368.77
5203.55
4996.93
4751.69
4474
4171.25
3850.27
3516.12
3172.39
2822.45
2471.42
2127.46
1800.88
1501.8
1237.28
1009.64
816.886
654.486
517.532
401.937
304.734
223.57
156.07
100.031
53.451
14.6814
-17.6236
-44.7129
-67.4148
-86.3584
-102.092
-115.094
-125.786
-134.514
-141.561
-147.141
-151.419
-154.718
-157.123
-158.561
-159.156
-159.03
-158.29
-157.05
-155.422
-153.496
-151.337
-148.983
-146.454
-143.775
-140.997
-138.182
-135.371
-132.558
-129.689
-126.708
-123.589
-120.351
-117.042
-113.72
-110.431
-107.207
-104.061
-100.997
-98.0116
-95.0983
-92.2434
-89.4442
-86.6984
4997.74
4700.35
4305.6
3816.9
3207.81
2555.63
1890.92
1230.15
584.063
-39.9952
-631.929
-1178.29
-1663.85
-2073.2
-2395.21
-2624.85
-2761.02
-2805.39
-2763.28
-2645.77
-2470.09
-2256.37
-2023.21
-1784.97
-1551.22
-1328.63
-1122.32
-936.234
-773.053
-633.939
-518.514
-425.135
-351.347
-294.316
-251.074
-218.885
-195.495
-179.147
-168.429
-162.153
-159.275
-158.882
-160.193
-162.549
-165.411
-168.352
-171.029
-173.177
-174.66
-175.291
-175.109
-174.151
-172.488
-170.227
-167.492
-164.408
-161.088
-157.623
-154.08
-150.496
-146.891
-143.274
-139.648
-136.016
-132.372
-128.71
-125.032
-121.352
-117.694
-114.092
-110.575
-107.162
-103.863
-100.68
-97.6066
-94.6336
-91.7497
-88.9383
-86.1935
-83.5092
-16143.9
-15377.5
-14396.5
-13347.2
-12183.5
-11031
-9923.39
-8882.56
-7920.97
-7048.63
-6272.88
-5592.44
-4995.1
-4464.8
-3989.28
-3560.49
-3172.13
-2817.23
-2489.75
-2186.69
-1908
-1655.05
-1428.98
-1230.02
-1057.69
-910.563
-786.302
-682.12
-595.215
-522.334
-461.014
-409.156
-365.326
-328.522
-297.993
-273.304
-254.054
-239.715
-229.6
-222.765
-218.24
-215.4
-213.772
-212.827
-212.005
-211
-209.56
-207.363
-204.532
-201.099
-197.111
-192.672
-187.904
-182.923
-177.831
-172.71
-167.622
-162.609
-157.695
-152.893
-148.206
-143.631
-139.162
-134.793
-130.517
-126.333
-122.243
-118.257
-114.389
-110.65
-107.052
-103.597
-100.284
-97.105
-94.0515
-91.1112
-88.2712
-85.5166
-82.8448
-80.2403
-998.42
-958.379
-910.564
-856.337
-777.54
-708.781
-678.492
-693.98
-733.38
-764.175
-764.556
-729.638
-665.309
-579.556
-478.975
-369.297
-255.455
-143.88
-41.2226
46.982
116.871
166.258
194.269
201.162
188.11
157.133
110.92
52.1296
-16.2293
-91.5518
-171.197
-251.706
-328.341
-395.84
-449.55
-486.417
-505.793
-509.468
-500.714
-483.098
-459.445
-431.547
-400.841
-368.822
-337.073
-306.966
-279.704
-256.249
-236.673
-220.805
-208.105
-197.87
-189.44
-182.225
-175.833
-169.978
-164.474
-159.207
-154.113
-149.157
-144.323
-139.606
-135.006
-130.527
-126.173
-121.95
-117.863
-113.918
-110.12
-106.472
-102.973
-99.6207
-96.4082
-93.3273
-90.3682
-87.5196
-84.7705
-82.1127
-79.5515
-77.0525
13659.9
13440.6
13110.4
12574.1
11792.6
10855.7
9839.02
8802.25
7782.25
6797.51
5860.65
4983.64
4176.62
3444.19
2786.2
2199.62
1677.38
1211.76
795.572
422.279
86.4338
-215.439
-483.923
-716.666
-908.97
-1054.9
-1148.29
-1185.66
-1170.51
-1114.47
-1034.87
-949.502
-871.176
-805.233
-750.819
-703.592
-659.691
-617.083
-575.16
-533.987
-493.989
-455.669
-419.459
-385.667
-354.496
-326.068
-300.44
-277.587
-257.382
-239.609
-224.002
-210.288
-198.216
-187.563
-178.127
-169.728
-162.201
-155.401
-149.203
-143.501
-138.209
-133.258
-128.596
-124.18
-119.983
-115.981
-112.159
-108.502
-105.001
-101.646
-98.4283
-95.3376
-92.3653
-89.5024
-86.7398
-84.0678
-81.4785
-78.9711
-76.5556
-74.169
-9010.19
-8673.84
-8266.22
-7830.49
-7345.49
-6851.47
-6383.94
-5982.94
-5664.18
-5408.92
-5178.13
-4930.04
-4633.96
-4274.85
-3852.3
-3379.41
-2879.4
-2380.39
-1909.67
-1488.44
-1128.76
-833.311
-597.172
-410.839
-264.236
-150.137
-65.1958
-9.58742
15.6273
12.644
-11.6817
-48.0854
-87.9803
-125.18
-156.448
-181.008
-199.193
-211.634
-219.199
-222.922
-223.722
-222.365
-219.437
-215.378
-210.525
-205.136
-199.414
-193.516
-187.557
-181.618
-175.756
-170.011
-164.41
-158.974
-153.72
-148.656
-143.789
-139.121
-134.648
-130.367
-126.27
-122.349
-118.597
-115.004
-111.562
-108.263
-105.096
-102.053
-99.125
-96.3015
-93.5729
-90.9295
-88.3621
-85.8621
-83.4211
-81.0305
-78.6866
-76.4015
-74.2024
-72.0283
-7302.36
-7195
-7024.69
-6756.02
-6366.13
-5919.21
-5483.96
-5119.17
-4851.26
-4674.72
-4562.06
-4474.21
-4371
-4219.72
-4001.1
-3710.06
-3355.05
-2951.71
-2517.26
-2069.3
-1628.11
-1217.71
-861.645
-575.129
-360.375
-208.752
-107.052
-43.1206
-7.27363
8.15333
9.51019
1.96466
-10.4531
-24.9238
-39.4376
-53.0525
-65.2181
-75.7165
-84.6933
-92.4022
-99.08
-104.905
-109.977
-114.354
-118.069
-121.144
-123.597
-125.447
-126.717
-127.433
-127.628
-127.339
-126.613
-125.499
-124.049
-122.318
-120.36
-118.223
-115.956
-113.601
-111.194
-108.766
-106.345
-103.949
-101.593
-99.2873
-97.0365
-94.8417
-92.7001
-90.6064
-88.5529
-86.5304
-84.5289
-82.5379
-80.5461
-78.5415
-76.5166
-74.4841
-72.545
-70.5734
7627.86
7666.82
7772.59
7916.05
8080.46
8191.92
8193.26
8040.28
7722.86
7274.25
6747.14
6185.76
5617.61
5060.84
4528.77
4026.39
3552.12
3098.68
2657.79
2225.12
1801.24
1391.86
1007.67
664.313
380.123
169.215
33.41
-39.3037
-67.9309
-70.0432
-58.3052
-40.9541
-23.2327
-8.11055
2.97892
9.41602
11.0573
8.30732
1.92311
-6.96192
-17.3453
-28.2841
-39.0531
-49.1685
-58.3562
-66.4937
-73.5556
-79.5732
-84.6085
-88.738
-92.0435
-94.6066
-96.5059
-97.8162
-98.6083
-98.9495
-98.9039
-98.5323
-97.8923
-97.0377
-96.0179
-94.8771
-93.6537
-92.3795
-91.0797
-89.7729
-88.4711
-87.1801
-85.9005
-84.6276
-83.3531
-82.0652
-80.7502
-79.3932
-77.9784
-76.4892
-74.922
-73.3081
-71.6201
-69.8848
11199.7
10877.7
10439.2
9823.39
8938.55
7877.27
6728.15
5610.96
4643.85
3883.88
3307.63
2856.56
2492.81
2206.4
1992.68
1840.38
1733.34
1656.87
1600.53
1556.99
1522.29
1492.48
1460.65
1416.68
1350.17
1255.95
1137.96
1006.76
873.628
746.762
630.325
525.605
432.558
350.735
279.706
219.174
168.089
125.713
91.0474
62.6879
39.3553
19.8457
3.23601
-11.0933
-23.5307
-34.32
-43.6296
-51.5953
-58.3427
-63.9939
-68.6681
-72.4787
-75.5309
-77.9202
-79.7325
-81.0456
-81.9303
-82.4525
-82.6741
-82.6536
-82.4456
-82.1
-81.6614
-81.1675
-80.6483
-80.1256
-79.6125
-79.1141
-78.6276
-78.1439
-77.6481
-77.121
-76.5403
-75.8822
-75.1219
-74.2353
-73.2044
-72.0414
-70.7563
-69.3593
-10570.4
-10026.4
-9262.48
-8293.3
-7116.46
-5858.9
-4612.02
-3446.34
-2401.73
-1496.31
-742.634
-151.886
272.542
540.771
675.794
709.195
674.794
601.091
506.473
400.82
288.779
175.373
67.7399
-25.4807
-98.0217
-148.471
-178.82
-192.259
-192.09
-181.519
-163.213
-140.324
-115.321
-90.4462
-68.4766
-51.7659
-41.125
-36.3682
-36.169
-38.4775
-41.4306
-43.9278
-45.6423
-46.7248
-47.5016
-48.2908
-49.3209
-50.7096
-52.4725
-54.5482
-56.8285
-59.185
-61.4899
-63.6316
-65.5242
-67.112
-68.3696
-69.2999
-69.9296
-70.3032
-70.477
-70.5116
-70.4656
-70.3907
-70.3279
-70.3054
-70.3383
-70.43
-70.5734
-70.7517
-70.9409
-71.1118
-71.2317
-71.2668
-71.1835
-70.9492
-70.5351
-69.9105
-69.0762
-68.0937
348.701
44.1794
-372.534
-880.379
-1490.14
-2131.61
-2775.07
-3402.21
-4000.68
-4558.88
-5062.71
-5497.2
-5846.47
-6091.61
-6209.93
-6180.87
-5997.68
-5679.18
-5262.78
-4793.62
-4306.87
-3824.44
-3357.97
-2915.77
-2505.53
-2134.04
-1806.71
-1526.12
-1291.28
-1097.94
-939.638
-807.751
-694.15
-593.264
-500.5
-413.267
-330.834
-255.366
-189.332
-134.558
-91.9203
-61.1935
-41.1259
-29.745
-24.8252
-24.3161
-26.5732
-30.3908
-34.9329
-39.644
-44.1728
-48.3127
-51.9521
-55.036
-57.5427
-59.4732
-60.8492
-61.7145
-62.135
-62.1958
-61.9959
-61.6414
-61.2386
-60.8833
-60.6514
-60.5996
-60.7369
-61.0647
-61.5555
-62.1672
-62.8518
-63.5595
-64.2423
-64.8544
-65.3504
-65.6849
-65.8122
-65.6908
-65.2832
-64.6879
-80.291
-72.256
-65.3737
-59.3759
-54.0671
-49.3002
-44.9662
-40.9863
-37.3068
-33.8942
-30.7296
-27.8033
-25.1047
-22.6233
-20.3465
-18.259
-16.345
-14.587
-12.9677
-11.4808
-10.1083
-8.84202
-7.67811
-6.61569
-5.65348
-4.79271
-4.03407
-3.37697
-2.81914
-2.35577
-1.98014
-1.68287
-1.45208
-1.27594
-1.14094
-1.03251
-0.936869
-0.843244
-0.745636
-0.643571
-0.541258
-0.445421
-0.362823
-0.298651
-0.256194
-0.237307
-0.243019
-0.274035
-0.331138
-0.415458
-0.528543
-0.672437
-0.849983
-1.0653
-1.32412
-1.63393
-2.00371
-2.44327
-2.96185
-3.56629
-4.25918
-5.03786
-5.89473
-6.81876
-7.79761
-8.81932
-9.87242
-10.9445
-12.0203
-13.0801
-14.0996
-15.0512
-15.9053
-16.632
-17.2028
-17.5923
-17.7816
-17.7598
-17.5244
-17.0829
-16.4515
-15.6549
-14.7241
-13.6938
-12.6006
-11.4802
-10.3653
-9.2839
-8.25825
-7.30435
-6.43218
-5.64644
-4.94739
-4.33204
-3.79517
-3.33036
-2.93075
-2.58955
-2.30038
-2.05748
-1.85581
-1.6911
-1.55979
-1.45891
-1.38602
-1.33916
-1.31681
-1.3178
-1.34122
-1.38623
-1.45182
-1.5367
-1.63929
-1.75791
-1.89102
-2.03753
-2.1969
-2.36894
-2.55335
-2.74923
-2.95452
-3.16581
-3.3783
-3.58608
-3.78249
-3.96059
-4.11358
-4.23519
-4.32
-4.36369
-4.36364
-4.32543
-4.24302
-4.11865
-3.95603
-3.75975
-3.53509
-3.28771
-3.02346
-2.74806
-2.46698
-2.1852
-1.90715
-1.63659
-1.37653
-1.1293
-0.896523
-0.67919
-0.477766
-0.292283
-0.122454
0.0322246
0.172394
0.298785
0.412185
0.513419
0.603321
0.682706
0.752343
0.812943
0.865165
0.90963
0.946931
0.977646
1.00233
1.02153
1.03577
1.04558
1.05149
1.05401
1.05361
1.05078
1.04594
1.03952
1.03192
1.02352
1.0146
1.00534
0.995818
0.985954
0.975567
0.964352
0.95189
0.937635
0.920949
0.901087
0.877317
0.848866
0.815156
0.775545
0.729855
0.677593
0.619222
0.554155
0.483792
0.406805
0.325906
0.23815
0.147604
0.0503913
-84.2218
-75.7279
-68.4254
-62.0549
-56.4212
-51.3739
-46.798
-42.6087
-38.7471
-35.1756
-31.8735
-28.8343
-26.0421
-23.4855
-21.1483
-19.0114
-17.0585
-15.2671
-13.6096
-12.1028
-10.705
-9.41087
-8.21699
-7.12209
-6.12801
-5.23583