/*--------------------------------*- C++ -*----------------------------------*\
| =========                 |                                                 |
| \\      /  F ield         | OpenFOAM: The Open Source CFD Toolbox           |
|  \\    /   O peration     | Version:  2012                                  |
|   \\  /    A nd           | Website:  www.openfoam.com                      |
|    \\/     M anipulation  |                                                 |
\*---------------------------------------------------------------------------*/
FoamFile
{
    version     2.0;
    format      ascii;
    class       volScalarField;
    location    "0.03";
    object      p;
}
// * * * * * * * * * * * * * * * * * * * * * * * * * * * * * * * * * * * * * //

dimensions      [0 2 -2 0 0 0 0];


internalField   nonuniform List<scalar> 
42400
(
4801.17
4816.3
4796.26
4696.67
4490.35
4176.88
3766.74
3304.46
2854.57
2470.48
2184.39
2007.4
1930
1925.37
1952.89
1966.98
1927.77
1814.38
1626.92
1380.91
1098.74
804.213
519.487
265.866
62.5239
-85.7829
-195.771
-285.588
-356.936
-403.999
-427.713
-434.69
-429.018
-412.106
-385.119
-350.134
-309.502
-266.488
-223.961
-184.848
-151.082
-123.399
-101.608
-84.92
-72.2796
-62.6413
-55.1224
-49.0647
-44.0202
-39.7107
-35.9817
-32.7597
-30.0162
-27.7372
-25.9026
-24.4759
-23.4026
-22.6137
-22.0311
-21.5731
-21.1602
-20.7212
-20.198
-19.5505
-18.7576
-17.8235
-16.77
-15.6366
-14.4744
-13.3387
-12.2823
-11.3496
-10.5717
-9.96528
-9.53209
-9.26145
-9.13228
-9.1167
-9.1778
-9.32098
-2052.57
-2076.9
-2096.45
-2101.26
-2101.15
-2121.39
-2182.33
-2275.6
-2364.06
-2406.68
-2381.47
-2290.77
-2151
-1978.38
-1786.72
-1593.66
-1421.26
-1290.44
-1213.66
-1192.26
-1212.62
-1245.83
-1252.82
-1195.87
-1055.85
-845.432
-607.227
-390.672
-227.033
-120.919
-60.0529
-29.0646
-14.7569
-7.69187
-2.68998
2.09063
6.55
11.1582
16.0072
20.1432
23.1757
24.7923
24.7385
22.8417
19.9844
16.4708
12.8126
9.37964
6.35104
3.7671
1.57532
-0.325899
-2.04916
-3.68862
-5.30307
-6.91153
-8.49872
-10.0257
-11.4402
-12.6858
-13.7085
-14.4628
-14.9166
-15.0558
-14.8873
-14.441
-13.7668
-12.9306
-12.0065
-11.069
-10.1851
-9.40817
-8.7742
-8.30085
-7.98905
-7.82624
-7.78978
-7.85152
-7.98899
-8.20296
-10210.3
-9829.5
-9315.23
-8728.21
-8087.14
-7437.62
-6798.18
-6175.1
-5558.19
-4927.87
-4293.6
-3691.12
-3152.87
-2680.32
-2274.17
-1965.83
-1784.43
-1722.9
-1749.94
-1829.06
-1920.11
-1976.91
-1954.35
-1820.02
-1575.73
-1260.08
-928.415
-627.106
-380.026
-190.801
-52.7235
43.3149
105.811
142.219
159.133
162.305
156.302
144.145
128.295
111.009
93.9304
78.3916
65.3762
55.254
47.7897
42.3326
38.1178
34.5008
31.0623
27.602
24.071
20.4977
16.9365
13.4411
10.0572
6.82344
3.77517
0.948292
-1.61928
-3.88808
-5.81977
-7.38177
-8.55316
-9.33053
-9.73227
-9.7997
-9.59427
-9.19127
-8.67147
-8.11259
-7.58187
-7.13082
-6.79252
-6.58178
-6.49749
-6.52656
-6.64752
-6.83567
-7.07401
-7.3584
12562.4
12212.6
11729.2
11078.9
10249.8
9400.07
8576.53
7752.89
6864.82
5824.19
4565.48
3150.09
1832.38
891.612
342.692
-35.7243
-382.919
-668.8
-853.762
-957.135
-1012.2
-1032.92
-1012.05
-942.286
-828.408
-686.607
-536.91
-396.413
-275.671
-178.525
-104.293
-50.1378
-12.4319
12.6206
28.6539
38.7967
45.3671
49.7467
52.4839
54.0305
54.6701
54.7142
54.4832
54.1619
53.7201
52.9781
51.7213
49.8009
47.1854
43.9537
40.2501
36.2351
32.0519
27.816
23.6167
19.5256
15.6037
11.9072
8.49018
5.40445
2.69687
0.404163
-1.45319
-2.87637
-3.89111
-4.54669
-4.91072
-5.06087
-5.07582
-5.02736
-4.97466
-4.96103
-5.01294
-5.14126
-5.34427
-5.61162
-5.92763
-6.27645
-6.65204
-7.05508
1539.79
1743.47
2055.44
2474.05
2984.96
3393.36
3628.76
3750.2
3805.13
3790.39
3716.83
3612.31
3483.5
3307.47
3060.91
2755.29
2429.16
2114.26
1821.76
1551.52
1301.79
1073.85
871.321
698.115
555.874
443.546
358.184
295.893
252.391
223.277
204.327
192.006
183.628
177.283
171.641
165.378
157.904
149.338
140.467
131.389
122.345
113.609
105.372
97.7222
90.6478
84.0634
77.8485
71.8884
66.0938
60.4147
54.8344
49.3588
44.0052
38.7985
33.77
28.9569
24.4
20.1416
16.2233
12.6835
9.55324
6.85165
4.5816
2.72637
1.24915
0.0962169
-0.796844
-1.49714
-2.06712
-2.5594
-3.01435
-3.45973
-3.91165
-4.37646
-4.85333
-5.33703
-5.82004
-6.29691
-6.77087
-7.24747
-1736.13
-1627.28
-1486.34
-1318.89
-1091.37
-849.349
-613.277
-393.522
-191.237
0.826112
188.975
370.912
534.547
662.788
739.071
754.259
711.015
623.843
512.812
397.882
294.433
211.47
152.616
116.865
100.726
99.872
109.997
127.203
148.092
169.388
188.114
202.148
210.68
213.553
210.741
203.645
193.807
182.447
170.088
157.503
145.232
133.585
122.747
112.807
103.742
95.416
87.6314
80.2163
73.0501
66.1273
59.4861
53.1738
47.2223
41.645
36.4423
31.6082
27.1355
23.0193
19.2582
15.8529
12.8041
10.1088
7.7563
5.726
3.98647
2.49759
1.21501
0.095718
-0.897427
-1.79353
-2.61397
-3.37394
-4.08389
-4.75061
-5.37814
-5.96869
-6.52332
-7.04536
-7.54438
-8.03165
-5031.72
-4945.95
-4866.6
-4802.67
-4728.57
-4658.03
-4599.55
-4571.05
-4566.5
-4548.19
-4480.21
-4357.23
-4194.34
-3996.81
-3745.51
-3414.07
-2995.99
-2517.24
-2025.15
-1566.96
-1172.19
-849.644
-593.669
-394.936
-243.362
-129.734
-46.1015
15.6871
62.2053
98.8274
128.488
152.601
171.031
183.204
189.157
189.181
184.406
176.328
166.197
154.894
143.04
131.045
119.216
107.852
97.1629
87.2939
78.3168
70.2203
62.9453
56.4023
50.4918
45.1169
40.1916
35.6444
31.4202
27.4792
23.796
20.3569
17.1576
14.1997
11.4872
9.02302
6.80515
4.82472
3.06536
1.50479
0.118086
-1.1188
-2.22659
-3.22214
-4.11932
-4.93021
-5.66554
-6.3347
-6.9456
-7.50476
-8.01753
-8.49117
-8.93721
-9.37
-1747.58
-1607.6
-1449.89
-1307.7
-1191.75
-1120.87
-1061.57
-930.51
-600.916
22.321
827.104
1477.13
1733.5
1669.64
1484.26
1293.99
1132.32
1002.45
896.509
801.433
706.75
607.508
504.275
401.046
302.58
213.349
135.991
71.4136
19.5918
-19.4686
-46.1819
-62.038
-68.2076
-66.692
-60.1549
-50.7773
-39.9395
-28.5519
-17.1263
-6.12054
3.70296
11.7765
17.8286
21.9626
24.5229
25.8766
26.3629
26.2302
25.6467
24.7247
23.5377
22.1356
20.5555
18.8292
16.987
15.0602
13.0818
11.0859
9.1066
7.17675
5.32549
3.57642
1.94583
0.441838
-0.935074
-2.19022
-3.33188
-4.36868
-5.30813
-6.15671
-6.92079
-7.60733
-8.22385
-8.77791
-9.27663
-9.72647
-10.1331
-10.5044
-10.8513
-11.1888
8181.91
7979.53
7729.05
7397.34
6917.7
6316.64
5613.26
4885.07
4241.35
3748.44
3368.67
2985.58
2522.39
2002.94
1493.95
1043.07
670.873
382.535
174.09
34.1601
-57.6452
-123.727
-180.97
-239.881
-300.822
-359.771
-410.643
-447.682
-467.127
-467.406
-448.914
-414.037
-366.792
-311.98
-254.584
-199.895
-151.445
-111.452
-81.1126
-60.3433
-47.3336
-39.4092
-34.0936
-29.4144
-24.5722
-19.3493
-14.1144
-9.26522
-5.10998
-1.81834
0.572622
2.12066
2.9382
3.16011
2.92179
2.34638
1.53867
0.583478
-0.453439
-1.52328
-2.59142
-3.63467
-4.6384
-5.59382
-6.49546
-7.3394
-8.12232
-8.84157
-9.49572
-10.0852
-10.6125
-11.0817
-11.498
-11.867
-12.1939
-12.4838
-12.7415
-12.9736
-13.1894
-13.4027
-5922.01
-5964.47
-5997.1
-5967.06
-5874.55
-5688.68
-5425.82
-5113.53
-4758.74
-4366.74
-3969.85
-3617.51
-3344.05
-3154.05
-3028.78
-2942.69
-2872.18
-2797.89
-2704.17
-2579.13
-2417.07
-2221.72
-2005.37
-1785.04
-1577.24
-1392.73
-1233.56
-1096.19
-975.184
-865.929
-765.771
-673.718
-588.925
-509.371
-432.136
-354.279
-275.913
-199.38
-128.567
-68.1193
-21.9184
8.52716
24.7369
30.218
29.2777
25.1915
19.9597
14.6408
9.72717
5.41143
1.73683
-1.32316
-3.8314
-5.86484
-7.50217
-8.81713
-9.87515
-10.732
-11.4329
-12.0164
-12.5105
-12.9371
-13.3116
-13.6449
-13.9438
-14.2125
-14.4538
-14.6696
-14.8617
-15.0321
-15.1826
-15.3152
-15.4316
-15.5332
-15.6213
-15.6971
-15.7619
-15.8193
-15.8749
-15.9392
-3963.67
-3675.98
-3290.35
-2861.06
-2402.78
-1991.42
-1628.26
-1285.33
-941.432
-602.285
-293.521
-42.8605
131.835
224.367
234.927
166.903
31.8833
-146.912
-340.042
-521.798
-675.42
-792.743
-872.518
-919.495
-941.987
-948.159
-943.674
-928.869
-899.765
-853.245
-790.484
-715.329
-631.47
-543.794
-455.979
-370.758
-290.777
-218.676
-156.764
-106.591
-68.59
-41.9406
-24.7459
-14.451
-9.26391
-7.80923
-8.27248
-9.79321
-11.8923
-14.2095
-16.49
-18.566
-20.3402
-21.769
-22.848
-23.5989
-24.0586
-24.2712
-24.2825
-24.1367
-23.8741
-23.5299
-23.1343
-22.7118
-22.2824
-21.8613
-21.4599
-21.0857
-20.7432
-20.4342
-20.1581
-19.9128
-19.6951
-19.5014
-19.328
-19.1715
-19.0288
-18.8998
-18.7858
-18.6927
14494.8
14239.2
13933.4
13532.2
12946.8
12282.7
11583.3
10876.3
10158.9
9393.34
8541.92
7590.18
6557.22
5493.71
4463.06
3518.75
2698.5
2029.8
1525.23
1173.79
940.621
783.935
669.74
576.767
492.808
410.29
326.97
246.076
172.946
111.774
64.6725
31.5186
9.47561
-2.90513
-7.04379
-5.23479
-0.551685
3.85048
5.55628
3.39041
-2.56606
-11.3438
-21.5539
-31.6433
-40.0763
-46.0206
-50.2032
-52.7999
-54.0046
-54.1203
-53.4459
-52.2351
-50.6856
-48.9405
-47.0975
-45.2194
-43.3452
-41.4989
-39.6966
-37.9509
-36.2735
-34.6758
-33.169
-31.7636
-30.4675
-29.2859
-28.2198
-27.2667
-26.4207
-25.6737
-25.0156
-24.436
-23.9243
-23.4707
-23.066
-22.7023
-22.3727
-22.0737
-21.8029
-21.5616
-5559.34
-5370.68
-5081
-4678.79
-4207.84
-3690.56
-3125.47
-2507.84
-1846.96
-1183.89
-589.311
-123.276
217.05
491.678
750.796
1006.86
1244.75
1444
1591.47
1683.36
1724.15
1721.23
1679.62
1603.03
1496.97
1367.39
1221.46
1066.66
909.559
756.256
612.386
482.212
367.951
269.428
185.833
115.931
58.3766
11.9063
-24.6344
-52.3193
-72.1994
-85.3429
-92.8995
-96.1908
-96.4518
-94.5642
-91.3685
-87.4619
-83.353
-79.325
-75.4974
-71.908
-68.5524
-65.4084
-62.4345
-59.5967
-56.8606
-54.1999
-51.5993
-49.0573
-46.5843
-44.2004
-41.9307
-39.8009
-37.8325
-36.0397
-34.4277
-32.9936
-31.7273
-30.6142
-29.6374
-28.779
-28.0219
-27.3503
-26.7505
-26.2102
-25.7192
-25.2711
-24.8605
-24.4837
-7968.58
-7746.49
-7480.86
-7227.17
-7035.12
-6937.82
-6873.04
-6728.72
-6432.44
-6003.05
-5528.88
-5108.96
-4791.01
-4564.18
-4390.51
-4235.32
-4077.97
-3908.38
-3721.22
-3513.44
-3282.65
-3026.94
-2748.22
-2459.42
-2185.37
-1952.4
-1771.35
-1633.5
-1519.17
-1409.93
-1295.31
-1172.73
-1044.33
-914.967
-790.869
-676.939
-575.831
-488.464
-414.507
-352.904
-302.413
-261.199
-227.937
-201.171
-179.569
-161.905
-146.656
-133.493
-122.059
-112.06
-103.335
-95.7972
-89.3315
-83.774
-78.9257
-74.5868
-70.5874
-66.8036
-63.1609
-59.6283
-56.2027
-52.9254
-49.8278
-46.9494
-44.3217
-41.9622
-39.8728
-38.0416
-36.4465
-35.0599
-33.8524
-32.7959
-31.8651
-31.0379
-30.2956
-29.6228
-29.0066
-28.4383
-27.9106
-27.4162
6940.75
6594.66
6177.75
5678.5
4985.86
4170.94
3308.82
2510.36
1856.03
1338.49
874.866
381.23
-167.157
-735.661
-1270.28
-1729.53
-2088.88
-2334.92
-2465.61
-2494.8
-2447.71
-2348.03
-2212.96
-2057.4
-1894.89
-1733.74
-1575.32
-1416.8
-1255.76
-1093.26
-933.65
-782.745
-645.867
-526.501
-425.729
-342.781
-275.864
-222.893
-181.733
-150.311
-126.74
-109.403
-96.9649
-88.2614
-82.2841
-78.3406
-76.0712
-74.5373
-73.5254
-72.9247
-72.5276
-72.3016
-72.1511
-71.9279
-71.4656
-70.6166
-69.2924
-67.478
-65.2203
-62.6081
-59.754
-56.7819
-53.8123
-50.9519
-48.2839
-45.8618
-43.7086
-41.821
-40.1775
-38.7466
-37.4942
-36.3882
-35.4009
-34.5092
-33.6945
-32.9417
-32.2392
-31.5788
-30.9533
-30.3549
-3919.57
-3175.77
-2146.63
-1049.97
76.823
1064.58
1890.78
2569.66
3140.61
3629.84
4019.46
4276.83
4395.95
4397.35
4302.22
4116.15
3842.73
3517.17
3209.88
2962.68
2741.52
2499.22
2237.29
1979.92
1738.61
1513.13
1301.65
1103.62
919.552
750.586
598.053
463.095
346.434
248.2
167.565
103.4
54.2046
17.984
-7.72096
-25.0719
-36.067
-42.5108
-45.9413
-47.5982
-48.4118
-49.0088
-49.7171
-50.5983
-51.5035
-52.2859
-53.3873
-54.7846
-56.4332
-58.2558
-60.0884
-61.6927
-62.828
-63.319
-63.0839
-62.1339
-60.5595
-58.5094
-56.163
-53.7005
-51.2777
-49.0076
-46.9545
-45.1391
-43.5499
-42.158
-40.9282
-39.8274
-38.8274
-37.9058
-37.0456
-36.2335
-35.4595
-34.7173
-34.0005
-33.3029
9486.11
9369.96
9203.85
8939.49
8571.85
8141.13
7681.57
7222.35
6786.21
6378.96
5990.05
5603.02
5201.7
4762.75
4259.39
3670.43
2972.55
2119.81
1167.26
421.452
108.147
78.8975
150.575
275.775
396.56
462.991
476.498
457.573
422.838
381.522
337.905
293.946
250.678
208.878
169.434
133.163
100.65
72.1546
48.1029
28.3469
12.4982
0.00771141
-9.7554
-17.4317
-23.6123
-28.7909
-33.3324
-37.4597
-41.3381
-45.2538
-49.0325
-52.7378
-56.3857
-59.8976
-63.0843
-65.6889
-67.4755
-68.2961
-68.1183
-67.0218
-65.1745
-62.8
-60.1396
-57.4168
-54.8092
-52.4326
-50.3395
-48.5304
-46.9728
-45.6187
-44.4197
-43.334
-42.3291
-41.3817
-40.4756
-39.5998
-38.747
-37.913
-37.0937
-36.2854
-4996.87
-4864.29
-4634.68
-4285.63
-3822.58
-3282.22
-2689.57
-2072.74
-1465.18
-908.628
-453.75
-147.103
-1.97565
27.2197
11.9825
-3.4907
0.126506
32.3813
83.6261
141.999
209.466
273.035
306.606
305.8
292.091
282.376
271.674
249.862
216.679
177.462
136.493
95.7259
56.171
19.1351
-14.0967
-42.4261
-65.1687
-82.1581
-93.6993
-100.468
-103.361
-103.35
-101.371
-98.2482
-94.6654
-91.1456
-88.0516
-85.5954
-83.861
-82.8194
-82.3451
-82.2565
-82.3417
-82.3759
-82.1456
-81.4779
-80.2621
-78.4608
-76.1104
-73.3116
-70.2139
-66.9913
-63.8169
-60.8364
-58.1493
-55.8014
-53.789
-52.0732
-50.5974
-49.3017
-48.1328
-47.048
-46.0163
-45.0173
-44.038
-43.0713
-42.1136
-41.1639
-40.2206
-39.283
-10274.4
-9915.55
-9474.31
-9005.59
-8515.95
-7997.26
-7398.16
-6698.75
-5934.38
-5135.79
-4279.11
-3356.51
-2449.55
-1664.76
-1056.51
-614.879
-298.86
-69.1074
98.765
220.38
314.083
390.948
445.073
467.43
446.229
371.829
254.459
116.691
-20.9097
-146.16
-252.973
-338.473
-401.633
-443.064
-464.371
-468.118
-457.548
-436.163
-407.376
-374.257
-339.384
-304.788
-271.953
-241.865
-215.089
-191.856
-172.137
-155.721
-142.272
-131.379
-122.588
-115.44
-109.492
-104.353
-99.6999
-95.301
-91.015
-86.7852
-82.6211
-78.5751
-74.7206
-71.1311
-67.8644
-64.9521
-62.3961
-60.1729
-58.2413
-56.5518
-55.0533
-53.6971
-52.4401
-51.2464
-50.09
-48.9535
-47.827
-46.7061
-45.5897
-44.4788
-43.3735
-42.2749
14280.7
14007
13632.9
13060
12202.1
11114.9
9824.79
8344.75
6663.83
4797.62
2898.56
1251.77
74.2878
-664.352
-1146.44
-1503.8
-1771.33
-1946.47
-2028.01
-2024.48
-1955.95
-1856.49
-1763.3
-1696.35
-1652.21
-1612.79
-1559.5
-1482.78
-1383.29
-1268.42
-1147.86
-1029.99
-920.552
-822.699
-737.151
-662.808
-598.499
-542.478
-493.337
-449.78
-410.505
-374.566
-341.378
-310.618
-282.142
-255.909
-231.929
-210.195
-190.637
-173.122
-157.473
-143.505
-131.054
-119.987
-110.212
-101.668
-94.3083
-88.0741
-82.8802
-78.609
-75.1164
-72.2452
-69.8418
-67.7713
-65.9279
-64.2377
-62.6554
-61.1546
-59.7183
-58.3313
-56.978
-55.6442
-54.3192
-52.997
-51.6758
-50.357
-49.0434
-47.7386
-46.4443
-45.1629
3576.35
3543.89
3515.56
3449.44
3278.3
3009.04
2665.33
2257.74
1775.37
1215.84
616.565
61.5486
-375.238
-705.23
-990.003
-1251.38
-1467.85
-1610.49
-1658.76
-1604.32
-1453.08
-1224.27
-948.179
-660.955
-395.776
-174.765
-6.11491
112.504
187.732
227.043
238.191
229.118
207.309
178.915
148.19
117.726
89.0337
62.9458
39.8271
19.7419
2.6497
-11.5651
-23.2081
-32.7482
-40.889
-47.8252
-53.7872
-58.9878
-63.642
-67.9869
-72.2684
-76.6976
-81.4135
-86.4792
-91.8994
-97.6282
-103.557
-109.494
-115.159
-120.19
-124.172
-126.668
-127.274
-125.748
-121.855
-115.623
-107.306
-97.4396
-86.8114
-76.3128
-66.7133
-58.4699
-51.6934
-46.2622
-41.9306
-38.4502
-35.6271
-33.2854
-31.2836
-29.529
-8221.85
-8093.93
-7919.1
-7673.69
-7361.16
-6984.49
-6563.04
-6137.52
-5753.43
-5437.5
-5178.66
-4916.98
-4573.91
-4104.6
-3544.69
-2989.29
-2514.57
-2132.69
-1812.23
-1515.04
-1221.07
-931.733
-661.42
-425.207
-232.784
-87.6456
12.1799
72.9194
102.792
110.276
104.022
90.8455
74.1563
55.4239
36.0877
17.8894
2.29927
-10.0313
-19.206
-25.7105
-30.1712
-33.2178
-35.415
-37.2806
-39.2773
-41.7734
-45.1362
-49.5655
-55.1225
-61.7428
-69.2684
-77.4963
-86.2239
-95.2746
-104.492
-113.709
-122.713
-131.218
-138.869
-145.253
-149.94
-152.485
-152.578
-149.8
-144.152
-135.777
-125.089
-112.833
-100.025
-87.7463
-76.8477
-67.7342
-60.3696
-54.4636
-49.6848
-45.7609
-42.4863
-39.6992
-37.2743
-35.1193
5821.08
5703.06
5556.7
5368.66
5125.51
4854.61
4554.16
4240
3951.41
3723.94
3573.74
3491.51
3442.06
3364.77
3183.8
2839.46
2320.14
1672.76
992.206
391.56
-42.0283
-289.607
-396.864
-430.817
-444.859
-466.33
-499.718
-537.365
-569.648
-589.435
-590.132
-565.587
-517.566
-457.931
-399.257
-346.891
-300.202
-257.507
-218.146
-182.477
-151.252
-125.09
-104.23
-88.5202
-77.5338
-70.773
-67.6132
-67.5236
-69.9925
-74.5099
-80.5979
-87.828
-95.814
-104.239
-112.82
-121.284
-129.345
-136.682
-142.945
-147.764
-150.775
-151.595
-150.085
-146.095
-139.608
-130.874
-120.443
-109.103
-97.7684
-87.2727
-78.162
-70.5983
-64.4232
-59.3272
-55.0153
-51.2784
-47.9825
-45.0348
-42.3671
-39.923
-1180.61
-1043.97
-854.41
-659.638
-498.553
-459.043
-538.496
-682.914
-835.539
-970.269
-1075.22
-1143.56
-1175.7
-1176.67
-1152.08
-1106.84
-1039.66
-937.879
-781.7
-564.405
-310.828
-67.0253
130.622
270.104
358.13
406.389
423.803
415.761
386.219
339.793
282.201
219.712
158.026
101.138
51.727
11.766
-17.6698
-37.2656
-48.9124
-55.0296
-58.0491
-59.9294
-61.8998
-64.5117
-67.8643
-71.8551
-76.3207
-81.2598
-86.8777
-92.6936
-98.5612
-104.423
-110.172
-115.687
-120.842
-125.504
-129.523
-132.731
-134.951
-136.002
-135.712
-133.877
-130.646
-125.875
-119.684
-112.409
-104.502
-96.4801
-88.8547
-82.0061
-76.0662
-70.9362
-66.4241
-62.3623
-58.6432
-55.2046
-52.0099
-49.0323
-46.2517
-43.645
-11130
-10245.7
-9223.91
-8501.08
-8015.61
-7652.55
-7255.85
-6805.66
-6326.55
-5849.58
-5408.58
-5032.37
-4743.48
-4557.45
-4480.31
-4502.05
-4587.45
-4670.91
-4665.01
-4489.7
-4113.45
-3570.6
-2941.17
-2310.98
-1741.46
-1262.32
-879.177
-584.152
-364.022
-204.644
-93.276
-19.3508
25.9191
49.6649
57.5755
54.3366
43.2742
26.9388
7.30184
-14.2806
-36.7356
-58.9882
-79.817
-98.0875
-113.025
-124.393
-132.642
-138.405
-142.084
-144.507
-145.911
-146.336
-145.904
-144.8
-143.145
-141.037
-138.529
-135.634
-132.339
-128.64
-124.679
-120.435
-115.669
-110.5
-105.134
-99.7867
-94.635
-89.7706
-85.1843
-80.8147
-76.6189
-72.5929
-68.7439
-65.0695
-61.5617
-58.2131
-55.0203
-51.9821
-49.0996
-46.3662
5305.84
5219.41
5143.23
5026.76
4762.49
4334.46
3794.9
3249.48
2773.41
2375.38
2032.19
1719.39
1422.65
1136.01
859.405
596.672
353.969
137.885
-46.5302
-198.515
-321.538
-419.99
-496.209
-552.206
-591.201
-617.55
-635.93
-650.624
-664.772
-679.914
-696.056
-711.974
-725.457
-733.528
-733.036
-721.651
-698.731
-665.762
-624.381
-577.614
-528.521
-479.372
-431.767
-386.887
-345.8
-309.596
-279.216
-255.034
-236.518
-222.375
-211.041
-201.233
-192.158
-183.418
-174.911
-166.617
-158.548
-150.726
-143.183
-135.944
-128.922
-122.358
-116.222
-110.495
-105.133
-100.069
-95.2387
-90.6001
-86.1459
-81.8822
-77.8051
-73.9004
-70.1535
-66.5538
-63.0954
-59.7767
-56.5995
-53.5654
-50.6775
-47.9283
6837.27
6656.33
6390.28
5986.59
5387.56
4644.42
3858.36
3144.25
2559.51
2096.01
1713.48
1378.42
1071.6
784.898
516.527
267.699
39.5155
-168.567
-356.789
-523.585
-668.123
-790.901
-892.745
-975.179
-1040.32
-1090.13
-1126.04
-1149.15
-1160.5
-1161.48
-1154.08
-1140.75
-1123.58
-1103.24
-1078.93
-1048.92
-1011.99
-966.932
-915.063
-857.357
-795.268
-730.851
-666.29
-603.557
-544.178
-489.143
-438.969
-393.852
-353.778
-318.561
-287.867
-261.238
-238.169
-218.183
-200.831
-185.701
-172.423
-160.681
-150.215
-140.822
-132.344
-124.626
-117.685
-111.306
-105.422
-99.9768
-94.9134
-90.1787
-85.7245
-81.5091
-77.4997
-73.6723
-70.0105
-66.5029
-63.1417
-59.922
-56.8417
-53.8992
-51.0954
-48.4163
-6144.68
-5917.61
-5677.52
-5489.74
-5319.38
-5131.99
-4847.63
-4429.75
-3927.95
-3449.18
-3082.44
-2852.03
-2729.44
-2671.76
-2641.11
-2606.95
-2550.82
-2470.38
-2373.62
-2269.73
-2166.14
-2068.48
-1979.7
-1899.89
-1827.05
-1757.59
-1687.19
-1612.03
-1529.75
-1439.92
-1345.29
-1252.64
-1168.3
-1094.36
-1028.93
-968.938
-911.664
-855.436
-798.986
-742.38
-686.157
-630.969
-577.454
-526.19
-477.71
-432.511
-391.069
-353.797
-320.936
-292.421
-267.859
-246.623
-228.027
-211.474
-196.528
-182.914
-170.466
-159.084
-148.694
-139.234
-130.643
-122.844
-115.638
-109.078
-103.084
-97.5787
-92.4965
-87.7797
-83.3777
-79.248
-75.3551
-71.67
-68.1697
-64.8361
-61.6557
-58.6188
-55.7186
-52.9498
-50.3098
-47.7802
-8392.79
-8139.13
-7788.26
-7342.96
-6793.12
-6185.54
-5533.57
-4864.57
-4220.53
-3641.14
-3143.17
-2720.73
-2356.26
-2032.9
-1740.58
-1476.63
-1243.48
-1046.51
-890.62
-778.41
-709.162
-678.184
-676.95
-695.027
-721.963
-745.444
-750.878
-730.484
-693.474
-658.214
-634.853
-621.327
-611.98
-602.434
-590.071
-573.78
-553.414
-529.652
-503.652
-476.177
-447.938
-419.642
-391.895
-365.138
-339.668
-315.661
-293.217
-272.392
-253.199
-235.605
-219.533
-204.871
-191.492
-179.263
-168.062
-157.776
-148.306
-139.574
-131.514
-124.074
-117.237
-110.921
-105.073
-99.655
-94.6288
-89.9553
-85.5972
-81.5197
-77.6901
-74.0793
-70.6615
-67.4147
-64.321
-61.3658
-58.5378
-55.8282
-53.2307
-50.7396
-48.3509
-46.0519
5511.49
5362.74
5180.5
4967.33
4712.51
4446.23
4174.22
3889.46
3576.07
3218.44
2814.23
2375.35
1923.45
1484.43
1081.61
731.144
440.511
209.771
31.6692
-105.879
-215.077
-303.572
-373.905
-427.585
-467.867
-496.89
-504.448
-470.985
-397.345
-315.848
-257.3
-226.743
-214.418
-211.255
-212.162
-214.329
-216.118
-216.693
-215.584
-213.064
-209.629
-205.58
-200.924
-195.455
-189.338
-182.664
-175.59
-168.35
-161.155
-154.156
-147.442
-141.067
-135.059
-129.414
-124.101
-119.068
-114.265
-109.649
-105.201
-100.991
-96.8941
-92.942
-89.1454
-85.5031
-82.014
-78.6743
-75.478
-72.4173
-69.483
-66.6657
-63.9562
-61.3462
-58.8284
-56.3968
-54.0465
-51.7735
-49.5752
-47.448
-45.3894
-43.396
89.3731
61.9716
-16.3232
-147.215
-305.312
-453.602
-580.393
-681.271
-750.529
-782.905
-775.199
-726.475
-640.54
-529.808
-414.012
-312.975
-239.159
-195.643
-180.456
-190.796
-223.532
-274.781
-339.737
-412.913
-488.242
-557.275
-606.931
-622.838
-600.834
-552.932
-498.318
-448.069
-401.378
-352.525
-298.233
-238.671
-176.222
-114.322
-56.847
-7.54434
30.5478
55.498
66.8315
65.6358
54.7217
37.4958
17.3185
-2.98904
-21.3821
-36.6728
-48.5024
-57.1897
-63.4198
-67.8693
-71.0151
-73.1362
-74.4043
-74.9606
-74.9347
-74.3035
-73.3108
-72.0422
-70.5615
-68.9263
-67.1823
-65.3651
-63.5016
-61.6125
-59.7129
-57.8141
-55.9244
-54.0501
-52.1961
-50.3663
-48.5639
-46.7916
-45.0519
-43.3459
-41.6748
-40.043
-6033.96
-5852.04
-5663.78
-5482.44
-5291.4
-5030.56
-4652.93
-4165.77
-3615.97
-3050.5
-2499.74
-1976.53
-1483.26
-1023.15
-609.954
-267.693
-14.1238
152.072
243.782
273.592
253.34
197.032
119.014
31.8196
-55.0045
-134.26
-200.452
-249.894
-280.638
-293.575
-292.353
-281.325
-263.908
-242.857
-219.499
-194.694
-169.568
-144.724
-120.706
-98.2773
-78.0708
-60.7665
-46.9729
-37.0206
-30.8044
-27.7567
-26.9748
-27.5305
-28.6759
-29.9515
-31.2387
-32.6643
-34.4088
-36.5428
-38.9775
-41.5209
-43.9814
-46.2084
-48.1025
-49.6591
-50.8496
-51.6549
-52.1054
-52.2376
-52.0903
-51.7034
-51.1154
-50.3618
-49.4742
-48.4801
-47.4024
-46.2603
-45.0698
-43.844
-42.5938
-41.3282
-40.0549
-38.7799
-37.5086
-36.2513
12962.4
12608.3
12102.9
11353.2
10260.7
9060.61
7944.27
7002.16
6226.22
5573.75
5011.07
4514.77
4062.58
3635.42
3226.07
2839.67
2486.36
2174.57
1908.37
1687.24
1505.82
1358.64
1241.88
1151.08
1080.48
1022.87
969.704
912.342
845.19
767.959
684.325
599.104
516.528
439.573
369.648
307.321
253.077
206.664
167.426
134.614
107.671
85.7102
67.6695
52.9216
41.0066
31.5372
24.1814
18.5872
14.3058
10.7593
7.31562
3.48039
-0.920435
-5.74495
-10.7881
-15.5892
-20.0607
-24.1026
-27.6658
-30.7424
-33.3056
-35.4029
-37.0612
-38.3153
-39.2062
-39.7778
-40.0737
-40.1357
-40.0015
-39.7044
-39.2729
-38.731
-38.0988
-37.393
-36.6279
-35.8152
-34.9652
-34.0863
-33.1858
-32.2783
-563.259
-290.121
37.968
346.28
652.926
948.53
1231.22
1476.73
1664.87
1788.74
1852.06
1863.18
1831.89
1766.97
1675.25
1564.12
1443.43
1323.33
1213.05
1118.58
1041.22
980.144
935.254
906.608
891.515
880.795
859.957
816.669
749.564
667.932
583.553
503.61
430.842
366.046
309.201
259.844
217.324
180.901
149.709
122.775
99.3267
79.0045
61.7007
47.1261
35.0301
25.246
17.6784
12.2317
8.67366
6.51974
5.05603
3.547
1.50227
-1.20124
-4.41005
-7.86589
-11.3412
-14.6738
-17.7587
-20.5446
-23.003
-25.1306
-26.9324
-28.4218
-29.6189
-30.5481
-31.2368
-31.7127
-32.0026
-32.1314
-32.1213
-31.9919
-31.7606
-31.4425
-31.0506
-30.5966
-30.0904
-29.5409
-28.9558
-28.3526
-6487.01
-6193.86
-5807.41
-5359.04
-4856.43
-4373.83
-3935.19
-3552.13
-3232.41
-2972.1
-2751.86
-2543.57
-2328.3
-2107.06
-1893.82
-1702.09
-1536.56
-1392.94
-1263.71
-1143.06
-1028
-916.765
-808.261
-704.042
-607.632
-523.084
-452.171
-392.743
-340.949
-294.657
-254.168
-218.726
-187.403
-159.383
-134.244
-111.892
-92.2697
-75.2962
-60.7537
-48.3049
-37.8969
-29.3803
-22.5083
-17.1347
-13.0808
-10.1268
-8.05962
-6.68905
-5.86499
-5.48751
-5.51035
-5.92443
-6.71441
-7.83142
-9.19866
-10.7302
-12.3467
-13.9854
-15.6056
-17.1692
-18.6516
-20.032
-21.2919
-22.4162
-23.3948
-24.2237
-24.9042
-25.442
-25.8458
-26.1264
-26.2957
-26.3659
-26.3491
-26.2564
-26.0983
-25.8838
-25.621
-25.3175
-24.9803
-24.6293
6099.34
5809.92
5442.37
4981.58
4344.2
3566.86
2649.38
1604.27
471.676
-666.428
-1689.1
-2486.6
-3010.57
-3277
-3340.99
-3271.28
-3129.9
-2955.85
-2763.86
-2556.37
-2335.41
-2104.88
-1869.07
-1631.98
-1399.52
-1179.6
-979.647
-803.465
-651.109
-521.054
-412.441
-325.608
-259.062
-209.602
-173.352
-146.668
-126.687
-111.311
-99.0711
-88.9392
-80.2251
-72.5871
-65.8067
-59.605
-53.849
-48.5194
-43.625
-39.1816
-35.1999
-31.6867
-28.6426
-26.0552
-23.9005
-22.1516
-20.781
-19.7583
-19.0512
-18.6256
-18.4462
-18.475
-18.6711
-18.9909
-19.3903
-19.8275
-20.2664
-20.6785
-21.043
-21.3471
-21.5847
-21.7553
-21.8627
-21.9138
-21.9165
-21.879
-21.8085
-21.711
-21.591
-21.4527
-21.2993
-21.153
-7781.07
-7506.49
-7143.09
-6674.66
-6071.95
-5329.04
-4427.19
-3386.26
-2284.96
-1239.68
-354.215
320.229
790.383
1099.4
1298.72
1419.47
1468.74
1446.45
1359.21
1222.58
1056.33
879.479
706.539
547.625
407.965
289.045
189.793
107.403
38.4254
-19.7113
-68.2013
-106.609
-134.518
-152.414
-161.679
-164.182
-161.801
-156.131
-148.397
-139.476
-129.974
-120.292
-110.711
-101.363
-92.3629
-83.8016
-75.7437
-68.243
-61.3383
-55.0541
-49.4014
-44.3773
-39.9648
-36.1356
-32.8532
-30.0759
-27.7599
-25.8604
-24.3313
-23.1245
-22.1901
-21.4774
-20.9375
-20.5252
-20.2013
-19.9334
-19.6971
-19.476
-19.2615
-19.0513
-18.847
-18.655
-18.4808
-18.3297
-18.2051
-18.1081
-18.037
-17.9892
-17.9584
-17.9665
3259.89
3520.96
3853.18
4136.81
4340.75
4444.91
4467.35
4404.9
4247.81
3998.86
3679.46
3320.05
2951.57
2600.17
2280.83
1998.66
1752.4
1535.11
1335.09
1139.86
941.002
736.621
530.366
329.506
143.707
-16.6353
-142.902
-231.056
-283.66
-309.248
-317.864
-317.284
-311.18
-300.793
-286.958
-270.75
-253.239
-235.215
-217.174
-199.45
-182.275
-165.702
-149.952
-135.231
-121.625
-109.154
-97.8125
-87.569
-78.3767
-70.1788
-62.9138
-56.5185
-50.9272
-46.0702
-41.873
-38.259
-35.1528
-32.4841
-30.1898
-28.2139
-26.5064
-25.0221
-23.7201
-22.5641
-21.5233
-20.5733
-19.6975
-18.8866
-18.1386
-17.4567
-16.8479
-16.3204
-15.8814
-15.5358
-15.2841
-15.1232
-15.045
-15.0383
-15.0832
-15.1981
11003.2
10499.8
9836
8930.34
7628.15
6117.04
4535.15
3017.56
1663.21
514.578
-429.098
-1188
-1783.91
-2234.89
-2557.14
-2766.7
-2876.85
-2896.4
-2833
-2698.11
-2506.28
-2275.82
-2024.29
-1766.22
-1513.14
-1275.12
-1060.84
-876.022
-722.201
-597.681
-499.362
-423.526
-365.841
-321.699
-286.986
-258.644
-234.662
-213.772
-195.149
-178.211
-162.599
-148.271
-135.014
-122.708
-111.355
-100.97
-91.5478
-83.0547
-75.4297
-68.5967
-62.4784
-57.0062
-52.1233
-47.7816
-43.9364
-40.5428
-37.5536
-34.9198
-32.5915
-30.5191
-28.6549
-26.9547
-25.3796
-23.8983
-22.4882
-21.1367
-19.8411
-18.6075
-17.4495
-16.3844
-15.4315
-14.6082
-13.9276
-13.3973
-13.0182
-12.7849
-12.686
-12.7046
-12.8131
-13.0303
-11965.3
-11049.6
-9813.09
-8446.85
-6996.62
-5634.07
-4421.11
-3409.72
-2635.78
-2096.02
-1753.98
-1564.46
-1483.58
-1468.17
-1472.05
-1457.82
-1413.68
-1354.81
-1299.07
-1243.83
-1175.55
-1088.42
-986.141
-871.104
-741.261
-597.693
-452.287
-325.022
-230.404
-169.412
-134.014
-115.338
-107.182
-105.326
-106.559
-108.38
-109.114
-108.265
-106.07
-102.481
-97.7351
-92.2698
-86.4648
-80.6655
-75.076
-69.8061
-64.8998
-60.3595
-56.1707
-52.3195
-48.7982
-45.6029
-42.7245
-40.1429
-37.8278
-35.7432
-33.8515
-32.1167
-30.5062
-28.9895
-27.5382
-26.1257
-24.7292
-23.3319
-21.9254
-20.5111
-19.1014
-17.7176
-16.3889
-15.1485
-14.0281
-13.0552
-12.25
-11.6234
-11.1771
-10.9052
-10.7959
-10.8371
-11.0154
-11.4073
-26.5684
-22.9152
-19.9355
-17.5534
-15.6882
-14.208
-12.9452
-11.773
-10.637
-9.52794
-8.47329
-7.50982
-6.66596
-5.95872
-5.39251
-4.95279
-4.60109
-4.28353
-3.95439
-3.59785
-3.22863
-2.87506
-2.55907
-2.29043
-2.06683
-1.88045
-1.72294
-1.58746
-1.4686
-1.36224
-1.26659
-1.18016
-1.10173
-1.03036
-0.965248
-0.9057
-0.851092
-0.800943
-0.754858
-0.712444
-0.673323
-0.637211
-0.603889
-0.57311
-0.544612
-0.518198
-0.493729
-0.47104
-0.44994
-0.430277
-0.411955
-0.394864
-0.378871
-0.363879
-0.349853
-0.336769
-0.324559
-0.313146
-0.302478
-0.292516
-0.283204
-0.274471
-0.266269
-0.258566
-0.251313
-0.244452
-0.237945
-0.231789
-0.225984
-0.220499
-0.215288
-0.210322
-0.205591
-0.201088
-0.196793
-0.192686
-0.188756
-0.185002
-0.181424
-0.17802
-0.174787
-0.171724
-0.168814
-0.166034
-0.16336
-0.160783
-0.158309
-0.155947
-0.153693
-0.151531
-0.149444
-0.14742
-0.145456
-0.143549
-0.141698
-0.139896
-0.13814
-0.136431
-0.134768
-0.133151
-0.131569
-0.130015
-0.128483
-0.126971
-0.125475
-0.123985
-0.122498
-0.121017
-0.119553
-0.11812
-0.116716
-0.115335
-0.113969
-0.112614
-0.111273
-0.109946
-0.108628
-0.107314
-0.106006
-0.104707
-0.103419
-0.102137
-0.100853
-0.0995665
-0.0982803
-0.0969938
-0.0956941
-0.0943597
-0.0929762
-0.0915493
-0.0901043
-0.0886708
-0.087265
-0.0858859
-0.084525
-0.0831804
-0.0818619
-0.0805831
-0.0793487
-0.0781476
-0.0769567
-0.0757521
-0.0745192
-0.0732566
-0.0719729
-0.0706807
-0.0693898
-0.0681042
-0.0668219
-0.0655378
-0.0642486
-0.0629556
-0.0616632
-0.0603764
-0.0590962
-0.0578196