/*--------------------------------*- C++ -*----------------------------------*\
| =========                 |                                                 |
| \\      /  F ield         | OpenFOAM: The Open Source CFD Toolbox           |
|  \\    /   O peration     | Version:  2012                                  |
|   \\  /    A nd           | Website:  www.openfoam.com                      |
|    \\/     M anipulation  |                                                 |
\*---------------------------------------------------------------------------*/
FoamFile
{
    version     2.0;
    format      ascii;
    class       surfaceScalarField;
    location    "0.03";
    object      phi;
}
// * * * * * * * * * * * * * * * * * * * * * * * * * * * * * * * * * * * * * //

dimensions      [0 3 -1 0 0 0 0];
oriented        oriented;


internalField   nonuniform List<scalar> 
84340
(
-1.03796e-05
-9.4297e-05
0.000104677
0.000519187
-0.000390412
-0.000139154
0.00147294
-0.000620735
-0.000333017
0.0025846
-0.000704637
-0.000407024
0.00371384
-0.000739299
-0.00038994
0.00477465
-0.000751569
-0.000309242
0.00570142
-0.000714687
-0.000212082
0.0064264
-0.000591533
-0.000133449
0.0068932
-0.000378587
-8.82124e-05
0.00707736
-0.00010596
-7.81962e-05
0.00698815
0.00018563
-9.64195e-05
0.00666934
0.000465896
-0.000147088
0.00616393
0.000717388
-0.000211975
0.00551532
0.000928359
-0.00027975
0.00475005
0.00108716
-0.000321896
0.0039068
0.00118371
-0.000340459
0.00302155
0.00122016
-0.000334912
0.00213371
0.0011954
-0.000307567
0.00126488
0.00113438
-0.000265547
0.000430272
0.00105228
-0.000217667
-0.000364637
0.000964072
-0.000169162
-0.00112359
0.000876575
-0.000117619
-0.00185447
0.000782596
-5.17196e-05
-0.00255874
0.000658968
4.53058e-05
-0.00322047
0.000491849
0.000169874
-0.00380538
0.000320475
0.000264436
-0.00427519
0.000215802
0.000254011
-0.00459577
0.00019839
0.000122192
-0.00475874
0.000217976
-5.50092e-05
-0.00477815
0.000217646
-0.000198233
-0.00468595
0.000185419
-0.000277623
-0.00451687
0.000127915
-0.000296991
-0.00429609
5.25563e-05
-0.000273344
-0.0040377
-3.70647e-05
-0.000221323
-0.00374819
-0.000137519
-0.000151985
-0.00343793
-0.000238651
-7.1617e-05
-0.00310492
-0.000350971
1.79687e-05
-0.00275987
-0.000452499
0.000107445
-0.00240548
-0.00053756
0.000183166
-0.00205698
-0.000599359
0.000250862
-0.00173031
-0.000634337
0.000307672
-0.00143627
-0.000643138
0.000349092
-0.00118041
-0.000629833
0.000373969
-0.000963524
-0.000599963
0.000383082
-0.000782574
-0.000559361
0.000378411
-0.000632913
-0.000512484
0.000362823
-0.000509604
-0.000462976
0.000339667
-0.00040828
-0.000413861
0.000312538
-0.000325535
-0.000367777
0.000285032
-0.000258837
-0.000327208
0.000260509
-0.000206223
-0.00029446
0.000241846
-0.000165941
-0.000271464
0.000231182
-0.000136177
-0.000259516
0.000229752
-0.000114827
-0.000259197
0.000237846
-9.94601e-05
-0.000270359
0.000254992
-8.75296e-05
-0.000292293
0.000280362
-7.66087e-05
-0.000324098
0.000313178
-6.459e-05
-0.000364922
0.000352903
-4.97894e-05
-0.000414027
0.000399226
-3.09559e-05
-0.000470753
0.000451919
-7.221e-06
-0.00053439
0.000510655
2.19619e-05
-0.000604029
0.000574847
5.68588e-05
-0.000678454
0.000643557
9.74635e-05
-0.000756073
0.000715468
0.000143486
-0.000834927
0.000788904
0.000194365
-0.00091278
0.000861901
0.00024929
-0.000987258
0.000932333
0.000307276
-0.00105604
0.000998053
0.000367258
-0.00111705
0.00105707
0.000428184
-0.00116861
0.00110769
0.000489113
-0.0012096
0.00114867
0.000549271
-0.00123949
0.00117933
0.000608088
-0.00125835
0.00119954
0.000665173
-0.00126684
0.00120975
0.000720244
-0.00126602
0.00121095
0.000773007
-0.0012573
0.00120454
0.000823033
-0.00124234
0.00119231
0.000869657
-0.00122298
0.00117636
0.00091187
-0.00120151
0.0011593
-0.00118228
0.00114602
0.000948129
-0.000140613
4.63161e-05
-0.000482638
-4.83881e-05
-0.00093518
-0.000168193
-0.00126046
-0.000379358
-0.00130568
-0.000694081
-0.00106443
-0.000992817
-0.000600662
-0.00117846
1.75357e-05
-0.00120973
0.000736615
-0.00109767
0.00150329
-0.000872633
0.00226539
-0.000576471
0.0029839
-0.000252617
0.0036497
5.15893e-05
0.00430071
0.000277348
0.00500299
0.000384883
0.00580144
0.000385259
0.00669561
0.000325996
0.00764034
0.000250671
0.00859229
0.000182425
0.00950714
0.000137431
0.0103327
0.000138504
0.0109964
0.0002129
0.0114017
0.00037725
0.0114453
0.000615368
0.0110545
0.000882687
0.0102596
0.00111539
0.00920879
0.00126659
0.00808793
0.00131925
0.00702705
0.00127885
0.00607426
0.00117044
0.00523803
0.00102165
0.00451215
0.000853793
0.00388716
0.000677545
0.00335134
0.000498764
0.0028899
0.000323919
0.00249023
0.000161015
0.00212077
1.84938e-05
0.0017649
-9.66307e-05
0.0014264
-0.000199061
0.0010989
-0.000271853
0.000786516
-0.000321957
0.000497745
-0.000354366
0.000240642
-0.00037273
2.15171e-05
-0.000380838
-0.000156676
-0.000381168
-0.000293354
-0.000375805
-0.000390044
-0.000366286
-0.000449737
-0.000354168
-0.000476284
-0.00034123
-0.000474137
-0.000329355
-0.000448201
-0.000320396
-0.000403693
-0.000315972
-0.000345843
-0.000317366
-0.000279589
-0.000325452
-0.000209139
-0.000340809
-0.000137663
-0.000363769
-6.72585e-05
-0.000394503
8.97048e-07
-0.000433077
6.63196e-05
-0.000479449
0.000128981
-0.000533414
0.000189104
-0.000594512
0.000246989
-0.000661914
0.000302878
-0.000734343
0.00035685
-0.000810046
0.000408785
-0.000886862
0.00045838
-0.000962376
0.000505249
-0.00103413
0.000549033
-0.00109982
0.000589508
-0.00115752
0.000626647
-0.00120575
0.000660657
-0.00124361
0.000691978
-0.00127081
0.000721277
-0.00128765
0.000749398
-0.00129496
0.000777274
-0.0012939
0.000805797
-0.00128582
0.00083569
-0.00127223
0.000867461
-0.00125475
0.000901452
-0.0012355
-0.00121861
0.000937782
0.000397127
-0.000350811
0.000747714
-0.000398975
0.000883174
-0.000303652
0.00102243
-0.000518618
0.00126612
-0.000937767
0.00157987
-0.00130657
0.00192466
-0.00152325
0.00231079
-0.00159585
0.00273199
-0.00151887
0.00310226
-0.0012429
0.0032395
-0.000713716
0.0029692
1.76839e-05
0.00231288
0.000707914
0.00154623
0.00104399
0.000972877
0.00095824
0.000669812
0.000688323
0.000535846
0.000459962
0.000483349
0.000303168
0.000492192
0.000173582
0.000569121
6.05019e-05
0.000721084
-1.34582e-05
0.000954323
-2.03394e-05
0.00122188
0.000109697
0.0014937
0.000343549
0.00175155
0.000624831
0.00198225
0.000884694
0.00217946
0.00106937
0.00233565
0.00116307
0.00243724
0.00117726
0.00247537
0.00113231
0.00245086
0.00104616
0.0023724
0.00093225
0.0022492
0.000800749
0.00208708
0.000660886
0.0018889
0.000522095
0.00165673
0.00039319
0.00139659
0.000278628
0.00112291
0.000177048
0.000839178
8.46736e-05
0.000568842
-1.5174e-06
0.000331649
-8.47645e-05
0.000142781
-0.000165497
9.05645e-06
-0.000239006
-7.10594e-05
-0.000300722
-0.000104928
-0.000347299
-0.000103377
-0.000377357
-7.77846e-05
-0.000391878
-3.79781e-05
-0.000393975
8.97094e-06
-0.000388179
5.89926e-05
-0.000379376
0.0001104
-0.000371804
0.000162902
-0.000368473
0.00021668
-0.000371143
0.000271837
-0.000380608
0.000328135
-0.000397107
0.000385036
-0.000420669
0.000441838
-0.000451305
0.000497807
-0.000489047
0.000552255
-0.000533897
0.000604539
-0.000585699
0.000654026
-0.000643998
0.000700025
-0.000707914
0.000741763
-0.000776082
0.000778406
-0.000846688
0.000809141
-0.000917597
0.000833326
-0.00098656
0.000850643
-0.00105144
0.000861216
-0.0011104
0.000865642
-0.00116195
0.000864927
-0.00120504
0.00086037
-0.00123905
0.000853444
-0.00126388
0.000845717
-0.00127993
0.000838788
-0.00128803
0.000834198
-0.00128931
0.000833313
-0.00128494
0.000837195
-0.00127611
0.000846484
-0.00126404
0.000861298
-0.00125032
-0.00123818
0.000880872
-0.000605283
0.000254471
-0.00134158
0.000337319
-0.00176781
0.000122578
-0.00211735
-0.000169077
-0.00276257
-0.000292541
-0.00388618
-0.000182962
-0.00535679
-5.26329e-05
-0.00690072
-5.19238e-05
-0.00828397
-0.000135626
-0.00934097
-0.000185903
-0.00997658
-7.81036e-05
-0.0101681
0.000209174
-0.00995291
0.000492756
-0.00945504
0.000546125
-0.00882304
0.000326241
-0.00816069
2.59696e-05
-0.00751606
-0.000184668
-0.00691654
-0.000296349
-0.00639203
-0.000350928
-0.00597196
-0.000359573
-0.00566139
-0.000324023
-0.00543924
-0.000242488
-0.0052194
-0.000110146
-0.0049396
6.37475e-05
-0.00456742
0.000252649
-0.00410781
0.000425084
-0.00359804
0.000559598
-0.00308182
0.000646852
-0.00259087
0.000686308
-0.0021406
0.000682044
-0.00173524
0.000640799
-0.00137408
0.00057109
-0.00105528
0.000481944
-0.000775631
0.000381238
-0.00052841
0.000274874
-0.000304249
0.000169028
-9.30621e-05
6.74416e-05
0.000113672
-2.9686e-05
0.000314906
-0.00011656
0.000508964
-0.000195576
0.000687116
-0.000262916
0.000837529
-0.00031591
0.00095105
-0.000352526
0.00102256
-0.000372231
0.00105226
-0.000376997
0.00104619
-0.000371289
0.00101487
-0.00036056
0.000970542
-0.000349646
0.000924446
-0.000342082
0.000884885
-0.000339815
0.000856725
-0.000343644
0.000841986
-0.000353735
0.000840726
-0.000369884
0.000851839
-0.000391721
0.000873612
-0.000418879
0.000904039
-0.000451096
0.000940976
-0.000488242
0.000982195
-0.000530265
0.00102539
-0.00057709
0.00106817
-0.000628482
0.00110811
-0.000683939
0.00114281
-0.000742612
0.00117003
-0.000803299
0.00118787
-0.000864527
0.00119498
-0.000924707
0.00119075
-0.000982332
0.00117545
-0.00103614
0.00115022
-0.00108517
0.00111695
-0.00112868
0.001078
-0.00116609
0.00103591
-0.00119696
0.000993161
-0.00122114
0.000952064
-0.00123883
0.000914664
-0.00125063
0.000882714
-0.00125736
0.000857623
-0.00125985
0.000840409
-0.0012589
0.000831667
-0.0012553
0.000831508
-0.00125016
-0.00124586
0.000839181
0.000217477
3.69941e-05
0.000608293
-5.34968e-05
0.00111125
-0.000380384
0.00155414
-0.000611961
0.00171353
-0.000451929
0.00153707
-6.50413e-06
0.00109206
0.000392379
0.000481468
0.000558665
-0.000178657
0.000524499
-0.000749667
0.000385107
-0.00105853
0.000230757
-0.000973879
0.000124526
-0.000563828
8.27038e-05
-9.8671e-05
8.09683e-05
0.000153297
7.42738e-05
0.000140298
3.89681e-05
-2.94161e-05
-1.49539e-05
-0.000257713
-6.80526e-05
-0.000506618
-0.000102024
-0.000765062
-0.000101129
-0.00102985
-5.92388e-05
-0.00128999
1.7654e-05
-0.00152488
0.000124745
-0.00170376
0.00024263
-0.00180868
0.000357564
-0.00184042
0.000456824
-0.00181013
0.000529312
-0.00172939
0.000566107
-0.00160695
0.000563871
-0.00144867
0.000523761
-0.00125876
0.00045089
-0.00104269
0.00035502
-0.000806702
0.000245958
-0.000557111
0.000131648
-0.000297865
1.5627e-05
-4.35013e-05
-8.53348e-05
0.000191426
-0.000167486
0.000392183
-0.000230443
0.000562425
-0.000286802
0.000697146
-0.000330297
0.00079427
-0.000360041
0.000854232
-0.000375872
0.000880414
-0.000378709
0.00087916
-0.000370976
0.000859218
-0.000357056
0.000830097
-0.000342168
0.000801759
-0.000332222
0.00078192
-0.000329807
0.000777086
-0.000337248
0.000790093
-0.000352821
0.000820747
-0.000374298
0.000866795
-0.000399782
0.000924938
-0.000428027
0.00099162
-0.000458402
0.00106345
-0.00049071
0.00113735
-0.000524992
0.00121048
-0.000561373
0.00128017
-0.000599957
0.00134381
-0.000640731
0.00139883
-0.000683506
0.00144278
-0.000727881
0.00147341
-0.000773247
0.00148896
-0.000818847
0.00148831
-0.000863884
0.00147128
-0.000907671
0.0014387
-0.000949754
0.00139248
-0.000989927
0.00133542
-0.0010281
0.00127083
-0.00106409
0.00120219
-0.00109745
0.00113279
-0.00112756
0.00106555
-0.0011539
0.00100294
-0.00117622
0.000946936
-0.00119463
0.00089904
-0.00120946
0.000860266
-0.00122107
0.000831196
-0.00122983
0.000812037
-0.00123614
0.000802609
-0.00124073
-0.00124522
0.000801977
4.19333e-05
-4.93885e-06
0.000133254
-0.000144817
0.00015305
-0.00040018
0.00013855
-0.000597461
0.000295835
-0.000609214
0.000749057
-0.000459726
0.00138759
-0.00024615
0.00199595
-4.9696e-05
0.00242071
9.97354e-05
0.00260576
0.000200054
0.00257704
0.000259485
0.00241007
0.000291496
0.00215487
0.000337898
0.0018094
0.000426441
0.0013317
0.00055197
0.000686516
0.000684155
-0.000118732
0.000790294
-0.00102444
0.000837655
-0.00194711
0.000820646
-0.0027985
0.000750264
-0.00350822
0.000650476
-0.00403627
0.000545712
-0.00436377
0.000452238
-0.00449727
0.000376134
-0.00445524
0.000315529
-0.00426272
0.000264307
-0.00394854
0.000215137
-0.00354445
0.000162017
-0.00308185
0.000101263
-0.00259089
3.2804e-05
-0.0021002
-3.97983e-05
-0.00163286
-0.00011232
-0.00120411
-0.000182799
-0.000823636
-0.000248821
-0.000511979
-0.00029603
-0.000270116
-0.000327197
-9.0806e-05
-0.000346796
3.72312e-05
-0.000358481
0.000116012
-0.000365583
0.000156362
-0.000370647
0.000171961
-0.000375639
0.000177541
-0.000381453
0.000187018
-0.000388186
0.000211541
-0.000395499
0.000257634
-0.000403149
0.00032672
-0.000411254
0.000415006
-0.000420508
0.000516833
-0.000431634
0.000624793
-0.000445208
0.000733316
-0.000461344
0.000838891
-0.000479873
0.000939648
-0.000500538
0.00103473
-0.000523105
0.00112371
-0.000547387
0.00120624
-0.00057324
0.00128178
-0.000600529
0.0013495
-0.000629096
0.00140828
-0.000658733
0.00145671
-0.000689164
0.00149326
-0.000720057
0.00151643
-0.000751049
0.00152499
-0.000781809
0.00151827
-0.000812122
0.00149636
-0.000841975
0.0014603
-0.000871612
0.00141204
-0.000901491
0.0013542
-0.000932093
0.00128976
-0.000963658
0.00122163
-0.000995955
0.00115246
-0.00102828
0.00108461
-0.00105971
0.00102014
-0.00108942
0.000960825
-0.00111691
0.000908149
-0.00114196
0.000863212
-0.00116452
0.000826739
-0.0011846
0.000799117
-0.00120221
0.000780453
-0.00121747
0.000770571
-0.00123085
-0.00124341
0.000768761
0.000167147
-0.000172086
0.000434343
-0.000412013
0.000584976
-0.000550813
0.000638202
-0.000650687
0.000761723
-0.000732735
0.00105903
-0.000757036
0.00149711
-0.000684226
0.00189824
-0.000450832
0.00206217
-6.41849e-05
0.00190118
0.000361035
0.00157237
0.000588296
0.00137853
0.000485336
0.00150702
0.000209415
0.00192098
1.24797e-05
0.00248863
-1.56805e-05
0.00310022
7.25681e-05
0.00369052
0.000199993
0.00421453
0.000313646
0.00465419
0.000380978
0.0050085
0.000395961
0.00528403
0.000374947
0.00548817
0.00034157
0.00562706
0.000313348
0.00570608
0.000297107
0.0057298
0.000291813
0.00569927
0.000294841
0.00561603
0.00029837
0.00547831
0.000299743
0.00528275
0.000296825
0.0050262
0.00028935
0.0047044
0.000282005
0.004327
0.000265076
0.00390359
0.000240613
0.00344684
0.000207928
0.00298589
0.000164915
0.00254883
0.000109869
0.00215807
4.39601e-05
0.00182816
-2.85659e-05
0.00156428
-0.000101708
0.00136343
-0.000169798
0.00121568
-0.000227883
0.00110937
-0.000275143
0.00103363
-0.000312445
0.000978348
-0.00034022
0.000938911
-0.000363712
0.000912267
-0.00038461
0.000896289
-0.00040453
0.000889274
-0.000424618
0.00088964
-0.000445574
0.000896059
-0.000467763
0.000907491
-0.000491305
0.000923105
-0.000516152
0.000942152
-0.000542151
0.000963839
-0.000569073
0.000987242
-0.000596643
0.00101126
-0.000624544
0.0010346
-0.000652442
0.00105587
-0.000680003
0.00107364
-0.000706931
0.0010866
-0.000733014
0.00109372
-0.000758172
0.00109442
-0.000782515
0.00108867
-0.000806372
0.00107698
-0.000830276
0.00106024
-0.000854876
0.00103952
-0.000880767
0.00101571
-0.000908284
0.000989402
-0.000937354
0.000960945
-0.000967499
0.000930689
-0.000998026
0.000899251
-0.00102827
0.00086761
-0.00105778
0.000836994
-0.00108629
0.00080868
-0.00111364
0.000783811
-0.00113965
0.00076332
-0.00116411
0.000747922
-0.00118681
0.000738129
-0.00120768
0.000734212
-0.00122693
-0.00124524
0.000736037
0.000234322
-0.000406408
0.000700023
-0.000877715
0.00129116
-0.00114195
0.00198842
-0.00134795
0.00278409
-0.0015284
0.00365436
-0.00162731
0.00449871
-0.00152858
0.0051262
-0.00107833
0.00531506
-0.000253037
0.00493669
0.000739401
0.00399894
0.00152605
0.00263861
0.00184567
0.00106834
0.00177969
-0.000495699
0.00157652
-0.00187884
0.00136746
-0.00296052
0.00115425
-0.00367528
0.00091475
-0.00400632
0.000644689
-0.00397915
0.000353805
-0.00367025
8.70633e-05
-0.00316687
-0.000128433
-0.00255202
-0.000273281
-0.00189405
-0.000344621
-0.00124432
-0.000352618
-0.000647941
-0.000304569
-0.000132192
-0.000220908
0.000284762
-0.000118585
0.000593644
-9.13864e-06
0.000793231
9.72383e-05
0.000891132
0.00019145
0.000907749
0.000265388
0.000861406
0.000311419
0.000774854
0.000327166
0.000672852
0.00030993
0.000576999
0.000260767
0.000501146
0.000185722
0.000450863
9.42441e-05
0.00041987
2.42689e-06
0.000398542
-8.03797e-05
0.000382587
-0.000153843
0.000366863
-0.000212159
0.000346739
-0.000255019
0.000321028
-0.000286734
0.000292699
-0.000311891
0.000263594
-0.000334607
0.000236806
-0.000357822
0.000214938
-0.000382662
0.000199587
-0.000409268
0.000191378
-0.000437365
0.000190168
-0.000466552
0.000195343
-0.00049648
0.000206076
-0.000526886
0.000221485
-0.00055756
0.000240723
-0.000588311
0.000263016
-0.000618935
0.000287689
-0.000649217
0.000314183
-0.000678936
0.000342074
-0.000707893
0.000371084
-0.000735942
0.000401085
-0.000763015
0.000432064
-0.000789152
0.000464052
-0.000814503
0.00049699
-0.00083931
0.000530566
-0.000863853
0.000564068
-0.000888377
0.000596323
-0.000913022
0.000625832
-0.000937793
0.000651079
-0.0009626
0.000670936
-0.000987355
0.000684969
-0.00101206
0.000693511
-0.00103682
0.000697495
-0.00106176
0.000698166
-0.00108696
0.000696834
-0.00111231
0.00069473
-0.00113755
0.000692954
-0.00116233
0.00069248
-0.00118633
0.00069414
-0.00120934
0.000698574
-0.00123137
-0.00125278
0.000706112
-0.000495608
8.92007e-05
-0.00126063
-0.000112696
-0.0019894
-0.000413174
-0.00273457
-0.000602783
-0.00356068
-0.00070229
-0.0044215
-0.000766492
-0.00520931
-0.000740758
-0.00577561
-0.000512026
-0.00599926
-2.93904e-05
-0.00583493
0.000575067
-0.00541001
0.00110113
-0.00499696
0.00143262
-0.00477401
0.00155673
-0.00471531
0.00151783
-0.00471255
0.00136469
-0.00469279
0.00113449
-0.00463323
0.000855192
-0.00454033
0.000551791
-0.00444211
0.000255581
-0.00434582
-9.22065e-06
-0.00425911
-0.000215147
-0.00418505
-0.000347348
-0.00412072
-0.000408944
-0.00405948
-0.000413862
-0.00398435
-0.000379696
-0.00388395
-0.000321308
-0.00375388
-0.000248652
-0.0035965
-0.000166518
-0.0034197
-7.95699e-05
-0.00322986
1.60889e-06
-0.00302734
6.28752e-05
-0.00281006
9.414e-05
-0.0025746
9.16974e-05
-0.00232031
5.56411e-05
-0.0020379
-2.16355e-05
-0.00174243
-0.000109756
-0.00144586
-0.000202318
-0.00115539
-0.000288042
-0.000881538
-0.000354237
-0.00064326
-0.000392122
-0.000453531
-0.000401888
-0.000316382
-0.000392168
-0.000226393
-0.000376723
-0.000172143
-0.00036614
-0.000141204
-0.000365546
-0.00012418
-0.000374846
-0.000115094
-0.000391749
-0.000110492
-0.000413869
-0.000108326
-0.000439531
-0.000107063
-0.000467815
-0.000105297
-0.000498246
-0.000101672
-0.00053051
-9.49359e-05
-0.000564296
-8.40226e-05
-0.000599224
-6.81134e-05
-0.000634844
-4.66595e-05
-0.000670671
-1.93812e-05
-0.000706214
1.37423e-05
-0.000741017
5.24763e-05
-0.000774676
9.63231e-05
-0.000806862
0.000144504
-0.000837332
0.000195937
-0.000865936
0.000249235
-0.000892608
0.000302758
-0.000917375
0.000354727
-0.000940346
0.000403437
-0.000961733
0.000447503
-0.000981858
0.000486064
-0.00100116
0.000518878
-0.00102017
0.000546243
-0.00103942
0.000568813
-0.00105939
0.000587382
-0.00108033
0.000602745
-0.00110232
0.000615643
-0.00112521
0.000626779
-0.00114869
0.000636843
-0.0011724
0.00064652
-0.00119601
0.000656467
-0.00121929
0.000667254
-0.00124215
-0.00126479
0.000679268
5.61642e-06
8.35839e-05
-0.000411976
0.000304896
-0.00135105
0.000525896
-0.0026295
0.000675673
-0.00400895
0.000677157
-0.00527603
0.000500588
-0.00623012
0.000213334
-0.00669635
-4.57933e-05
-0.00653396
-0.000191781
-0.00571274
-0.000246154
-0.00434443
-0.000267184
-0.00262627
-0.000285547
-0.00076684
-0.000302694
0.00106696
-0.00031597
0.00275905
-0.000327396
0.00423539
-0.000341858
0.0054565
-0.000365913
0.00641055
-0.000402262
0.00711018
-0.000444047
0.00757588
-0.000474926
0.00783973
-0.000478991
0.00793948
-0.000447097
0.0079186
-0.000388071
0.00782535
-0.000320609
0.00770834
-0.00026269
0.00759587
-0.000208836
0.00750705
-0.000159835
0.00744355
-0.000103012
0.00739273
-2.87521e-05
0.0073341
6.02364e-05
0.00724748
0.000149499
0.00711667
0.00022495
0.00693279
0.000275573
0.00668717
0.000301267
0.00635965
0.000305881
0.00595535
0.000294542
0.00548007
0.00027296
0.00494412
0.000247914
0.00436324
0.000226637
0.00375828
0.00021284
0.00315407
0.000202329
0.00257782
0.000184081
0.00205556
0.000145533
0.0015984
9.1024e-05
0.00121451
1.83369e-05
0.000902767
-6.30998e-05
0.000656033
-0.000145015
0.000464787
-0.000222624
0.000319365
-0.000294109
0.000211173
-0.000359623
0.000133101
-0.000420174
7.94732e-05
-0.000476882
4.58154e-05
-0.000530638
2.85875e-05
-0.000581996
2.49444e-05
-0.000631201
3.25421e-05
-0.000678269
4.93839e-05
-0.000723056
7.37004e-05
-0.000765333
0.000103858
-0.000804834
0.000138307
-0.000841311
0.000175553
-0.000874579
0.000214177
-0.00090456
0.000252893
-0.000931324
0.000290622
-0.000955104
0.000326576
-0.0009763
0.000360304
-0.000995461
0.000391682
-0.00101324
0.000420833
-0.00103031
0.000447997
-0.00104733
0.000473403
-0.00106483
0.000497197
-0.00108318
0.00051943
-0.00110256
0.000540108
-0.001123
0.000559262
-0.00114436
0.000576999
-0.00116642
0.00059352
-0.00118892
0.00060912
-0.00121161
0.000624146
-0.00123431
0.000638949
-0.00125695
-0.00127966
0.000653812
0.000274143
-0.000190559
0.000600889
-2.18499e-05
0.000820556
0.000306229
0.000973668
0.000522561
0.00106951
0.000581318
0.00109494
0.000475154
0.0010519
0.000256376
0.000995807
1.02996e-05
0.00100544
-0.000201415
0.0011069
-0.000347617
0.00125528
-0.000415564
0.00136872
-0.000398989
0.00136272
-0.000296693
0.00117709
-0.000130337
0.000801235
4.84598e-05
0.000281444
0.000177932
-0.00028842
0.000203951
-0.000789173
9.84907e-05
-0.0011071
-0.000126116
-0.00118898
-0.000393044
-0.00105854
-0.000609437
-0.00078268
-0.000722955
-0.000428931
-0.000741819
-4.48026e-05
-0.000704737
0.00033739
-0.000644883
0.00070812
-0.000579565
0.00106367
-0.000515384
0.00141208
-0.000451427
0.00176788
-0.000384552
0.00213042
-0.000302301
0.00247175
-0.00019183
0.00274746
-5.07545e-05
0.0029454
7.76298e-05
0.00304626
0.000200408
0.0030372
0.000314941
0.00291637
0.000415368
0.00269482
0.00049451
0.00239696
0.000545779
0.0020585
0.000565092
0.00171964
0.000551699
0.00141448
0.000507494
0.0011617
0.000436859
0.000960986
0.000346247
0.000810452
0.000241558
0.000695572
0.000133217
0.000590442
4.20303e-05
0.000494884
-4.94574e-05
0.000407993
-0.000135732
0.000329348
-0.000215464
0.000259213
-0.000289488
0.000198077
-0.000359038
0.000146383
-0.000425189
0.000104403
-0.000488658
7.2198e-05
-0.00054979
4.96213e-05
-0.000608624
3.63379e-05
-0.000664985
3.18391e-05
-0.000718557
3.54538e-05
-0.000768948
4.6364e-05
-0.000815743
6.36274e-05
-0.000858574
8.62263e-05
-0.000897177
0.000113124
-0.000931457
0.000143325
-0.000961526
0.000175935
-0.000987713
0.000210176
-0.00101054
0.000245394
-0.00103068
0.000281025
-0.00104887
0.000316561
-0.00106585
0.000351525
-0.0010823
0.00038547
-0.00109878
0.000417989
-0.0011157
0.00044875
-0.00113333
0.000477514
-0.00115176
0.000504152
-0.001171
0.000528657
-0.00119093
0.000551134
-0.0012114
0.000571787
-0.00123226
0.000590894
-0.00125342
0.000608764
-0.00127482
-0.00129658
0.000625692
-0.000560891
0.000370333
-0.00111832
0.00053558
-0.00130641
0.000494322
-0.00133671
0.000552854
-0.00142658
0.000671192
-0.00169424
0.00074281
-0.00215292
0.000715064
-0.00273565
0.000593026
-0.00337751
0.000440443
-0.00409897
0.000373842
-0.0049727
0.000458163
-0.006011
0.000639319
-0.007101
0.000793305
-0.00806998
0.000838644
-0.0087753
0.000753778
-0.00914256
0.00054519
-0.0091648
0.000226197
-0.00887905
-0.00018726
-0.00836819
-0.000636982
-0.00771177
-0.00104946
-0.00697885
-0.00134235
-0.00621562
-0.00148619
-0.00545459
-0.00150285
-0.00472082
-0.0014385
-0.00403577
-0.00132994
-0.00341678
-0.00119856
-0.00287589
-0.00105627
-0.00242264
-0.000904682
-0.00206815
-0.000739036
-0.00181073
-0.000559718
-0.00162753
-0.000375039
-0.00148529
-0.000192987
-0.00139382
-1.38445e-05
-0.00134258
0.000149167
-0.00130947
0.000281832
-0.00127208
0.00037798
-0.00121471
0.000437138
-0.00113106
0.000462131
-0.0010233
0.000457327
-0.000899311
0.000427715
-0.000770338
0.000378522
-0.000648877
0.000315398
-0.000547917
0.000245287
-0.000475945
0.000169586
-0.000425729
8.30008e-05
-0.000379383
-4.31544e-06
-0.000344692
-8.41488e-05
-0.0003207
-0.000159724
-0.000304646
-0.000231517
-0.000293974
-0.00030016
-0.000286564
-0.000366447
-0.000280664
-0.000431089
-0.000274763
-0.00049456
-0.000267496
-0.000557058
-0.000257591
-0.000618529
-0.000243902
-0.000678675
-0.000225478
-0.000736982
-0.00020166
-0.000792766
-0.000172154
-0.00084525
-0.00013706
-0.000893667
-9.6871e-05
-0.000937366
-5.24017e-05
-0.000975926
-4.70325e-06
-0.00100922
4.50551e-05
-0.00103747
9.57016e-05
-0.00106119
0.000146163
-0.00108114
0.000195534
-0.00109824
0.000243107
-0.00111342
0.000288371
-0.00112756
0.000330972
-0.00114138
0.000370682
-0.00115541
0.000407364
-0.00117001
0.000440957
-0.00118536
0.000471482
-0.00120152
0.00049904
-0.00121848
0.000523826
-0.00123618
0.000546107
-0.00125454
0.000566213
-0.00127352
0.000584493
-0.0012931
-0.00131335
0.000601258
0.00025375
0.000116582
0.000502758
0.000286573
0.000606279
0.000390802
0.000731893
0.000427239
0.00101408
0.000389008
0.00149509
0.000261793
0.00215464
5.5514e-05
0.00295821
-0.000210538
0.00387501
-0.000476362
0.00486005
-0.000611189
0.0058528
-0.000534591
0.00682606
-0.000333944
0.00779251
-0.000173146
0.00876332
-0.000132164
0.00971832
-0.000201225
0.0105974
-0.000333907
0.0113152
-0.000491579
0.0117736
-0.000645675
0.0119025
-0.000765825
0.0116876
-0.000834594
0.0111869
-0.000841639
0.0104876
-0.000786904
0.0096494
-0.00066466
0.0086988
-0.000487904
0.00765823
-0.000289362
0.0065714
-0.000111734
0.00549867
1.6455e-05
0.00449318
0.00010081
0.0035879
0.000166251
0.00279168
0.000236494
0.00209754
0.000319107
0.00150001
0.000404545
0.00100357
0.000482591
0.000603521
0.000549215
0.000299008
0.000586345
8.65816e-05
0.000590406
-4.22381e-05
0.000565958
-0.000101266
0.000521158
-0.000107927
0.000463989
-8.06655e-05
0.000400454
-3.64981e-05
0.000334354
1.1364e-05
0.000267536
5.57409e-05
0.00020091
9.14355e-05
0.000133891
0.000107951
6.64857e-05
0.000104106
-4.7107e-07
8.33231e-05
-6.33657e-05
5.34114e-05
-0.000129812
1.95089e-05
-0.000197614
-1.45894e-05
-0.000266062
-4.6504e-05
-0.000334533
-7.50149e-05
-0.000402578
-9.94857e-05
-0.000470089
-0.000119283
-0.00053726
-0.000133501
-0.00060431
-0.00014099
-0.000671186
-0.000140614
-0.000737357
-0.000131549
-0.000801831
-0.000113507
-0.000863292
-8.68247e-05
-0.000920349
-5.24299e-05
-0.000971761
-1.17647e-05
-0.00101659
3.34232e-05
-0.00105441
8.12827e-05
-0.00108533
0.000130073
-0.00110998
0.000178329
-0.0011294
0.000224959
-0.00114487
0.000269239
-0.0011577
0.000310758
-0.00116908
0.000349317
-0.00117994
0.00038484
-0.00119093
0.000417316
-0.00120248
0.000446778
-0.00121482
0.000473308
-0.00122805
0.000497048
-0.00124222
0.000518207
-0.00125734
0.000537054
-0.00127339
0.000553899
-0.00129037
0.000569059
-0.00130826
-0.00132707
0.000582785
0.000300291
-0.00018371
0.000704053
-0.000117188
0.00105088
4.39727e-05
0.00144224
3.58851e-05
0.00196401
-0.000132769
0.0025817
-0.000355896
0.00319802
-0.000560801
0.00372839
-0.000740909
0.00417042
-0.000918401
0.00461431
-0.00105507
0.00518825
-0.00110853
0.00592162
-0.00106732
0.00671015
-0.000961678
0.00740122
-0.000823231
0.00787647
-0.000676471
0.00807803
-0.00053547
0.00799346
-0.000407012
0.00763926
-0.000291475
0.00705663
-0.000183195
0.00629429
-7.22479e-05
0.005399
5.36497e-05
0.00440557
0.000206529
0.00334758
0.000393321
0.00225141
0.00060827
0.00113953
0.000822519
4.0668e-05
0.000987128
-0.0010049
0.00106202
-0.00194672
0.00104263
-0.00273381
0.000953337
-0.00332205
0.000824733
-0.00368631
0.000683371
-0.0038306
0.000548834
-0.00377772
0.000429715
-0.00355775
0.000329245
-0.00321889
0.000247482
-0.0028111
0.000182619
-0.00237835
0.000133207
-0.00195473
9.75341e-05
-0.00156411
7.33683e-05
-0.00122146
5.78052e-05
-0.000934244
4.71412e-05
-0.000704305
3.75963e-05
-0.000528606
2.52116e-05
-0.000399726
5.01045e-06
-0.000309992
-2.32486e-05
-0.000254322
-5.6141e-05
-0.000208494
-0.000109194
-0.000171416
-0.00016689
-0.000139373
-0.000229658
-0.000111103
-0.000294332
-8.74493e-05
-0.000358186
-6.99587e-05
-0.000420069
-5.92043e-05
-0.000480844
-5.38855e-05
-0.000542579
-5.10262e-05
-0.00060717
-4.69505e-05
-0.000675261
-3.83127e-05
-0.000745996
-2.27576e-05
-0.000817387
8.79981e-07
-0.000886929
3.261e-05
-0.000952079
7.14553e-05
-0.00101061
0.000115751
-0.00106089
0.000163348
-0.00110201
0.000211936
-0.00113392
0.000259348
-0.00115739
0.000303834
-0.00117388
0.000344235
-0.00118527
0.000380018
-0.00119348
0.000411187
-0.00120025
0.000438104
-0.00120685
0.000461297
-0.00121412
0.000481313
-0.0012225
0.000498639
-0.00123215
0.000513685
-0.0012431
0.000526798
-0.00125534
0.000538288
-0.00126883
0.000548445
-0.00128355
0.000557541
-0.00129947
0.000565811
-0.00131654
-0.00133465
0.000573384
-0.000642021
0.000458311
-0.00169052
0.000931307
-0.00270672
0.00106018
-0.00360135
0.000930515
-0.00435785
0.000623728
-0.00500198
0.000288231
-0.00556518
2.39953e-06
-0.00606805
-0.00023804
-0.00651363
-0.000472822
-0.00685968
-0.000709014
-0.00705164
-0.000916574
-0.00704312
-0.00107584
-0.00682897
-0.00117583
-0.00644615
-0.00120605
-0.00595857
-0.00116405
-0.00545231
-0.00104173
-0.00501255
-0.000846773
-0.00466866
-0.00063536
-0.0043494
-0.000502455
-0.00395266
-0.000468994
-0.0034529
-0.00044611
-0.00287505
-0.000371318
-0.00222062
-0.000261113
-0.00146763
-0.00014472
-0.000612122
-3.29877e-05
0.000305893
6.91135e-05
0.0012122
0.000155719
0.00203399
0.000220839
0.00272513
0.0002622
0.00326806
0.000281797
0.00366777
0.000283663
0.00394355
0.000273061
0.00411718
0.000256083
0.00420463
0.000241797
0.00422089
0.000231213
0.00417879
0.000224721
0.00408909
0.00022291
0.0039614
0.000225221
0.00380428
0.000230485
0.00362505
0.000237042
0.00342949
0.000242697
0.00322243
0.00024466
0.00300784
0.000239799
0.00278791
0.000224939
0.002567
0.000197659
0.00235433
0.000156533
0.00213973
0.000105403
0.0019276
4.52423e-05
0.0017188
-2.08532e-05