/*--------------------------------*- C++ -*----------------------------------*\
| =========                 |                                                 |
| \\      /  F ield         | OpenFOAM: The Open Source CFD Toolbox           |
|  \\    /   O peration     | Version:  2012                                  |
|   \\  /    A nd           | Website:  www.openfoam.com                      |
|    \\/     M anipulation  |                                                 |
\*---------------------------------------------------------------------------*/
FoamFile
{
    version     2.0;
    format      ascii;
    class       volScalarField;
    location    "0.46";
    object      p;
}
// * * * * * * * * * * * * * * * * * * * * * * * * * * * * * * * * * * * * * //

dimensions      [0 2 -2 0 0 0 0];


internalField   nonuniform List<scalar> 
42400
(
-17757.5
-17083.4
-16235.4
-15325.8
-14340.2
-13351.1
-12309.6
-11162.4
-9886.03
-8510.6
-7113.56
-5794.27
-4636.23
-3667.55
-2858.73
-2168.78
-1575.34
-1070.16
-647.915
-300.985
-20.7272
200.409
368.439
487.765
562.203
595.933
594.785
566.161
517.047
454.205
383.929
311.118
239.655
172.559
112.05
59.5499
15.5134
-20.7727
-51.107
-77.6585
-101.91
-124.094
-143.483
-159.065
-170.046
-175.949
-176.387
-171.401
-161.838
-148.629
-132.979
-116.205
-99.4989
-83.746
-69.4317
-56.6624
-45.2806
-35.0163
-25.6131
-16.9016
-8.82114
-1.39885
5.29655
11.2064
16.3195
20.6836
24.3943
27.5717
30.3366
32.7955
35.0333
37.1136
39.0817
40.9686
42.7947
44.5728
46.3124
48.0241
49.7158
51.3919
8192.96
8027.01
7769.74
7341.77
6686.67
5929.25
5133.81
4336.11
3569.27
2857.69
2210.27
1622.13
1089.04
621.994
241.295
-42.7306
-235.952
-354.663
-420.005
-451.758
-464.545
-466.906
-462.736
-452.629
-435.73
-411.37
-380.176
-343.843
-304.504
-264.615
-226.763
-192.791
-163.952
-140.972
-124.177
-113.276
-108.406
-109.004
-114.132
-122.65
-133.217
-144.381
-154.713
-162.912
-167.867
-168.703
-164.807
-156.389
-144
-128.725
-111.888
-94.7524
-78.3855
-63.497
-50.379
-38.9691
-28.9898
-20.0948
-11.9799
-4.44395
2.59402
9.11596
15.0511
20.3287
24.9183
28.8454
32.1835
35.0336
37.5025
39.6875
41.6684
43.5057
45.2424
46.9074
48.5185
50.0859
51.6142
53.1045
54.5463
55.9099
9179.47
8988.9
8714.94
8330.72
7823.72
7335.55
6906.16
6491.01
6042.09
5545.1
5005.9
4438.23
3855.94
3267.45
2685.45
2134.75
1637.59
1204.81
837.57
531.966
280.947
74.5043
-97.3984
-242.721
-366.812
-472.818
-561.899
-633.687
-687.449
-723.242
-742.001
-744.242
-730.66
-703.077
-663.96
-615.778
-560.533
-501.091
-440.477
-381.415
-326.159
-276.298
-232.637
-195.237
-163.607
-136.912
-114.389
-95.4388
-79.2329
-65.2906
-53.2171
-42.6525
-33.329
-25.0279
-17.5354
-10.653
-4.22726
1.83534
7.5734
12.9884
18.066
22.7949
27.175
31.2099
34.8942
38.2098
41.1394
43.6864
45.8855
47.7958
49.4859
51.0188
52.4444
53.7982
55.1024
56.3691
57.6021
58.7983
59.9431
60.9881
-4840.33
-4793.91
-4737.18
-4691.27
-4668.33
-4662.55
-4661.7
-4666.02
-4667.27
-4625.01
-4483.76
-4214.73
-3838.42
-3404.04
-2956.36
-2525.28
-2130.67
-1790.08
-1518.27
-1324.42
-1201.91
-1118.76
-1031.66
-917.361
-786.247
-666.748
-578.649
-523.204
-492.137
-476.389
-467.277
-458.455
-447.217
-431.966
-411.366
-385.598
-355.579
-322.555
-287.949
-253.182
-219.492
-187.835
-158.825
-132.735
-109.55
-89.0439
-70.8742
-54.698
-40.2531
-27.3761
-16.0046
-6.02594
2.65698
10.111
16.4128
21.7262
26.27
30.2401
33.7733
36.945
39.7947
42.3638
44.7162
46.9258
49.0423
51.0686
52.9677
54.6937
56.2212
57.5567
58.7314
59.7865
60.7611
61.686
62.582
63.4598
64.3212
65.1599
65.9632
66.6636
-7194.98
-7008.41
-6755.77
-6436.48
-6036.42
-5579.49
-5054.51
-4438.34
-3722.46
-2950.05
-2224.98
-1656.04
-1284.82
-1081.37
-996.65
-997.88
-1063.68
-1176.14
-1319.48
-1474.26
-1609.43
-1695.93
-1728.46
-1718.41
-1670.14
-1581.91
-1461.05
-1321.99
-1176
-1029.61
-887.363
-752.541
-627.619
-514.286
-414.581
-329.34
-258.287
-200.246
-153.412
-115.81
-85.5861
-61.1131
-40.9671
-24.1837
-10.0643
1.90789
12.0078
20.5193
27.7264
33.6632
38.4924
42.4111
45.6497
48.3206
50.5314
52.3736
53.92
55.2406
56.4118
57.5151
58.6286
59.8089
61.0735
62.3939
63.7077
64.9422
66.0399
66.9735
67.7471
68.3873
68.9311
69.4148
69.8687
70.3139
70.7628
71.2195
71.6809
72.1374
72.5796
72.9358
12039
11954.7
11763.1
11374.7
10810.4
10129.1
9373.86
8560.83
7691.2
6768.18
5815.86
4890.05
4065.16
3396.98
2895.69
2534.41
2277.52
2095.65
1963.67
1855.93
1748.49
1623.36
1467.55
1274.78
1053.54
825.162
610.232
419.97
257.87
125.177
23.5382
-45.9596
-84.6013
-96.8944
-89.8969
-71.3281
-47.9851
-24.6624
-3.95787
13.1991
26.8709
37.5416
45.7287
52.0656
57.0683
61.1037
64.4752
67.3743
69.8716
72.061
73.934
75.4601
76.6553
77.5621
78.2435
78.7696
79.1969
79.559
79.867
80.1211
80.3216
80.4737
80.5842
80.6563
80.6882
80.676
80.6189
80.5218
80.3946
80.2508
80.1041
79.9669
79.8493
79.7579
79.6955
79.661
79.6492
79.6514
79.6593
79.6178
-5459.84
-4842.9
-4011.28
-3137.23
-2205.75
-1357.84
-612.936
31.2346
579.851
1034.83
1396.39
1666.33
1852.9
1970.26
2034.89
2063.19
2067.65
2055.63
2030.71
1995.43
1950.94
1895.66
1824.3
1729.28
1605.59
1458.76
1302.1
1148.18
1003.8
870.418
747.754
635.67
534.549
444.917
367.072
301.029
246.528
202.99
169.495
144.798
127.449
115.96
108.938
105.229
103.783
103.794
104.652
105.822
106.909
107.775
108.336
108.56
108.463
108.078
107.453
106.642
105.693
104.653
103.558
102.437
101.312
100.199
99.1092
98.0475
97.0166
96.0169
95.0486
94.1129
93.2129
92.3527
91.5368
90.7692
90.0524
89.3875
88.7732
88.2065
87.6822
87.1944
86.7333
86.2721
-2754.01
-3018.36
-3325.91
-3610.12
-3851.79
-4018.2
-4118.32
-4174.05
-4211.12
-4252.08
-4308.21
-4376.1
-4441.27
-4482.51
-4479.47
-4417.05
-4284.02
-4072.3
-3777.97
-3401.96
-2948.87
-2426.97
-1860.63
-1303.44
-823.034
-460.62
-210.618
-41.2241
76.3
158.62
213.932
247.592
264.279
268.368
263.78
253.804
241.017
227.286
213.899
201.906
191.778
183.356
176.453
170.826
166.254
162.467
159.224
156.329
153.63
151.018
148.418
145.791
143.121
140.411
137.672
134.926
132.195
129.503
126.868
124.307
121.833
119.456
117.183
115.016
112.957
111.005
109.158
107.411
105.762
104.204
102.733
101.345
100.034
98.7969
97.6288
96.5259
95.4849
94.5031
93.5746
92.6928
-2155.22
-1938.45
-1639.53
-1303.57
-922.992
-585.842
-320.745
-131.019
-6.42033
66.9357
100.91
103.765
80.8198
35.5839
-29.8946
-112.678
-209.375
-316.047
-428.706
-544.453
-658.486
-761.693
-840.356
-881.463
-880.101
-840.82
-772.395
-681.996
-578.008
-468.429
-360.352
-259.301
-168.879
-90.8652
-25.5894
27.6563
70.2538
103.845
129.582
148.566
162.345
172.169
178.879
183.059
185.188
185.685
184.921
183.215
180.827
177.958
174.755
171.322
167.733
164.042
160.294
156.528
152.78
149.085
145.473
141.971
138.6
135.374
132.304
129.391
126.633
124.023
121.553
119.213
116.993
114.884
112.877
110.967
109.148
107.415
105.767
104.2
102.715
101.312
99.9913
98.7504
-1382.46
-1326.83
-1240.85
-1115.67
-937.451
-724.014
-494.095
-267.71
-56.7582
134.209
303.088
446.58
559.812
637.535
676.361
678.213
652.225
612.43
571.356
536.737
509.814
486.342
459.95
425.503
382.373
334.407
287.459
246.714
215.216
193.651
180.939
175.085
173.877
175.336
177.965
180.821
183.357
185.485
187.933
190.752
193.537
196.193
198.536
200.34
201.428
201.74
201.302
200.178
198.442
196.156
193.375
190.15
186.54
182.613
178.446
174.121
169.72
165.319
160.983
156.765
152.705
148.825
145.139
141.648
138.343
135.215
132.249
129.433
126.754
124.202
121.769
119.447
117.232
115.12
113.108
111.194
109.377
107.657
106.035
104.507
5816.83
5646.33
5444.08
5203.28
4887.94
4532.3
4153.9
3768.73
3389.77
3025.54
2682.55
2365.31
2076.41
1817.35
1591.04
1404.34
1268
1190.92
1171.97
1197.02
1244.11
1292.18
1326.66
1340.4
1330.93
1298.83
1247.07
1180.09
1102.65
1019.18
933.315
847.642
764.114
684.33
609.735
541.702
481.468
429.78
386.672
351.972
324.959
304.483
289.153
277.551
268.411
260.71
253.698
246.89
240.033
233.044
225.944
218.806
211.718
204.764
198.017
191.535
185.36
179.518
174.021
168.866
164.045
159.536
155.317
151.361
147.642
144.134
140.816
137.67
134.681
131.836
129.127
126.545
124.084
121.738
119.503
117.375
115.349
113.423
111.593
109.858
6930.96
6903.97
6903.21
6905.11
6894.02
6848.23
6757.74
6619.37
6434.89
6210.93
5958.46
5688.58
5408.54
5121.3
4826.83
4524.29
4213.5
3895.95
3575.58
3256.99
2944.97
2642.86
2351.93
2072.92
1807.35
1557.66
1327.04
1119.46
938.503
786.672
665.014
572.026
503.632
454.825
420.938
398.015
382.202
370.639
361.245
352.608
343.905
334.732
324.982
314.721
304.091
293.258
282.386
271.635
261.15
251.047
241.405
232.264
223.633
215.505
207.865
200.699
193.992
187.728
181.888
176.448
171.38
166.653
162.237
158.1
154.212
150.549
147.089
143.812
140.702
137.747
134.935
132.256
129.7
127.26
124.929
122.7
120.566
118.522
116.559
114.688
-3839
-3935.23
-4088.51
-4260.61
-4383.78
-4384.7
-4235.93
-3973.77
-3684.52
-3456.91
-3330.27
-3283.04
-3267.53
-3244.76
-3193.96
-3107.61
-2984.34
-2825.58
-2635
-2417.65
-2180.62
-1932.56
-1682.62
-1438.75
-1205.64
-984
-771.182
-563.541
-359.82
-162.176
23.7659
189.661
327.2
431.066
499.918
536.088
545.47
535.368
513.03
484.342
453.578
423.264
394.692
368.466
344.771
323.538
304.562
287.588
272.372
258.698
246.39
235.305
225.32
216.324
208.213
200.889
194.257
188.23
182.726
177.674
173.01
168.68
164.636
160.84
157.259
153.868
150.644
147.571
144.635
141.824
139.127
136.537
134.045
131.646
129.333
127.1
124.943
122.856
120.832
118.889
-18129.7
-17331.7
-16336.5
-15260.3
-14006.4
-12616.2
-11122.5
-9647.73
-8313.68
-7165.45
-6187.58
-5349.97
-4626.36
-3998.1
-3453.85
-2987.67
-2595.21
-2270.63
-2005.39
-1789.91
-1614.39
-1469.84
-1348.25
-1242.49
-1146.01
-1052.1
-953.918
-846.109
-724.99
-591.011
-449.469
-308.961
-178.519
-65.263
26.9451
97.7672
149.625
186.234
211.248
227.567
237.103
241.822
242.986
241.598
238.488
234.293
229.476
224.365
219.174
214.038
209.035
204.21
199.583
195.16
190.94
186.915
183.076
179.41
175.904
172.543
169.314
166.204
163.201
160.294
157.473
154.73
152.06
149.456
146.914
144.432
142.007
139.637
137.32
135.055
132.84
130.673
128.554
126.481
124.45
122.483
16785.3
16475.6
16027.1
15329.3
14325.8
13112.5
11791.4
10458.4
9200.46
8087.98
7150.85
6371.28
5711.92
5144.88
4656.14
4238.15
3883.78
3582.34
3317.96
3069.96
2818.05
2548.68
2257.62
1949.18
1634.08
1326.76
1042.16
793.189
587.778
428.56
312.349
232.356
180.297
148.258
129.824
120.341
116.751
117.347
120.783
125.83
131.86
138.085
144.114
149.685
154.63
158.86
162.342
165.089
167.145
168.576
169.459
169.875
169.903
169.615
169.071
168.32
167.396
166.327
165.13
163.815
162.392
160.868
159.249
157.544
155.759
153.904
151.989
150.024
148.019
145.983
143.926
141.855
139.779
137.704
135.635
133.577
131.535
129.51
127.506
125.544
9952.1
9769.38
9557.26
9318.6
9056.59
8836.78
8646.35
8433.85
8149.1
7764.94
7283.78
6729.05
6136.91
5546.77
4984.76
4449.5
3920.36
3371.83
2792.29
2199.98
1640.07
1158.2
775.612
488.383
281.118
136.714
41.0591
-19.2125
-54.57
-72.8754
-79.3863
-77.9912
-71.412
-61.4328
-49.166
-35.2357
-20.2369
-5.1277
10.1014
25.4617
40.7149
55.548
69.6341
82.6765
94.4461
104.809
113.741
121.314
127.674
132.999
137.47
141.25
144.464
147.203
149.526
151.466
153.043
154.268
155.149
155.698
155.929
155.858
155.507
154.896
154.052
153
151.766
150.374
148.85
147.214
145.487
143.687
141.829
139.928
137.994
136.039
134.071
132.098
130.125
128.174
-18457.1
-17805.8
-16981.8
-16025.7
-14877.4
-13628.1
-12343.4
-11081
-9878
-8765.68
-7775.8
-6923.05
-6193.51
-5557.46
-4991.39
-4483.37
-4031.97
-3637.91
-3297.38
-2999.75
-2731.78
-2482.93
-2247.43
-2023.72
-1812.36
-1613.92
-1428.5
-1256.28
-1097.64
-952.887
-821.763
-703.302
-596.688
-500.988
-415.086
-337.697
-267.806
-204.794
-148.673
-99.2143
-56.1203
-19.1291
12.0436
37.7688
58.5537
75.0701
88.1076
98.4691
106.876
113.904
119.967
125.331
130.157
134.506
138.411
141.875
144.89
147.449
149.555
151.215
152.445
153.266
153.704
153.787
153.545
153.012
152.22
151.203
149.992
148.618
147.106
145.482
143.764
141.973
140.125
138.232
136.309
134.364
132.406
130.455
2448.76
2295.93
2060.32
1721.2
1267.81
729.385
128.913
-495.196
-1091.45
-1603.34
-1980.82
-2198.81
-2266.86
-2220.05
-2098.82
-1935.72
-1753.26
-1566.65
-1386.04
-1216.87
-1060.02
-912.93
-773.578
-643.687
-527.101
-426.909
-343.527
-275.07
-218.973
-172.822
-134.426
-101.264
-71.7134
-45.0951
-21.0678
0.978729
21.476
40.2928
57.2464
72.2985
85.5287
97.033
106.861
115.014
121.537
126.58
130.364
133.136
135.148
136.658
137.916
139.144
140.501
142.06
143.817
145.705
147.624
149.467
151.139
152.57
153.713
154.542
155.043
155.22
155.082
154.649
153.947
153.008
151.861
150.538
149.065
147.469
145.772
143.994
142.151
140.259
138.33
136.375
134.403
132.432
7467.46
7565.31
7795.16
8148.49
8572.41
8975.46
9306.67
9535.05
9623.3
9533.06
9243.29
8761.33
8122.54
7382.49
6603.34
5840.47
5133.45
4505.17
3962.9
3499.48
3096.68
2734.16
2397.54
2081.5
1786.87
1516.69
1275.08
1065.59
888.361
740.335
617.319
515.114
430.784
362.003
306.584
262.408
227.502
200.25
179.425
164.014
153.078
145.69
140.947
138.009
136.156
135.124
134.74
134.832
135.297
136.1
137.268
138.837
140.812
143.137
145.692
148.317
150.844
153.127
155.06
156.592
157.71
158.427
158.766
158.751
158.41
157.774
156.877
155.755
154.442
152.97
151.367
149.658
147.864
146.001
144.086
142.131
140.147
138.144
136.129
134.115
7103.29
6740.56
6245.36
5592.29
4701.3
3636.56
2476.11
1343.11
373.916
-328.261
-731.644
-882.174
-869.127
-780.755
-678.295
-594.939
-542.8
-516.708
-498.298
-464.185
-394.933
-286.454
-150.932
-10.5366
114.141
211.415
276.941
312.144
322.089
313.23
291.89
263.609
232.873
203.11
176.78
155.446
139.862
130.03
125.305
124.538
126.369
129.604
133.433
137.17
140.341
142.89
144.961
146.77
148.5
150.291
152.23
154.346
156.606
158.924
161.172
163.203
164.884
166.117
166.862
167.138
167.006
166.538
165.799
164.833
163.67
162.335
160.848
159.232
157.509
155.698
153.815
151.876
149.892
147.873
145.829
143.767
141.694
139.617
137.54
135.469
-7349.32
-7423.4
-7495.05
-7501.81
-7433.9
-7312.86
-7187.9
-7094.52
-7036.83
-6992.06
-6925.63
-6802.23
-6596
-6293.44
-5892.9
-5403.28
-4842.7
-4236.26
-3611.78
-2994.3
-2402.63
-1850.23
-1348.79
-908.794
-536.267
-231.362
10.0159
192.257
319.423
398.154
438.056
449.192
439.864
416.162
382.619
342.864
299.944
256.389
214.205
174.848
139.239
107.837
80.7587
57.9211
39.1752
24.3719
13.3419
5.80154
1.241
-1.11741
-2.23829
-3.10531
-4.57723
-7.14489
-10.7159
-15.0489
-19.8692
-24.9026
-29.9244
-34.7779
-39.3657
-43.6369
-47.5667
-51.153
-54.4029
-57.3286
-59.9444
-62.2643
-64.3014
-66.0673
-67.572
-68.824
-69.8302
-70.5961
-71.1274
-71.4266
-71.4966
-71.3406
-70.962
-70.3692
-1230.72
-942.017
-528.617
-66.5588
441.676
886.676
1248.91
1540.64
1781.55
1990.84
2184.9
2370.69
2546.19
2702.36
2825.73
2902
2920.92
2883.25
2799.6
2678.63
2520.81
2324.7
2093.87
1838.14
1575.45
1328.95
1118.52
950.151
813.152
690.227
572.215
461.206
362.825
280.048
212.747
159.445
118.406
87.8555
65.939
50.6977
40.1514
32.4697
26.1765
20.3162
14.5079
8.85868
3.75857
-0.380484
-3.34235
-5.17686
-6.16343
-6.80128
-7.45913
-8.28465
-9.73175
-11.9049
-14.677
-17.8613
-21.2819
-24.8004
-28.3171
-31.7631
-35.0905
-38.2664
-41.2678
-44.079
-46.6897
-49.0932
-51.2856
-53.2645
-55.0287
-56.5773
-57.9093
-59.0232
-59.9155
-60.5899
-61.0384
-61.2596
-61.2519
-61.0211
11586.6
11509.2
11317.1
10915.8
10348.2
9744.45
9205.79
8735.86
8266.7
7732.96
7112.6
6413.72
5647.56
4816.57
3921.37
2984.31
2075.29
1301.01
735.446
368.749
139.352
-8.39195
-108.987
-181.83
-235.13
-265.886
-268.982
-247.384
-210.788
-168.654
-126.924
-88.6993
-55.5993
-28.3885
-7.20718
8.30905
18.8861
25.4198
28.7838
29.7282
28.8753
26.7643
23.8911
20.7203
17.6688
15.0687
13.1209
11.8567
11.1477
10.7373
10.1607
9.19949
7.70762
5.55863
2.9339
-0.046846
-3.28324
-6.67849
-10.149
-13.6273
-17.0609
-20.4099
-23.6446
-26.7433
-29.6903
-32.4746
-35.0887
-37.5274
-39.7874
-41.8662
-43.7617
-45.4721
-46.9947
-48.3264
-49.4633
-50.3941
-51.1176
-51.6281
-51.9185
-51.9964
-10244.9
-9723.05
-9013.03
-8211.4
-7343.3
-6527.52
-5772.63
-5087.26
-4513.78
-4084.26
-3796.9
-3641.99
-3618.4
-3720.68
-3919.45
-4151.1
-4327.94
-4378.72
-4285.35
-4079.92
-3810.15
-3512.14
-3204.13
-2891.94
-2575.49
-2257.83
-1947.71
-1652.72
-1376.31
-1121.26
-891.497
-691.329
-524.24
-390.968
-288.017
-208.938
-147.373
-98.8827
-60.8224
-31.4865
-9.49641
6.39982
17.3471
24.3656
28.3474
30.0584
30.1383
29.0975
27.3179
25.0617
22.4902
19.7
16.7477
13.669
10.4998
7.2729
4.01816
0.763118
-2.46743
-5.65139
-8.76936
-11.8045
-14.7425
-17.5712
-20.281
-22.8637
-25.313
-27.6239
-29.7924
-31.8151
-33.6891
-35.4111
-36.9774
-38.3836
-39.6238
-40.6904
-41.5745
-42.2692
-42.7676
-43.0902
-2544.72
-2767.1
-2981.92
-3080.65
-3093.3
-2981.44
-2787.09
-2541.29
-2263.05
-1982.37
-1735.5
-1551.73
-1443.28
-1401.68
-1402.7
-1414.34
-1406.09
-1358.18
-1265.8
-1134.03
-972.62
-793.474
-607.523
-423.954
-251.252
-97.5218
32.2993
138.825
226.584
300.232
361.933
409.219
436.083
438.831
420.293
387.329
347.524
306.262
266.532
229.263
195.457
165.557
139.608
117.412
98.6317
82.8652
69.6969
58.7221
49.5617
41.8724
35.3536
29.7506
24.854
20.4976
16.5527
12.9217
9.53288
6.33414
3.28913
0.373384
-2.42857
-5.12564
-7.72198
-10.2186
-12.6143
-14.9067
-17.0928
-19.1695
-21.1334
-22.9813
-24.7101
-26.3163
-27.7959
-29.1447
-30.3573
-31.426
-32.3395
-33.088
-33.6727
-34.1652
11109.7
11018.3
10951
10896.2
10812
10697.2
10533.3
10296.3
9965.17
9529.26
8993.16
8379.27
7725.12
7068.81
6434.49
5829.55
5252.65
4700.58
4173.24
3672.55
3200.37
2760.9
2360.66
2002.79
1683.73
1394.23
1122.49
860.948
616.442
412.717
272.47
192.349
149.123
124.992
112.791
107.341
103.96
99.4381
93.073
85.5373
77.4594
69.4924
62.0575
55.3498
49.414
44.2077
39.645
35.6231
32.0391
28.7994
25.824
23.0475
20.4188
17.8993
15.4608
13.0833
10.7539
8.46458
6.21189
3.99533
1.81686
-0.319754
-2.40947
-4.44643
-6.42434
-8.3368
-10.1775
-11.9404
-13.6199
-15.2107
-16.7081
-18.1075
-19.4044
-20.5945
-21.6733
-22.6338
-23.4622
-24.1468
-24.7028
-25.2745
4654.08
4432.48
4091.08
3578.32
2872.99
2048.25
1177.26
321.386
-470.121
-1151.76
-1678.38
-2014.19
-2152.7
-2125.28
-1983.95
-1778.28
-1545.58
-1304.54
-1055.46
-792.652
-524.306
-276.779
-76.0938
68.0713
157.101
197.008
198.286
176.384
148.052
125.968
112.442
101.226
86.5889
69.3828
53.0007
39.8775
30.0773
23.27
19.0294
16.7823
15.9393
15.9497
16.3724
16.9071
17.3735
17.6811
17.7965
17.7178
17.457
17.03
16.4515
15.7338
14.8872
13.9207
12.8435
11.6654
10.3972
9.05078
7.63902
6.17539
4.67382
3.14825
1.6124
0.0794495
-1.43813
-2.92866
-4.38137
-5.78647
-7.13519
-8.41978
-9.63334
-10.7697
-11.8233
-12.7897
-13.6654
-14.4445
-15.1113
-15.6514
-16.0999
-16.6651
-18559.6
-17515.8
-16178.1
-14749.6
-13196
-11630.3
-10060.6
-8512.01
-7024.61
-5644.88
-4416.04
-3370.36
-2529.24
-1905.41
-1500.13
-1293.32
-1231.21
-1230.12
-1217.1
-1164.33
-1079.56
-983.857
-893.008
-810.101
-732.45
-658.382
-588.14
-522.224
-460.425
-402.015
-346.923
-295.989
-249.438
-207.657
-170.908
-139.302
-112.952
-91.463
-74.0144
-59.6802
-47.7054
-37.5438
-28.8258
-21.3058
-14.8206
-9.25845
-4.53805
-0.592758
2.63863
5.21661
7.20256
8.65852
9.64602
10.2248
10.4516
10.379
10.0554
9.52417
8.82441
7.99075
7.05384
6.04071
4.97507
3.87773
2.76696
1.65877
0.567131
-0.495842
-1.51973
-2.49558
-3.41572
-4.27355
-5.06359
-5.78195
-6.42655
-6.99327
-7.46673
-7.83237
-8.13687
-8.63182
6942.42
6691.23
6373.58
5962.51
5391.88
4723.68
3978.17
3181.59
2366.81
1560.02
784.802
63.2978
-585.142
-1147.56
-1620.81
-2005.24
-2282.09
-2409.31
-2368.76
-2204.33
-1992.56
-1785.79
-1600.48
-1435.43
-1287.12
-1153.34
-1032.45
-922.839
-822.606
-730.32
-644.957
-565.9
-492.805
-425.458
-363.721
-307.528
-256.892
-211.834
-172.288
-138.067
-108.867
-84.2852
-63.8558
-47.0807
-33.4603
-22.518
-13.8172
-6.97109
-1.64682
2.43621
5.51046
7.76641
9.35923
10.4151
11.0367
11.3083
11.2988
11.0658
10.657
10.1125
9.46607
8.74639
7.97763
7.18033
6.37194
5.56728
4.77881
4.01702
3.29066
2.60695
1.97185
1.39014
0.865506
0.400048
-0.00618619
-0.35168
-0.623979
-0.809851
-0.959468
-1.34437
-244.83
23.1234
434.768
949.263
1549.5
2131.12
2644.4
3059.21
3356.5
3524.21
3558.78
3468.69
3278.2
3022.49
2734.72
2433.22
2118.34
1785.16
1441.93
1110.66
810.121
549.316
331.838
159.174
30.5399
-57.6246
-111.199
-137.418
-143.882
-137.505
-123.8
-106.829
-89.3135
-72.8975
-58.4007
-46.0841
-35.9112
-27.7217
-20.9325
-15.1652
-10.1652
-5.75554
-1.83229
1.65193
4.7101
7.34171
9.54813
11.3405
12.7414
13.7824
14.5007
14.9361
15.1282
15.1152
14.9326
14.6131
14.1856
13.6761
13.107
12.4979
11.8655
11.2243
10.5864
9.96227
9.36047
8.78826
8.25152
7.75497
7.3023
6.89618
6.53837
6.22984
5.97075
5.75997
5.59441
5.47201
5.40182
5.39885
5.4161
5.16268
2202.26
1968.19
1694.74
1403.81
1042.38
652.866
261.366
-106.037
-432.36
-708.126
-924.894
-1075.06
-1154.51
-1161.81
-1096.77
-961.908
-766.844
-531.575
-283.803
-51.6346
144.155
293.278
395.524
457.058
486.174
490.617
476.549
448.631
410.715
366.831
319.966
273.932
231.195
193.027
159.807
131.402
107.641
88.4864
73.4171
61.7331
52.8464
46.2385
41.3748
37.7436
34.9137
32.5696
30.5141
28.6428
26.9079
25.2894
23.7776
22.3657
21.048
19.8201
18.678
17.6192
16.6411
15.7418
14.9192
14.1715
13.4966
12.8925
12.357
11.8881
11.4836
11.1413
10.8591
10.6346
10.4654
10.3485
10.2811
10.2596
10.2803
10.3382
10.4269
10.5403
10.6834
10.8697
11.0542
10.9468
-4901.09
-4207.53
-3308.72
-2457.89
-1682.17
-1035.41
-459.219
60.9329
502.851
843.832
1079.02
1219.08
1281.63
1284.82
1245.54
1179.41
1100.81
1021.01
947.307
883.273
830.201
787.536
753.156
724.46
698.26
671.684
643.645
614.101
581.975
545.387
503.926
458.927
412.421
366.411
322.537
281.98
245.339
212.701
183.99
159.227
138.181
120.25
104.859
91.5266
79.8788
69.6499
60.664
52.8023
45.9728
40.0881
35.0584
30.7909
27.1944
24.1819
21.6741
19.5996
17.8959
16.5087
15.3916
14.5047
13.8143
13.2921
12.9141
12.6601
12.5135
12.4599
12.4873
12.5855
12.7453
12.9585
13.2175
13.515
13.8434
14.1947
14.559
14.9265
15.2973
15.682
16.038
16.0795
9476.48
9301.1
9077.29
8746.69
8220.04
7505.91
6641.86
5739.4
4931.72
4284.7
3769.41
3324.61
2913.53
2526.8
2164.25
1826.16
1513.18
1227.56
972.152
749.238
559.116
401.96
281.28
200.067
153.129
130.354
126.252
138.066
161.421
190.173
217.395
238.252
249.692
250.23
240.198
221.882
198.806
174.386
150.926
129.521
110.491
93.9194
79.6814
67.5867
57.415
48.9248
41.8691
36.0123
31.1448
27.0918
23.7144
20.9049
18.5799
16.6736
15.1323
13.9109
12.9705
12.2768
11.7994
11.511
11.387
11.4056
11.5473
11.7949
12.133
12.5483
13.0289
13.5643
14.1449
14.7622
15.4076
16.0731
16.7501
17.4295
18.0998
18.749
19.3727
19.9793
20.5306
20.7448
246.995
265.901
287.04
278.936
202.747
29.1534
-234.448
-535.133
-803.445
-998.77
-1122.07
-1190.94
-1218.19
-1210.35
-1172.72
-1112.72
-1038.36
-956.66
-873.017
-791.412
-713.679
-641.899
-577.849
-523.205
-479.011
-444.609
-417.391
-392.616
-365.794
-332.973
-290.797
-240.358
-186.312
-135.022
-92.0258
-60.1172
-37.7546
-22.783
-12.7414
-5.86794
-1.09128
2.23517
4.50909
5.98417
6.83846
7.21215
7.2276
6.99577
6.61522
6.1696
5.72626
5.33653
5.03719
4.8527
4.79749
4.87813
5.09505
5.44389
5.91664
6.50263
7.18955
7.96431
8.81379
9.72539
10.6874
11.6893
12.7216
13.7762
14.8456
15.9229
17.0012
18.0736
19.1326
20.1695
21.1731
22.1299
23.0321
23.886
24.6619
25.0866
-11553.6
-11210.9
-10733.7
-10121.5
-9392.1
-8605.04
-7780.34
-6926.56
-6059.9
-5214
-4431.1
-3744.92
-3170.5
-2705.45
-2337.84
-2051.2
-1828.9
-1655.41
-1518.28
-1407.51
-1315.5
-1236.31
-1165.42
-1098.89
-1031.59
-956.597
-868.487
-768.21
-662.962
-561.453
-468.831
-385.919
-312.601
-250.029
-199.606
-161.14
-132.303
-110.195
-93.068
-79.3963
-68.4106
-59.6146
-52.2887
-46.0396
-40.6134
-35.8376
-31.599
-27.8178
-24.4302
-21.3805
-18.6174
-16.0928
-13.7623
-11.5853
-9.52593
-7.55377
-5.64432
-3.77925
-1.94607
-0.137314
1.65058
3.41844
5.16544
6.88993
8.59008
10.2642
11.9111
13.5294
15.1182
16.6762
18.2016
19.6915
21.1418
22.5461
23.895
25.1751
26.3747
27.4962
28.5198
29.1872
9284.92
9083.13
8786.13
8359.51
7783.21
7169.43
6576.07
6023.55
5507.92
5013.68
4523.33
4025.57
3519.86
3014.29
2520.59
2049.05
1606.62
1197.1
822.719
485.171
185.56
-76.4927
-302.257
-493.469
-651.146
-773.652
-856.988
-898.781
-902.907
-878.628
-834.823
-777.339
-710.506
-639.317
-569.106
-503.996
-445.881
-394.601
-348.214
-305.191
-265.003
-227.468
-193.092
-162.305
-135.434
-112.598
-93.6205
-78.0717
-65.3887
-55
-46.4022
-39.1887
-33.0472
-27.7436
-23.1017
-18.9854
-15.2856
-11.9133
-8.79678
-5.87972
-3.12022
-0.488653
2.03488
4.46328
6.8049
9.06547
11.2495
13.361
15.404
17.3823
19.2991
21.1564
22.9542
24.6901
26.3577
27.9455
29.4399
30.8404
32.1469
33.1313
-2371.43
-2284.9
-2214.42
-2176.82
-2098.93
-1969.75
-1788.89
-1579.55
-1361.19
-1142.03
-928.229
-726.301
-540.556
-372.095
-222.449
-97.3209
-2.83773
61.9685
106.237
140.854
172.224
201.75
225.816
238.9
235.837
213.739
174.422
125.255
76.2174
34.9004
3.88828
-18.1196
-33.9358
-45.9305
-55.1979
-62.1721
-67.1647
-70.2122
-71.3492
-70.4357
-67.0267
-61.5904
-54.9059
-47.9335
-41.407
-35.9044
-31.8291
-29.227
-27.7917
-27.0235
-26.471
-25.7959
-24.7977
-23.3964
-21.5941
-19.437
-16.9897
-14.3199
-11.4915
-8.56302
-5.58625
-2.60612
0.339823
3.22182
6.01811
8.71474
11.3049
13.7877
16.1673
18.4506
20.6458
22.7608
24.8015
26.7706
28.6659
30.4793
32.1992
33.8238
35.3488
36.5224
-7725.05
-7416.93
-6983.09
-6431.87
-5718.4
-4948.02
-4210.52
-3571.31
-3047.77
-2629.72
-2309.71
-2090.5
-1961.48
-1882.07
-1813.47
-1761.24
-1747.65
-1758.08
-1753.25
-1709.17
-1622.5
-1500.62
-1354.44
-1195.54
-1034.05
-877.571
-730.982
-596.991
-476.964
-371.533
-280.863
-204.711
-142.477
-93.2927
-56.1007
-29.6746
-12.5994
-3.24627
0.120491
-0.909973
-5.10485
-11.6093
-19.6947
-28.1965
-36.0567
-42.5477
-47.0097
-49.5079
-50.1853
-49.3006
-47.1844
-44.1726
-40.5644
-36.5995
-32.4506
-28.2296
-24.0033
-19.8109
-15.679
-11.6307
-7.68974
-3.88064
-0.226365
3.25443
6.54976
9.65557
12.5758
15.3212
17.908
20.3554
22.6834
24.9104
27.0514
29.1162
31.1079
33.0219
34.8473
36.5772
38.1922
39.4693
13663.8
13482.8
13233.6
12836.4
12256.1
11551.9
10747.7
9859.33
8897.51
7856.23
6701.6
5384.6
3946.53
2619.03
1632.07
935.109
344.991
-165.119
-536.22
-769.058
-893.948
-934.809
-914.956
-855.592
-772.845
-678.776
-582.718
-491.584
-410.002
-340.506
-283.898
-239.581
-205.791
-179.988
-159.494
-142.281
-127.475
-115.202
-105.862
-99.4634
-95.4931
-93.1693
-91.7558
-90.653
-89.2844
-87.4768
-85.5855
-82.8469
-79.061
-74.285
-68.7212
-62.6404
-56.3081
-49.932
-43.6409
-37.4954
-31.5139
-25.7002
-20.0637
-14.6281
-9.42974
-4.51072
0.0909358
4.34977
8.25776
11.8248
15.0757
18.0451
20.7736
23.3021
25.6689
27.9072
30.0435
32.096
34.0732
35.9736
37.7856
39.4947
41.0797
42.3716
-2097.68
-1771.85
-1392.08
-1115.94
-889.848
-736.689
-622.341
-543.299
-505.377
-499.539
-506.603
-514.963
-524.857
-539.116
-561.635
-603.446
-673.059
-760.617
-843.047
-900.968
-924.876
-913.471
-872.001
-810.129
-739.016
-668.744
-605.844
-552.985
-510.212
-476.139
-448.404
-424.22
-400.939
-376.616
-350.48
-323.054
-295.684
-270.122
-247.959
-230.229
-217.153
-208.085
-201.71
-196.458
-190.932
-183.796
-174.262
-162.45
-148.768
-133.855
-118.47
-103.342
-89.0447
-75.9189
-64.067
-53.4021
-43.7335
-34.8544
-26.6048
-18.8989
-11.7214
-5.10356
0.910104
6.28993
11.0394
15.1975
18.8316
22.0246
24.8617
27.4217
29.7715
31.9647
34.041
36.0274
37.9385
39.776
41.5293
43.1758
44.6734
45.8284
-68.8495
-65.4687
-61.3701
-56.9388
-52.4744
-48.197
-44.246
-40.6782
-37.4948
-34.6762
-32.2018
-30.0529
-28.21
-26.6551
-25.3759
-24.3681
-23.6366
-23.192
-23.046
-23.2032
-23.6532
-24.3671
-25.3032
-26.4177
-27.6741
-29.041
-30.4832
-31.9532
-33.3865
-34.7117
-35.8327
-36.6656
-37.1378
-37.2051
-36.8068
-35.9349
-34.609
-32.8735
-30.7941
-28.4508
-25.927
-23.3082
-20.6741
-18.0943
-15.6283
-13.3201
-11.1974
-9.27339
-7.54831
-6.01336
-4.65398
-3.45294
-2.39254
-1.45601
-0.628213
0.104152
0.752588
1.32698
1.83584
2.28646
2.68512
3.03723
3.34752
3.62011
3.85871
4.06664
4.24695
4.40243
4.53565
4.64895
4.74447
4.8242
4.89022
4.94445
4.98861
5.02427
5.05212
5.07383
5.09028
5.1023
5.11061
5.11584
5.11847
5.11888
5.11732
5.11397
5.10893
5.10226
5.09394
5.08388
5.07197
5.05809
5.04208
5.02372
5.00278
4.97897
4.95201
4.92154
4.88717
4.84843
4.80482
4.7558
4.70078
4.63914
4.5702
4.49325
4.40747
4.31195
4.20564
4.08747
3.95655
3.8125
3.65571
3.48754
3.31017
3.12612
2.93759
2.74582
2.55066
2.35072
2.14372
1.92713
1.6987
1.45682
1.2007
0.930416
0.646858
0.351683
0.0472474
-0.263478
-0.576987
-0.889331
-1.19621
-1.4931
-1.77527
-2.03778
-2.27731
-2.49006
-2.67228
-2.82254
-2.93966
-3.02284
-3.07206
-3.08808
-3.07243
-3.02726
-2.95521
-2.85931
-2.74281
-2.60907
-2.46143
-2.30313
-2.13723
-1.96656
-1.79368
-1.62087
-1.45013
-1.28317
-1.12146
-0.966195
-0.818315
-0.678532
-0.547334
-0.425014
-0.311693
-0.207362
-0.111914
-0.0251892
0.052999
0.122835
0.184499
0.238169
0.28405
0.32239
0.353508
0.377807
0.395776
0.407991
0.415105
0.417833
0.416927
0.41315
0.407245
0.399911
0.391775
0.383369
0.375099
0.367207
0.359732
0.352471
0.344967
0.336496
0.326079
0.312542
0.294319
0.270103
0.236924
0.196108
0.135677
0.0792424
-60.1413
-57.6276
-54.2019
-50.3744
-46.535
-42.9042
-39.5743
-36.5629
-33.8538
-31.4296
-29.2823
-27.4079
-25.8002
-24.4518
-23.3584
-22.522
-21.9524
-21.6651
-21.6762
-21.9945
-22.6131
-23.5053
-24.6293
-25.9396
-27.3951
-28.9599
-30.5944
-32.2476
-33.8531
-35.3319
-36.5927
-37.5482
-38.1218
-38.2491
-37.8858
-37.0197
-35.669
-33.8799
-31.7213
-29.277
-26.6367
-23.8899
-21.1207
-18.403
-15.7998
-13.3593
-11.1141
-9.08112
-7.26374
-5.65447
-4.23852
-2.99718
-1.91057
-0.959482
-0.126439
0.603931
1.24488
1.80773
2.30214
2.73636
3.11741
3.45129
3.74315
3.99745
4.21807
4.40844
4.57163
4.71045
4.82749
4.92512
5.00558
5.07096
5.12329
5.16448
5.1962
5.21979
5.23707
5.24866
5.25567
5.25892
5.25913
5.25687
5.25257
5.24656
5.23902
5.23007
5.21978
5.20813
5.19503
5.18036
5.16396
5.14568
5.12531
5.1026
5.07729
5.04909
5.01767
4.98266
4.94364
4.90013
4.85159
4.79748
4.73718
4.67004
4.59536
4.51242
4.42037
4.3183
4.20509
4.07961
3.94085