/*--------------------------------*- C++ -*----------------------------------*\
| =========                 |                                                 |
| \\      /  F ield         | OpenFOAM: The Open Source CFD Toolbox           |
|  \\    /   O peration     | Version:  2012                                  |
|   \\  /    A nd           | Website:  www.openfoam.com                      |
|    \\/     M anipulation  |                                                 |
\*---------------------------------------------------------------------------*/
FoamFile
{
    version     2.0;
    format      ascii;
    class       volVectorField;
    location    "0.46";
    object      U;
}
// * * * * * * * * * * * * * * * * * * * * * * * * * * * * * * * * * * * * * //

dimensions      [0 1 -1 0 0 0 0];


internalField   nonuniform List<vector> 
42400
(
(0.304666 3.34302 -1.59147e-16)
(-0.885292 16.6691 -2.25096e-16)
(-6.76195 25.8139 2.30208e-16)
(-4.69191 36.0949 0)
(-3.03385 43.2494 0)
(-1.15888 53.4949 4.27253e-19)
(0.321175 65.3315 0)
(2.66153 76.4197 -4.0989e-19)
(7.17621 84.3578 0)
(14.0015 88.0598 -3.54199e-19)
(21.8405 87.9748 -3.13805e-19)
(28.5184 85.2899 2.72651e-19)
(31.9485 81.3776 7.1019e-17)
(31.998 77.3172 -7.24382e-17)
(30.6647 73.3472 1.81511e-19)
(29.6446 69.3734 0)
(29.4365 65.4923 0)
(29.7828 61.7218 0)
(30.354 58.0069 0)
(30.9356 54.3117 0)
(31.3466 50.584 0)
(31.456 46.8735 4.1753e-20)
(31.148 43.2707 -8.68787e-18)
(30.3085 39.8928 -2.01704e-18)
(28.8768 36.88 1.10094e-17)
(26.8239 34.3122 -3.07019e-20)
(24.2214 32.2733 -3.61838e-20)
(21.1907 30.7252 7.59283e-20)
(17.9021 29.5869 0)
(14.5301 28.7501 0)
(11.2397 28.1128 7.86928e-18)
(8.17498 27.5833 -7.94591e-18)
(5.44046 27.0603 2.72442e-20)
(3.09757 26.4318 -3.31599e-18)
(1.16492 25.5919 3.34603e-18)
(-0.380064 24.4647 0)
(-1.5847 23.026 0)
(-2.48833 21.301 0)
(-3.10264 19.3526 0)
(-3.42818 17.2797 2.16171e-18)
(-3.4765 15.1914 -2.17049e-18)
(-3.26021 13.1417 3.24766e-18)
(-2.77577 11.1008 1.99648e-19)
(-2.0159 9.00469 -7.45158e-18)
(-0.997957 6.8254 3.75455e-18)
(0.215153 4.59785 -4.03218e-18)
(1.53204 2.42744 8.2617e-18)
(2.85021 0.435122 -3.97355e-18)
(4.07063 -1.27454 -2.31148e-19)
(5.10542 -2.63147 3.39232e-18)
(5.89848 -3.59652 -6.35767e-18)
(6.43023 -4.16991 8.45048e-20)
(6.71642 -4.3976 2.80876e-18)
(6.80653 -4.36686 -2.15098e-19)
(6.77324 -4.18973 0)
(6.69328 -3.97518 0)
(6.62699 -3.80062 0)
(6.60517 -3.69661 7.69321e-20)
(6.62769 -3.65069 5.17559e-20)
(6.67173 -3.6247 0)
(6.70458 -3.57584 2.2094e-19)
(6.69603 -3.47305 -2.07109e-19)
(6.6273 -3.30536 3.38442e-19)
(6.49506 -3.08188 -3.32122e-19)
(6.31065 -2.82571 0)
(6.09557 -2.56501 0)
(5.87541 -2.32488 9.87605e-19)
(5.67424 -2.1225 -9.6554e-19)
(5.51068 -1.96604 -1.54055e-19)
(5.39624 -1.85619 0)
(5.33527 -1.78856 0)
(5.3261 -1.75598 -1.69689e-19)
(5.36256 -1.74985 -1.72745e-19)
(5.43549 -1.76105 0)
(5.53396 -1.78043 -1.76749e-19)
(5.64639 -1.79922 -1.36587e-18)
(5.76144 -1.80942 1.32496e-18)
(5.86931 -1.80373 3.57372e-19)
(5.96139 -1.77759 1.38385e-18)
(6.00599 -1.76199 1.46373e-18)
(33.5611 -30.5764 0)
(70.6452 -66.681 1.06395e-16)
(87.1375 -77.1343 -1.08804e-16)
(85.828 -77.4004 0)
(80.6878 -72.5298 0)
(68.9845 -65.3141 8.04088e-17)
(52.6149 -56.4938 -8.25575e-17)
(33.8766 -46.0318 4.06061e-19)
(14.1473 -34.4795 0)
(-6.05517 -22.3608 3.50949e-19)
(-27.6821 -9.24791 3.11166e-19)
(-52.301 6.1808 -2.24707e-17)
(-77.6938 22.3416 8.84023e-18)
(-93.4509 31.2439 1.49471e-17)
(-91.3794 26.6102 1.62296e-18)
(-76.8957 13.174 -1.54628e-18)
(-60.6431 -0.0375612 0)
(-48.0819 -8.8103 1.25443e-19)
(-39.4501 -13.4249 0)
(-33.4464 -15.3254 0)
(-29.042 -15.6402 0)
(-25.6597 -15.0026 9.365e-18)
(-22.9982 -13.7446 -1.60965e-19)
(-20.9015 -12.0628 -9.66386e-18)
(-19.2461 -10.0613 0)
(-17.9507 -7.81946 1.79385e-19)
(-16.9436 -5.40109 3.65051e-20)
(-16.1532 -2.87301 -7.65913e-20)
(-15.5062 -0.312788 6.35561e-18)
(-14.9318 2.19839 -6.42564e-18)
(-14.4085 4.59889 3.44902e-19)
(-13.8926 6.80593 3.36711e-19)
(-13.3396 8.75736 3.18859e-18)
(-12.7118 10.41 -3.56747e-18)
(-11.9798 11.7385 -2.80054e-18)
(-11.1193 12.7449 3.0832e-18)
(-10.1206 13.4479 0)
(-9.00066 13.8665 -2.2807e-19)
(-7.78122 14.025 0)
(-6.47515 13.9485 -3.79695e-19)
(-5.08752 13.6561 3.00537e-18)
(-3.61784 13.1608 -3.35853e-18)
(-2.06533 12.4699 2.2587e-19)
(-0.438366 11.5888 -2.43955e-19)
(1.23738 10.5297 4.87632e-21)
(2.91911 9.31935 -2.6068e-19)
(4.54248 7.99951 2.57539e-19)
(6.04316 6.62214 3.37334e-18)
(7.35828 5.24585 -3.37759e-18)
(8.44052 3.93558 0)
(9.25633 2.75887 1.22607e-19)
(9.78163 1.76927 3.11336e-19)
(10.0165 1.0033 1.40517e-18)
(9.99613 0.466681 -1.43803e-18)
(9.79371 0.125746 -9.77528e-20)
(9.507 -0.0850606 1.48188e-18)
(9.22952 -0.23959 -1.5816e-18)
(9.02138 -0.392892 -7.66362e-20)
(8.89468 -0.565551 -5.15697e-20)
(8.81853 -0.745347 4.25348e-20)
(8.73847 -0.901796 -4.18747e-20)
(8.60031 -1.00468 -1.01012e-20)
(8.36944 -1.03875 -5.43062e-20)
(8.04077 -1.00996 0)
(7.63769 -0.942319 9.15575e-19)
(7.20242 -0.867912 1.41187e-19)
(6.78236 -0.815142 -1.33237e-18)
(6.41784 -0.800757 0)
(6.13475 -0.828154 3.43071e-19)
(5.94304 -0.890809 -1.9371e-19)
(5.83947 -0.977553 -1.47072e-18)
(5.81235 -1.07683 1.60243e-18)
(5.84587 -1.17884 1.68165e-18)
(5.92317 -1.27582 -1.66804e-18)
(6.02813 -1.36159 3.77175e-19)
(6.14624 -1.43088 -1.52797e-18)
(6.26516 -1.47891 1.08421e-18)
(6.37558 -1.50072 -3.57269e-19)
(6.47045 -1.49278 1.90325e-18)
(6.50809 -1.49643 -1.48014e-18)
(15.0778 -12.7945 -4.11216e-17)
(42.7533 -41.0612 1.10416e-19)
(61.9424 -57.1178 4.44421e-19)
(44.5774 -47.2569 1.00574e-19)
(1.25574 -12.0818 0)
(-41.1502 21.6832 -1.06006e-16)
(-66.6059 39.4589 2.10827e-16)
(-79.2403 45.1984 -1.04594e-16)
(-87.3217 47.2682 9.24637e-17)
(-94.103 49.0316 -8.42732e-18)
(-99.1498 50.5296 -8.75699e-17)
(-100.076 50.402 -4.0018e-19)
(-93.316 46.2796 -3.32525e-19)
(-76.7747 36.3931 5.22443e-17)
(-54.2826 22.6693 -5.31744e-17)
(-33.1638 9.51364 -3.24298e-19)
(-17.5355 -0.492977 -2.62164e-17)
(-7.38911 -7.15014 7.47167e-18)
(-1.16684 -11.1898 1.95004e-17)
(2.56157 -13.3827 -1.19646e-19)
(4.74751 -14.3104 1.41023e-19)
(5.97846 -14.4263 1.62082e-19)
(6.68273 -14.0977 0)
(7.22418 -13.6137 -7.40333e-20)
(7.82104 -13.1251 -8.65237e-18)
(8.47032 -12.5797 1.92331e-17)
(9.00836 -11.809 -1.09356e-17)
(9.2837 -10.662 1.41405e-17)
(9.2451 -9.08952 -1.43064e-17)
(8.95654 -7.12075 -1.64658e-17)
(8.50866 -4.82181 3.23654e-17)
(8.00456 -2.34658 -3.12501e-20)
(7.50862 0.171586 -1.67881e-17)
(7.06321 2.64135 0)
(6.70894 4.99355 0)
(6.44712 7.15654 -2.648e-19)
(6.25399 9.05956 0)
(6.1238 10.6691 -7.87094e-20)
(6.05489 11.968 9.76462e-18)
(6.04407 12.9371 -1.83654e-17)
(6.09816 13.5643 8.83274e-18)
(6.23343 13.844 0)
(6.46876 13.778 0)
(6.81551 13.3786 4.33719e-18)
(7.26734 12.6709 -4.08907e-18)
(7.80678 11.7001 -1.70447e-19)
(8.39029 10.5259 0)
(8.95855 9.22126 0)
(9.4507 7.86766 1.73465e-18)
(9.81917 6.55627 -1.72723e-18)
(10.0194 5.35936 -1.22488e-19)
(10.0319 4.32568 0)
(9.88078 3.47533 -7.29902e-19)
(9.63148 2.79856 6.79331e-19)
(9.36862 2.26248 -5.53559e-19)
(9.1648 1.82585 7.30815e-19)
(9.05672 1.45293 -9.35519e-21)
(9.03642 1.12208 -1.51635e-19)
(9.0585 0.827817 6.5305e-19)
(9.05757 0.577488 2.26814e-19)
(8.96925 0.38431 -6.58762e-19)
(8.7487 0.258679 -1.04392e-18)
(8.38349 0.200264 1.08008e-18)
(7.89811 0.19384 0)
(7.34878 0.211111 -1.29806e-18)
(6.80863 0.218535 -1.21264e-19)
(6.34673 0.188128 1.90322e-18)
(6.00933 0.106135 0)
(5.81147 -0.024728 -4.20691e-19)
(5.74134 -0.189808 -1.52864e-18)
(5.77204 -0.370202 1.44589e-18)
(5.87317 -0.549119 0)
(6.01787 -0.714756 0)
(6.18511 -0.860143 2.00484e-19)
(6.3593 -0.981582 -2.00447e-19)
(6.52897 -1.07706 -1.26196e-18)
(6.68583 -1.14519 2.05881e-18)
(6.82433 -1.1845 0)
(6.94163 -1.19366 -3.91671e-19)
(6.99738 -1.21953 -1.6517e-18)
(8.46013 -5.95635 4.30661e-17)
(38.5465 -31.369 -6.47742e-17)
(72.6433 -63.8993 3.29586e-17)
(85.4639 -81.1786 3.27546e-17)
(72.2927 -76.2218 -3.39775e-17)
(47.2987 -58.2529 0)
(24.029 -39.6283 7.10749e-17)
(8.43096 -27.1283 -7.22369e-17)
(-0.0224913 -21.1642 7.42317e-17)
(-3.72065 -19.37 -7.59166e-17)
(-4.54679 -19.0113 7.21528e-17)
(-2.94855 -18.2893 -1.42704e-16)
(1.60616 -16.9411 1.3247e-16)
(8.45419 -15.0742 -1.20323e-16)
(14.7786 -12.0732 1.06967e-16)
(18.6092 -7.88483 -5.05252e-17)
(20.3057 -3.45947 -3.67133e-17)
(21.0571 0.289924 6.86753e-17)
(21.6046 2.9422 -3.20034e-17)
(22.138 4.44796 1.21538e-19)
(22.5496 5.23695 2.94221e-19)
(22.5278 6.15958 -2.23425e-17)
(21.6627 7.63164 2.20339e-17)
(19.8543 9.21814 1.88251e-19)
(17.305 10.2964 0)
(14.3339 10.7305 1.9032e-19)
(11.3319 10.7701 0)
(8.54889 10.5906 1.08366e-17)
(6.03616 10.2241 -5.23005e-19)
(3.76817 9.72387 -1.04708e-17)
(1.74181 9.23099 -1.05215e-17)
(-0.039718 8.85852 1.01944e-17)
(-1.58025 8.66471 3.72905e-20)
(-2.88817 8.6411 -3.45275e-19)
(-3.96031 8.76913 -9.37951e-18)
(-4.78279 9.03129 9.70575e-18)
(-5.34953 9.39663 0)
(-5.65972 9.8216 7.62015e-18)
(-5.71409 10.2613 -7.34176e-18)
(-5.51833 10.6728 4.78079e-19)
(-5.08438 11.0152 -2.30393e-19)
(-4.43017 11.2513 0)
(-3.57947 11.348 0)
(-2.56429 11.2786 0)
(-1.42597 11.0263 -9.05297e-20)
(-0.214522 10.5876 2.10841e-18)
(1.01397 9.97751 -1.9337e-18)
(2.19438 9.22065 0)
(3.27238 8.35383 0)
(4.21323 7.42269 5.202e-19)
(4.99873 6.4728 -5.34131e-19)
(5.64426 5.55043 4.1433e-20)
(6.1781 4.66898 -6.696e-20)
(6.63792 3.84487 -8.48693e-20)
(7.0498 3.08919 3.41685e-19)
(7.41375 2.40508 -4.49216e-19)
(7.70381 1.79063 1.27125e-18)
(7.88106 1.24538 -1.13666e-18)
(7.90852 0.773583 0)
(7.76478 0.38547 1.27709e-19)
(7.45381 0.0941569 1.7492e-18)
(7.00924 -0.0920777 -3.06116e-20)
(6.49129 -0.178295 -3.8152e-18)
(5.97592 -0.186149 3.65343e-18)
(5.53787 -0.14902 -1.62265e-18)
(5.23305 -0.101884 -2.02021e-18)
(5.08716 -0.07184 1.47071e-18)
(5.09455 -0.0734415 2.82663e-19)
(5.22667 -0.109255 2.0155e-18)
(5.4449 -0.173569 -2.01522e-18)
(5.71197 -0.256815 5.09257e-19)
(5.99841 -0.349011 2.29957e-18)
(6.28405 -0.441624 -1.97362e-18)
(6.55637 -0.528081 0)
(6.80788 -0.603502 1.94977e-18)
(7.03397 -0.664239 -4.23827e-19)
(7.23152 -0.707508 -4.24333e-18)
(7.39832 -0.731254 1.82846e-18)
(7.53507 -0.731861 -1.81405e-18)
(7.599 -0.765228 1.7678e-18)
(-12.3899 10.0334 3.24481e-17)
(-37.6997 30.7247 0)
(-53.2546 41.0639 0)
(-54.3591 41.8569 1.70673e-19)
(-52.9039 39.6458 0)
(-57.4649 43.1956 0)
(-71.0163 54.6362 0)
(-92.448 72.626 -7.94259e-19)
(-115.864 92.0883 0)
(-129.283 103.266 2.39612e-19)
(-121.037 96.8072 3.26187e-17)
(-90.7913 72.7457 -5.74456e-17)
(-51.485 41.282 2.56641e-17)
(-18.459 13.5783 0)
(1.29654 -5.66883 -2.77318e-19)
(9.94894 -17.7324 3.62652e-19)
(12.4858 -25.4943 0)
(12.2226 -31.013 2.38399e-17)
(10.628 -35.4119 -5.14342e-17)
(8.46628 -39.0041 -2.82504e-18)
(6.16006 -41.5605 3.0742e-17)
(3.44297 -42.9336 4.52934e-19)
(-0.293956 -43.2237 0)
(-4.75306 -42.4039 -3.59969e-17)
(-8.73352 -40.6169 3.67299e-17)
(-11.5788 -38.5358 -3.33804e-17)
(-13.4149 -36.6544 3.39791e-17)
(-14.3953 -34.9262 2.8452e-17)
(-14.6561 -33.2013 -2.8452e-17)
(-14.3906 -31.4086 0)
(-13.7305 -29.5014 -1.90705e-17)
(-12.7703 -27.4833 1.92428e-17)
(-11.5991 -25.3369 3.96856e-19)
(-10.3138 -23.0497 -1.07225e-17)
(-9.0159 -20.6697 1.11469e-17)
(-7.78071 -18.2755 -1.18326e-19)
(-6.6521 -15.9275 -1.15875e-19)
(-5.62911 -13.682 -4.30815e-18)
(-4.70189 -11.575 4.32236e-18)
(-3.85851 -9.62425 2.42924e-18)
(-3.08951 -7.84002 -4.37571e-19)
(-2.38555 -6.22898 -1.82189e-18)
(-1.73466 -4.79436 0)
(-1.12464 -3.53994 -2.13714e-20)
(-0.544566 -2.47141 -4.66835e-20)
(0.0151227 -1.59196 -1.14235e-19)
(0.561601 -0.903092 5.62715e-19)
(1.09925 -0.404297 -3.26862e-19)
(1.63429 -0.083914 0)
(2.1726 0.0737597 -7.95401e-20)
(2.71405 0.0883329 8.99937e-19)
(3.25702 0.00187635 -9.60425e-19)
(3.7776 -0.157829 -1.09021e-19)
(4.24095 -0.35524 1.05586e-18)
(4.60735 -0.55784 -8.60054e-19)
(4.84726 -0.73941 1.21607e-18)
(4.9555 -0.885449 1.455e-18)
(4.9565 -0.996475 -2.55683e-18)
(4.8966 -1.08257 2.50942e-18)
(4.82635 -1.15299 -2.60093e-18)
(4.78343 -1.20797 0)
(4.78583 -1.23776 1.34188e-19)
(4.83609 -1.22884 2.50187e-18)
(4.93047 -1.1726 -2.18098e-18)
(5.06566 -1.07091 -6.38246e-19)
(5.24 -0.935969 0)
(5.45108 -0.785711 -2.59592e-18)
(5.69344 -0.638075 2.19025e-18)
(5.95865 -0.506862 2.8138e-19)
(6.23706 -0.400039 3.29164e-19)
(6.51968 -0.320042 -5.97324e-19)
(6.799 -0.265135 4.24313e-20)
(7.06885 -0.231004 2.60093e-18)
(7.3238 -0.212118 -2.23117e-18)
(7.55863 -0.202704 2.90847e-19)
(7.76816 -0.197392 0)
(7.94736 -0.191604 2.58952e-18)
(8.09153 -0.182267 -2.03006e-18)
(8.19991 -0.163108 0)
(8.23927 -0.1884 1.94637e-18)
(3.0475 -3.98895 1.85973e-19)
(11.0287 -8.08237 8.07574e-17)
(20.6921 -11.0285 -7.95088e-17)
(29.6626 -11.3744 1.58636e-16)
(34.7678 -9.54667 -7.91587e-17)
(35.8987 -6.40053 -4.98649e-19)
(33.0564 -1.75712 -6.60964e-17)
(26.374 5.37011 6.81705e-17)
(16.3973 15.6876 4.98742e-19)
(4.57603 28.6927 2.4492e-19)
(-7.05804 42.3085 4.27337e-17)
(-16.7841 53.9046 2.94391e-17)
(-24.0446 61.7438 -7.44623e-17)
(-29.3996 65.6002 5.35688e-17)
(-33.7052 66.4149 -1.00491e-16)
(-37.4595 65.4439 4.77094e-17)
(-40.7754 63.548 0)
(-43.5631 61.0453 0)
(-45.6152 57.925 -3.58912e-17)
(-46.6266 54.0024 1.9653e-18)
(-46.0061 49.0323 3.45398e-17)
(-43.1482 42.8505 -3.02163e-17)
(-38.2543 35.5952 5.81285e-17)
(-32.4743 28.1418 -2.78922e-17)
(-26.8931 21.5915 -1.94923e-17)
(-21.8043 16.1729 4.64185e-18)
(-17.0095 11.4637 1.51472e-17)
(-12.309 7.09801 -2.64248e-19)
(-7.63507 2.9709 2.15664e-19)
(-3.0217 -0.845788 -3.45058e-19)
(1.38418 -4.21173 0)
(5.31972 -6.96195 1.68769e-18)
(8.45532 -8.93195 -3.74245e-18)
(10.5071 -10.0297 2.10765e-18)
(11.3814 -10.2937 0)
(11.2288 -9.88567 -1.56495e-18)
(10.3402 -9.03946 1.54173e-18)
(9.04993 -7.98426 0)
(7.62381 -6.88889 0)
(6.23425 -5.85213 5.22435e-19)
(4.97757 -4.91676 -4.85344e-19)
(3.90339 -4.09214 1.35156e-19)
(3.035 -3.37811 0)
(2.3813 -2.77381 -1.31399e-18)
(1.94457 -2.27279 -7.48748e-20)
(1.71449 -1.86843 1.49248e-18)
(1.67092 -1.55129 1.28989e-19)
(1.78716 -1.30566 -1.98502e-19)
(2.02854 -1.1183 0)
(2.36068 -0.981438 1.83886e-18)
(2.75039 -0.886177 -3.59011e-18)
(3.16762 -0.825844 1.9135e-18)
(3.59096 -0.794624 1.8039e-19)
(4.00562 -0.786156 2.00576e-18)
(4.40297 -0.793272 -1.72344e-19)
(4.77881 -0.807056 -3.60643e-18)
(5.13091 -0.816628 1.33737e-18)
(5.4562 -0.811092 0)
(5.74941 -0.782441 0)
(6.00406 -0.727332 -2.47543e-19)
(6.21489 -0.646812 -2.42375e-19)
(6.38098 -0.544786 0)
(6.50785 -0.426562 -3.14167e-18)
(6.60735 -0.298112 3.08093e-18)
(6.69515 -0.165945 3.5579e-18)
(6.7869 -0.0369909 4.27617e-19)
(6.89482 0.0819772 -2.71661e-18)
(7.02596 0.185358 2.98904e-18)
(7.18206 0.26966 -2.91917e-18)
(7.3605 0.333891 5.30255e-20)
(7.55566 0.379294 -2.44078e-18)
(7.76007 0.408679 2.3767e-18)
(7.96526 0.425683 2.30475e-18)
(8.16231 0.434153 -2.87516e-18)
(8.34232 0.437721 2.17221e-18)
(8.49674 0.439518 -2.39105e-18)
(8.61792 0.441962 2.31869e-18)
(8.69964 0.446166 -4.49533e-18)
(8.7388 0.456246 4.47659e-22)
(8.72456 0.432352 -5.35709e-22)
(31.1243 -18.6223 2.44683e-17)
(96.1825 -47.4895 -1.87527e-19)
(131.929 -72.5677 -2.45674e-17)
(135.76 -69.2607 4.43821e-17)
(111.851 -55.7821 -1.94587e-17)
(79.9766 -36.6251 7.88563e-18)
(50.4137 -18.7836 -5.54024e-18)
(27.7868 -4.91699 -2.05583e-18)
(12.3685 4.90172 -6.71112e-18)
(2.63161 11.7197 6.27437e-18)
(-3.20771 16.633 -1.27647e-17)
(-6.74573 20.3815 1.32098e-17)
(-9.07638 23.3814 -1.65999e-17)
(-10.7283 25.7557 1.6541e-17)
(-11.849 27.4206 -3.47102e-19)
(-12.3606 28.2722 -3.29288e-19)
(-12.1026 28.2584 -3.84401e-17)
(-10.9466 27.3875 3.9073e-17)
(-8.84567 25.77 6.00925e-19)
(-5.865 23.5957 2.1494e-19)
(-2.17696 21.1342 -3.80552e-17)
(1.92184 18.6921 3.88701e-17)
(5.99697 16.5834 0)
(9.56645 15.0416 6.90269e-20)
(12.2592 14.1241 0)
(13.8772 13.6865 0)
(14.3981 13.4765 1.84171e-19)
(13.9313 13.2151 2.36449e-17)
(12.8673 12.6721 -2.40838e-17)
(11.6656 11.6485 -1.78191e-17)
(10.6428 10.0789 1.83804e-17)
(9.8341 8.06089 -2.1138e-19)
(9.06365 5.81973 1.62943e-19)
(8.13783 3.6053 0)
(6.98558 1.61086 2.32665e-19)
(5.6727 -0.0602413 0)
(4.33484 -1.38404 0)
(3.10811 -2.38654 1.62138e-19)
(2.08908 -3.11543 0)
(1.32602 -3.62079 0)
(0.824803 -3.94327 -2.97759e-18)
(0.561397 -4.11538 2.86787e-18)
(0.503298 -4.16231 0)
(0.616733 -4.10483 0)
(0.87024 -3.96341 0)
(1.23218 -3.76109 2.04052e-19)
(1.67616 -3.51578 -1.293e-19)
(2.18014 -3.24192 -2.46113e-18)
(2.72022 -2.95232 2.58169e-18)
(3.27567 -2.65936 -2.60869e-18)
(3.82888 -2.37066 2.92123e-18)
(4.36454 -2.08974 -3.26228e-19)
(4.86985 -1.81853 -1.85671e-19)
(5.33316 -1.55742 0)
(5.74475 -1.30625 0)
(6.09758 -1.06473 2.08565e-18)
(6.3884 -0.833171 2.38939e-19)
(6.61855 -0.612891 -2.34832e-18)
(6.79406 -0.406025 2.2675e-18)
(6.92477 -0.214918 -2.29343e-18)
(7.02276 -0.0414211 -4.05805e-18)
(7.10078 0.113614 4.62283e-20)
(7.17086 0.250419 7.89109e-18)
(7.24337 0.369982 -3.98642e-18)
(7.32645 0.473532 -2.60098e-19)
(7.42571 0.562126 -4.28715e-19)
(7.54414 0.636529 -3.59292e-18)
(7.6822 0.697332 6.9904e-18)
(7.83801 0.745205 -3.39695e-18)
(8.00763 0.781107 -3.81737e-19)
(8.1854 0.80641 -3.14487e-18)
(8.36421 0.822878 3.4668e-18)
(8.53595 0.832564 0)
(8.69187 0.83763 3.36207e-19)
(8.82313 0.840142 0)
(8.92148 0.841877 -2.63852e-18)
(8.97993 0.84404 1.47367e-20)
(8.99394 0.847333 2.46697e-18)
(8.96005 0.851706 -1.74813e-18)
(8.89067 0.844366 -5.78243e-19)
(-0.859095 -0.614092 -1.29193e-17)
(-5.36184 -2.70863 1.942e-17)
(-11.5913 -5.31713 1.33555e-19)
(-16.0932 -12.0934 2.62406e-17)
(-16.7868 -19.016 -2.67963e-17)
(-16.1662 -25.0947 2.99565e-17)
(-15.5842 -29.1381 -6.16869e-17)
(-15.4589 -31.0722 3.13451e-17)
(-15.7015 -31.4005 -3.30716e-17)
(-16.1832 -30.5367 3.3272e-17)
(-16.9733 -28.6329 0)
(-18.2452 -25.6674 1.00335e-19)
(-20.0722 -21.63 -2.85561e-19)
(-22.3747 -16.657 0)
(-24.9284 -11.0169 0)
(-27.3701 -5.00941 0)
(-29.254 1.00326 0)
(-30.1849 6.61594 3.17212e-19)
(-29.8902 11.4284 0)
(-28.1093 15.0073 -3.07799e-17)
(-24.3561 16.8949 3.10013e-17)
(-18.1791 16.7832 4.28162e-17)
(-10.4267 14.8581 -4.36893e-17)
(-3.87015 12.0931 -2.21553e-17)
(-1.14002 9.97665 2.27429e-17)
(-2.21069 9.36491 -7.22108e-18)
(-4.9067 9.81292 7.14466e-18)
(-7.29451 10.2359 6.80795e-19)
(-8.54528 9.99732 2.23511e-18)
(-8.66173 9.06136 -2.63777e-18)
(-7.97933 7.66189 0)
(-6.88647 6.02794 4.22268e-21)
(-5.68341 4.32929 -3.47454e-20)
(-4.5457 2.6855 0)
(-3.54131 1.17663 -2.33786e-19)
(-2.66833 -0.149824 0)
(-1.89274 -1.27195 0)
(-1.17795 -2.18744 -5.50312e-18)
(-0.500785 -2.90619 1.02945e-17)
(0.154963 -3.43652 -5.07849e-18)
(0.801935 -3.7834 -4.45997e-18)
(1.43911 -3.96951 4.60538e-18)
(2.05989 -4.02541 1.36438e-19)
(2.65674 -3.98074 0)
(3.22864 -3.86004 -4.30799e-18)
(3.77564 -3.68159 3.82769e-18)
(4.29916 -3.45967 0)
(4.80056 -3.20804 0)
(5.27736 -2.93763 3.4436e-18)
(5.72619 -2.65608 -3.92542e-18)
(6.14333 -2.36866 -3.96334e-18)
(6.52415 -2.07958 3.69206e-18)
(6.86419 -1.79222 3.53338e-18)
(7.15976 -1.50929 -6.56981e-18)
(7.40859 -1.2331 3.21981e-18)
(7.61037 -0.96565 7.62711e-19)
(7.76685 -0.70868 0)
(7.88181 -0.4638 -3.88644e-19)
(7.96073 -0.232607 2.38971e-18)
(8.01045 -0.0167881 -5.0839e-18)
(8.03875 0.181833 2.6257e-18)
(8.05398 0.361385 0)
(8.06456 0.520133 2.78437e-19)
(8.07855 0.656716 0)
(8.10305 0.770372 2.60008e-19)
(8.14363 0.861088 2.85035e-19)
(8.20374 0.929669 5.47554e-19)
(8.28436 0.977704 3.95722e-18)
(8.38383 1.00746 -3.36021e-18)
(8.49793 1.02174 4.84456e-19)
(8.62023 1.02366 3.52012e-18)
(8.74257 1.01647 -4.27831e-18)
(8.85577 1.00333 3.25156e-18)
(8.95029 0.987221 -3.16205e-18)
(9.0171 0.970717 3.39305e-18)
(9.0484 0.955928 -2.53652e-18)
(9.03849 0.94428 -2.76529e-18)
(8.9848 0.93685 2.68068e-18)
(8.88637 0.931264 -6.16048e-19)
(8.76565 0.937827 5.91618e-19)
(2.81429 -1.97844 9.65561e-18)
(6.06116 -0.512439 1.21596e-17)
(1.40556 -0.149812 -2.26714e-17)
(-4.18535 4.74117 1.83036e-17)
(-9.87408 6.59271 -8.0721e-18)
(-13.8031 7.69109 -1.33053e-19)
(-16.1654 7.98495 1.71954e-18)
(-17.5239 7.81484 -2.29566e-18)
(-18.4286 7.42532 7.80552e-19)
(-19.1897 6.83958 -2.39336e-19)
(-19.8572 5.96696 2.59524e-20)
(-20.3635 4.71507 4.95544e-19)
(-20.6635 3.07911 -4.9931e-19)
(-20.817 1.16416 2.91531e-20)
(-20.9775 -0.843249 -2.96957e-20)
(-21.325 -2.7221 1.44833e-18)
(-21.9629 -4.26209 -1.47414e-18)
(-22.8943 -5.32545 -3.20832e-19)
(-24.0594 -5.85602 0)
(-25.3629 -5.87245 -5.81562e-18)
(-26.6472 -5.49231 5.91356e-18)
(-27.6198 -4.95728 4.30746e-20)
(-27.8709 -4.62618 8.75963e-18)
(-27.0539 -4.81595 -8.97718e-18)
(-25.0971 -5.5363 -1.97988e-19)
(-22.2936 -6.44393 0)
(-19.2099 -7.07056 -8.21027e-20)
(-16.4262 -7.1722 -1.98934e-19)
(-14.1862 -6.80669 -1.16107e-17)
(-12.3876 -6.20413 1.18214e-17)
(-10.8304 -5.58855 7.08946e-18)
(-9.37404 -5.0898 -7.15675e-18)
(-7.95515 -4.75302 3.29286e-20)
(-6.55228 -4.57219 -1.3512e-18)
(-5.15993 -4.51698 1.37955e-18)
(-3.77878 -4.54632 1.46626e-20)
(-2.41332 -4.61212 1.99413e-18)
(-1.0697 -4.66202 -2.10177e-18)
(0.228845 -4.67264 9.87426e-21)
(1.4426 -4.64536 1.29541e-19)
(2.54382 -4.57741 -1.35597e-19)
(3.52404 -4.45509 4.30882e-18)
(4.38625 -4.27193 -2.13118e-21)
(5.13662 -4.0391 -4.4483e-18)
(5.78915 -3.77269 4.82495e-18)
(6.35977 -3.48811 -4.54727e-18)
(6.86293 -3.19672 0)
(7.30932 -2.90535 -4.72828e-18)
(7.70509 -2.61676 4.66985e-18)
(8.05243 -2.33132 -4.00768e-18)
(8.3506 -2.04864 3.21613e-19)
(8.59735 -1.76863 8.35319e-20)
(8.79021 -1.49194 8.58914e-20)
(8.92765 -1.22007 8.69571e-20)
(9.00991 -0.955157 3.75391e-18)
(9.03946 -0.699747 -1.80413e-19)
(9.02119 -0.456528 0)
(8.96234 -0.228175 3.67568e-18)
(8.87219 -0.0172166 -2.86665e-18)
(8.76155 0.174064 0)
(8.64212 0.343743 3.31078e-18)
(8.52558 0.49038 -2.50078e-18)
(8.42277 0.613134 0)
(8.34279 0.711862 3.42402e-19)
(8.29223 0.787156 0)
(8.27474 0.840318 4.48195e-18)
(8.29072 0.873272 -9.48437e-18)
(8.33739 0.888429 4.47092e-18)
(8.40916 0.888535 -5.0494e-19)
(8.49807 0.876525 -4.84634e-19)
(8.5946 0.855398 3.86273e-18)
(8.68833 0.828122 -3.31678e-18)
(8.76884 0.797568 4.62921e-19)
(8.82638 0.766452 4.42544e-19)
(8.85271 0.737284 -8.15982e-19)
(8.84171 0.712275 -3.76598e-19)
(8.79008 0.693232 -3.35735e-18)
(8.6979 0.681291 3.84679e-20)
(8.56887 0.675839 3.10509e-18)
(8.42266 0.692745 6.73898e-19)
(10.3095 -4.36513 0)
(18.8207 -6.79865 -8.59781e-20)
(12.7403 -3.95375 1.13324e-19)
(6.4171 0.169497 -7.37651e-18)
(6.04621 1.14988 1.35686e-17)
(9.27211 0.703121 -1.05752e-17)
(13.2383 -0.305474 4.62805e-18)
(15.8102 -0.973039 0)
(15.91 -0.863072 3.91388e-21)
(13.461 0.0124931 1.76257e-18)
(9.01023 1.33119 -1.82818e-18)
(3.34605 2.67997 -4.25665e-18)
(-2.73543 3.67544 9.70683e-18)
(-8.49917 3.98171 6.87753e-19)
(-13.2874 3.34304 1.86272e-19)
(-16.567 1.69921 -6.09381e-18)
(-18.0349 -0.727986 -1.41059e-19)
(-17.7764 -3.49022 5.67486e-18)
(-16.2587 -6.06208 -5.64518e-18)
(-14.1284 -7.96497 5.98271e-22)
(-11.9857 -8.92054 -1.38205e-19)
(-10.231 -8.94078 -3.2864e-19)
(-8.98505 -8.25295 4.6022e-18)
(-8.13475 -7.17963 -6.23353e-19)
(-7.50826 -6.00367 -4.11098e-18)
(-7.01819 -4.89206 -2.75748e-19)
(-6.65579 -3.90451 3.27004e-18)
(-6.39177 -3.04223 -5.44335e-18)
(-6.12669 -2.2938 4.81513e-18)
(-5.74958 -1.65761 -2.10089e-18)
(-5.18639 -1.13585 0)
(-4.40937 -0.731062 4.0138e-18)
(-3.42359 -0.444768 -8.13206e-18)
(-2.25211 -0.275833 4.07151e-18)
(-0.926831 -0.217685 -3.95594e-18)
(0.513301 -0.253087 4.54635e-18)
(2.01515 -0.368628 9.50806e-20)
(3.51388 -0.557913 0)
(4.95043 -0.784362 -9.73602e-20)
(6.27246 -0.987062 4.33886e-18)
(7.42458 -1.13778 -4.68796e-18)
(8.36372 -1.22971 1.91289e-19)
(9.07627 -1.26082 -1.86556e-19)
(9.57778 -1.23681 0)
(9.90532 -1.17257 0)
(10.1056 -1.08621 -4.57261e-18)
(10.2229 -0.992607 5.26111e-18)
(10.2905 -0.900414 2.91219e-19)
(10.3274 -0.812694 4.77604e-18)
(10.34 -0.728954 -9.76509e-18)
(10.3264 -0.647414 4.34841e-18)
(10.2814 -0.566518 0)
(10.2001 -0.485548 -4.64552e-18)
(10.0806 -0.404563 4.31308e-18)
(9.92436 -0.32407 0)
(9.73664 -0.244683 -4.17059e-18)
(9.52538 -0.166909 3.88746e-18)
(9.30045 -0.0910978 -3.64177e-18)
(9.0727 -0.0175337 3.13062e-18)
(8.85309 0.0534244 0)
(8.65196 0.12121 -8.11005e-19)
(8.47834 0.184978 -3.72712e-19)
(8.33931 0.243632 2.95615e-18)
(8.23953 0.295911 -4.11404e-19)
(8.18083 0.340548 -2.77666e-18)
(8.16204 0.376424 0)
(8.17911 0.402721 -3.01477e-19)
(8.22545 0.419026 0)
(8.29243 0.42541 0)
(8.3702 0.422452 4.35668e-18)
(8.44837 0.411249 -4.2477e-18)
(8.51688 0.393399 -3.46433e-18)
(8.56665 0.370964 -3.92388e-19)
(8.5902 0.3464 3.25691e-18)
(8.58216 0.322447 3.89374e-18)
(8.53966 0.301958 -3.36957e-18)
(8.46268 0.287633 3.86327e-19)
(8.35425 0.28155 3.01905e-18)
(8.2211 0.285997 -6.53039e-18)
(8.07786 0.310126 2.1268e-18)
(3.87412 -2.20662 -5.17304e-17)
(3.39982 -4.14817 3.85798e-17)
(-2.63963 -1.75341 3.65214e-17)
(-10.1235 0.00322633 -3.73291e-17)
(-15.4644 2.92961 -1.10864e-19)
(-20.1976 5.54389 -1.09184e-19)
(-24.8386 7.86394 0)
(-29.6605 9.91776 -2.74221e-17)
(-34.8072 11.6784 2.82995e-17)
(-40.2513 13.2481 0)
(-45.8727 14.7334 2.05827e-17)
(-51.4678 16.2145 -3.95018e-17)
(-56.7153 17.7406 2.15318e-18)
(-61.1129 19.2572 3.1506e-17)
(-63.7934 20.5392 -1.50873e-17)
(-63.516 21.1709 -1.46817e-19)
(-59.0684 20.6715 -2.56097e-19)
(-50.11 18.7787 0)
(-37.8466 15.7271 -1.14591e-17)
(-24.7514 12.2579 1.15399e-17)
(-13.3431 9.24288 -1.88711e-19)
(-5.04372 7.2317 -1.29296e-17)
(0.0581285 6.27676 1.3133e-17)
(2.69002 6.09198 -1.36276e-17)
(3.74315 6.3314 1.38381e-17)
(3.9195 6.74413 2.73546e-19)
(3.68311 7.19774 -1.34446e-17)
(3.31345 7.63635 7.92786e-19)
(2.97582 8.04485 2.41418e-17)
(2.76781 8.42509 -8.4689e-19)
(2.74381 8.78225 -1.07994e-17)
(2.92443 9.11645 -9.233e-18)
(3.30023 9.41705 9.53925e-18)
(3.84317 9.6632 0)
(4.51839 9.82669 -2.88396e-19)
(5.29042 9.88164 -2.66253e-19)
(6.11986 9.81048 0)
(6.9638 9.61136 -9.7447e-18)
(7.7733 9.29217 1.00064e-17)
(8.49774 8.85899 2.04072e-19)
(9.09443 8.32516 0)
(9.53168 7.71211 -1.89478e-19)
(9.7998 7.04638 -6.92797e-18)
(9.92025 6.35233 6.88944e-18)
(9.94031 5.64577 0)
(9.91609 4.93594 5.69188e-18)
(9.89197 4.2316 -6.59007e-18)
(9.88787 3.54491 0)
(9.89931 2.89115 0)
(9.90721 2.28576 3.22259e-19)
(9.88993 1.74104 3.13113e-19)
(9.8318 1.26433 0)
(9.72647 0.85791 -4.61423e-18)
(9.5765 0.520052 4.8653e-18)
(9.39082 0.246465 4.50695e-18)
(9.18185 0.0315332 -4.25418e-19)
(8.96304 -0.130837 -8.39154e-18)
(8.74722 -0.24679 8.02412e-18)
(8.54562 -0.322383 3.43811e-19)
(8.36739 -0.363576 -3.25324e-18)
(8.21941 -0.37627 4.22877e-19)
(8.10614 -0.366299 0)
(8.02964 -0.339381 0)
(7.98952 -0.301012 -3.02749e-18)
(7.98306 -0.256329 3.3425e-18)
(8.00552 -0.209952 0)
(8.05047 -0.165825 -3.42288e-19)
(8.11033 -0.12707 0)
(8.17696 -0.0958712 -2.42076e-18)
(8.24228 -0.0734065 2.36223e-18)
(8.29878 -0.0598228 -5.70367e-19)
(8.34002 -0.054269 -4.73705e-18)
(8.36092 -0.0549877 4.10679e-18)
(8.35799 -0.0594686 -4.95894e-19)
(8.3295 -0.0646672 0)
(8.27556 -0.0672939 0)
(8.19825 -0.0641782 0)
(8.10165 -0.0525434 3.59094e-18)
(7.99203 -0.0302005 3.23635e-19)
(7.88122 0.00618653 -5.87036e-18)
(-8.76943 1.73171 -3.10479e-17)
(-12.16 1.41965 -4.65025e-17)
(-0.673949 -5.37911 4.75927e-17)
(11.5439 -11.0646 -4.8682e-17)
(15.5166 -14.0116 4.98868e-17)
(13.3358 -15.0179 7.10752e-20)
(7.08381 -14.9004 7.44015e-20)
(-1.58291 -14.0666 0)
(-11.488 -12.6647 -3.02881e-19)
(-21.5154 -10.8476 0)
(-30.4098 -8.88083 8.45717e-20)
(-37.0728 -7.10317 4.67664e-17)
(-40.8811 -5.72677 -4.76445e-17)
(-41.7905 -4.77281 -4.35636e-17)
(-40.1812 -4.12816 4.42871e-17)
(-36.6533 -3.69704 -3.96251e-17)
(-31.955 -3.43526 4.09202e-17)
(-26.8383 -3.38222 0)
(-21.9663 -3.58051 0)
(-17.8413 -4.01274 0)
(-14.7159 -4.60578 2.78706e-17)
(-12.5518 -5.24972 -5.30296e-17)
(-11.0829 -5.84473 3.19258e-18)
(-9.92865 -6.33949 4.29099e-17)
(-8.71495 -6.73001 -2.04345e-17)
(-7.19285 -7.0426 0)
(-5.22517 -7.26876 -9.34753e-20)
(-2.81909 -7.36583 0)
(-0.10613 -7.30182 9.89384e-18)
(2.75415 -6.98724 -9.86633e-18)
(5.52776 -6.38529 -1.60812e-19)
(7.95837 -5.52296 0)
(9.83712 -4.45575 -5.77337e-18)
(11.0462 -3.28351 1.08724e-17)
(11.5883 -2.12474 -5.32729e-18)
(11.5806 -1.06454 4.62959e-18)
(11.1975 -0.147276 -9.15874e-18)
(10.599 0.609463 4.5241e-18)
(9.89985 1.21277 0)
(9.1732 1.67665 0)
(8.47301 2.01069 0)
(7.84738 2.2212 -4.02369e-18)
(7.33826 2.31752 1.20795e-17)
(6.97441 2.3129 -7.82016e-18)
(6.76441 2.22357 0)
(6.69604 2.06602 7.23838e-18)
(6.74107 1.85457 -7.01246e-18)
(6.86272 1.60106 -6.47105e-18)
(7.02346 1.31621 6.5237e-19)
(7.19122 1.01112 2.37738e-19)
(7.34326 0.697743 2.24872e-19)
(7.46729 0.38848 5.63231e-18)
(7.56022 0.0951343 0)
(7.62548 -0.172084 0)
(7.66987 -0.405216 4.43173e-18)
(7.70083 -0.598837 -4.68905e-18)
(7.72493 -0.750068 0)
(7.74718 -0.858425 0)
(7.77115 -0.925575 -2.51248e-19)
(7.79923 -0.954994 -4.68867e-19)
(7.8329 -0.951575 0)
(7.87289 -0.921192 0)
(7.91915 -0.870233 4.21864e-19)
(7.97083 -0.805168 4.03915e-19)
(8.02637 -0.732163 -3.40226e-18)
(8.08353 -0.656742 5.86085e-18)
(8.13957 -0.583538 2.7837e-19)
(8.19153 -0.51611 -5.35476e-18)
(8.23644 -0.456845 5.44078e-18)
(8.27157 -0.406945 -4.88791e-18)
(8.29455 -0.366475 9.14372e-19)
(8.30355 -0.334483 2.25047e-18)
(8.29727 -0.309179 -4.21291e-18)
(8.27505 -0.288147 5.63411e-20)
(8.23693 -0.268603 7.7431e-18)
(8.18379 -0.247668 -4.19405e-18)
(8.11745 -0.222623 0)
(8.04084 -0.191184 -8.36678e-19)
(7.95799 -0.15288 0)
(7.87783 -0.105363 3.04594e-18)
(-21.069 6.20478 0)
(-35.5525 9.02139 2.79787e-19)
(-28.1509 3.55758 -2.7493e-19)
(-20.82 -4.3166 -3.04537e-17)
(-23.4005 -9.77449 6.26213e-17)
(-29.918 -13.901 -3.27974e-17)
(-35.2135 -17.5298 -7.39056e-20)
(-36.5949 -20.8794 0)
(-33.8434 -23.7033 0)
(-27.9411 -25.5309 0)
(-19.9602 -25.9454 -8.3123e-20)
(-10.8563 -24.9761 -3.55875e-19)
(-1.45941 -23.0467 0)
(7.66834 -20.5203 2.42629e-19)
(16.1915 -17.545 5.65396e-19)
(23.9433 -14.1876 2.74568e-17)
(30.7766 -10.4843 -2.81173e-17)
(36.5215 -6.49748 -3.67681e-19)
(41.0268 -2.30301 0)
(44.1934 2.01711 3.14345e-19)
(46.0026 6.39263 5.80686e-20)
(46.524 10.7529 1.7829e-17)
(45.9135 15.0155 -2.24139e-18)
(44.4047 19.0764 -1.59245e-17)
(42.2907 22.8283 9.72143e-20)
(39.8365 26.1287 1.66805e-19)
(37.2931 28.8036 -7.30581e-18)
(34.826 30.7169 6.97013e-18)
(32.4672 31.7439 1.85037e-19)