/*--------------------------------*- C++ -*----------------------------------*\
| =========                 |                                                 |
| \\      /  F ield         | OpenFOAM: The Open Source CFD Toolbox           |
|  \\    /   O peration     | Version:  2012                                  |
|   \\  /    A nd           | Website:  www.openfoam.com                      |
|    \\/     M anipulation  |                                                 |
\*---------------------------------------------------------------------------*/
FoamFile
{
    version     2.0;
    format      ascii;
    class       volScalarField;
    location    "0.62";
    object      p;
}
// * * * * * * * * * * * * * * * * * * * * * * * * * * * * * * * * * * * * * //

dimensions      [0 2 -2 0 0 0 0];


internalField   nonuniform List<scalar> 
42400
(
-2771.79
-2693.17
-2564.28
-2378.1
-2155.24
-1951.73
-1800.61
-1707.7
-1660.42
-1641.73
-1636.71
-1634.51
-1628.25
-1614.74
-1594.16
-1569.25
-1544.09
-1523
-1507.91
-1496.85
-1486.17
-1472.39
-1452.11
-1423.74
-1385.97
-1336.85
-1273.84
-1194.85
-1099.49
-989.95
-871.01
-749.199
-631.537
-524.13
-431.061
-353.991
-292.518
-244.956
-209.105
-182.747
-163.869
-150.725
-141.862
-136.124
-132.466
-130.003
-128.187
-126.621
-125.038
-123.283
-121.282
-119.021
-116.521
-113.823
-110.972
-108.008
-104.965
-101.869
-98.7376
-95.5794
-92.3992
-89.1973
-85.9718
-82.7208
-79.4437
-76.1423
-72.8215
-69.4891
-66.1558
-62.834
-59.5373
-56.2796
-53.0742
-49.9327
-46.8652
-43.8768
-40.9647
-38.1259
-35.3907
-32.749
-1268.98
-936.175
-490.493
-17.0487
476.181
911.949
1300.51
1664.03
2003.02
2296.75
2522.35
2669.06
2738.43
2737.67
2675.94
2564.65
2417.25
2247.41
2067.51
1886.97
1712.08
1546.61
1390.79
1243.93
1104.82
972.114
844.774
722.395
605.344
494.628
391.583
297.475
213.201
139.204
75.5468
22.0221
-21.8231
-56.7279
-83.7152
-103.993
-118.799
-129.269
-136.383
-140.916
-143.355
-144.175
-143.711
-142.214
-139.893
-136.931
-133.5
-129.756
-125.842
-121.876
-117.944
-114.092
-110.338
-106.676
-103.085
-99.5408
-96.0159
-92.4847
-88.9263
-85.326
-81.6772
-77.9822
-74.2512
-70.5014
-66.7549
-63.0367
-59.3722
-55.7854
-52.2971
-48.9246
-45.6808
-42.5736
-39.6053
-36.7828
-34.1467
-31.6532
10356.7
10202.7
10003.4
9713.45
9263.87
8689.15
8027.04
7362.13
6784.49
6308.56
5882.56
5455.29
5007.82
4545.07
4083.93
3640.48
3223.84
2838.02
2485.1
2165.36
1877.22
1618.05
1385.81
1178.12
992.771
827.735
681.231
551.771
438.172
338.705
252.076
177.223
113.168
58.9661
13.6747
-23.6584
-54.009
-78.3558
-97.6031
-112.64
-124.236
-133.041
-139.589
-144.283
-147.369
-149.061
-149.447
-148.62
-146.672
-143.718
-139.946
-135.612
-131.008
-126.405
-121.987
-117.831
-113.917
-110.179
-106.54
-102.933
-99.3043
-95.6147
-91.8352
-87.9488
-83.9516
-79.8531
-75.6754
-71.4516
-67.2229
-63.0342
-58.931
-54.954
-51.137
-47.5052
-44.0746
-40.8526
-37.8396
-35.0374
-32.471
-30.1035
5242.2
5110.41
4885.94
4457.1
3762.69
2843.47
1815.46
818.548
-45.9233
-742.238
-1280.48
-1678.76
-1947.65
-2098.44
-2151.03
-2130.85
-2059.33
-1948.53
-1805.38
-1637.06
-1452.82
-1262.47
-1074.38
-894.675
-728.029
-577.217
-444.024
-329.439
-233.843
-156.539
-96.545
-52.5529
-22.968
-5.89749
0.728498
-0.930191
-8.82777
-21.0923
-36.0875
-52.4465
-69.0695
-85.1672
-100.121
-113.269
-124.104
-132.445
-138.283
-141.672
-142.79
-141.952
-139.578
-136.153
-132.148
-127.946
-123.796
-119.807
-115.986
-112.282
-108.639
-105.008
-101.348
-97.6146
-93.7639
-89.7573
-85.5709
-81.2016
-76.6702
-72.02
-67.3167
-62.6341
-58.0498
-53.6355
-49.4496
-45.5336
-41.9107
-38.5876
-35.558
-32.8103
-30.3461
-28.1174
-22876.4
-21815.7
-20445.6
-18992.9
-17460.7
-15922.8
-14363.8
-12813.6
-11319.8
-9892.12
-8494.55
-7092.23
-5706.95
-4424.59
-3346.11
-2524.07
-1940.79
-1531.55
-1226.81
-983.787
-788.495
-637.445
-524.457
-440.341
-376.382
-326.743
-286.767
-253.498
-225.225
-201.179
-181.429
-166.316
-155.917
-150.049
-148.337
-150.128
-154.497
-160.722
-167.813
-174.977
-181.553
-186.935
-190.702
-192.735
-192.976
-191.267
-187.574
-182.004
-174.793
-166.316
-157.061
-147.593
-138.43
-130.023
-122.668
-116.548
-111.642
-107.74
-104.542
-101.738
-99.0596
-96.2897
-93.2614
-89.8608
-86.0283
-81.7577
-77.093
-72.121
-66.9605
-61.7474
-56.6194
-51.7007
-47.0901
-42.8537
-39.0245
-35.6058
-32.5792
-29.9144
-27.5845
-25.5298
10585.7
10463.1
10272.8
9948.09
9478.89
8947.24
8372.43
7723.43
6954.84
6040.49
4998.76
3886.76
2778.07
1733.13
781.474
-58.2375
-742.51
-1208.79
-1439.58
-1503.02
-1495.55
-1462.91
-1403.42
-1314.72
-1207.5
-1093.3
-981.603
-879.685
-791.89
-719.979
-663.394
-619.656
-585.051
-555.613
-528.007
-500.027
-470.764
-440.355
-409.531
-379.207
-350.209
-323.136
-298.329
-275.903
-255.789
-237.8
-221.678
-207.133
-193.858
-181.567
-170.029
-159.131
-148.922
-139.583
-131.374
-124.426
-118.736
-114.101
-110.202
-106.722
-103.387
-99.9782
-96.3226
-92.2948
-87.8194
-82.8769
-77.5067
-71.8035
-65.9074
-59.9867
-54.2166
-48.7565
-43.7312
-39.2192
-35.2511
-31.8161
-28.8738
-26.3681
-24.2402
-22.4162
7041.76
7213.71
7426.1
7536.52
7565.25
7487.46
7358.43
7223.76
7095.11
6957.1
6778.74
6535.54
6225.54
5860.79
5445.18
4963.96
4394.23
3735.99
3035.01
2365.23
1781.61
1294.74
886.749
537.196
231.938
-40.1857
-285.967
-506.737
-699.428
-856.393
-967.555
-1024.51
-1025.63
-980.036
-904.154
-815.007
-725.021
-640.481
-564.008
-496.144
-436.574
-384.682
-339.749
-301.045
-267.861
-239.536
-215.46
-195.08
-177.9
-163.473
-151.402
-141.356
-132.985
-126.037
-120.271
-115.463
-111.405
-107.9
-104.755
-101.787
-98.8171
-95.6762
-92.2105
-88.2967
-83.8564
-78.8694
-73.3809
-67.501
-61.3945
-55.2614
-49.3113
-43.734
-38.6752
-34.221
-30.3965
-27.1753
-24.4974
-22.2861
-20.4611
-18.9381
-11899.6
-11751.1
-11556.5
-11314.1
-11032.6
-10743
-10431
-10061.4
-9597.4
-9017.53
-8317.67
-7506.47
-6598.91
-5612.4
-4567.56
-3495.09
-2444.74
-1482.26
-667.423
-34.3615
414.638
698.693
843.291
871.952
806.423
668.718
481.593
267.965
49.3911
-154.938
-329.069
-461.765
-549.24
-594.465
-604.748
-588.918
-555.242
-511.045
-462.188
-413.002
-366.383
-324.064
-286.83
-254.758
-227.472
-204.398
-184.901
-168.408
-154.436
-142.593
-132.554
-124.049
-116.848
-110.754
-105.596
-101.224
-97.4946
-94.2689
-91.3997
-88.73
-86.094
-83.3245
-80.2658
-76.7901
-72.8151
-68.3173
-63.3394
-57.9897
-52.431
-46.8613
-41.4861
-36.4894
-32.0078
-28.1163
-24.8277
-22.106
-19.8848
-18.0853
-16.6284
-15.4323
4246.94
4205.38
4139.69
4010.76
3792
3468.67
3047.05
2561.18
2056.46
1564.27
1091.26
632.312
185.939
-240.298
-630.455
-963.647
-1220.24
-1388.21
-1465.78
-1461.93
-1396.38
-1291.47
-1166.92
-1040.81
-927.365
-834.538
-764.007
-712.398
-673.301
-639.313
-603.082
-560.412
-510.668
-456.417
-401.619
-349.791
-303.074
-262.371
-228.027
-200.067
-178.1
-161.313
-148.596
-138.805
-130.856
-123.947
-117.582
-111.513
-105.673
-100.095
-94.8457
-89.9881
-85.5668
-81.6043
-78.1023
-75.0423
-72.3854
-70.0707
-68.0143
-66.1105
-64.2368
-62.2639
-60.0693
-57.5528
-54.6511
-51.3485
-47.6814
-43.7362
-39.6395
-35.5414
-31.594
-27.9294
-24.6415
-21.7779
-19.3432
-17.31
-15.6332
-14.2613
-13.1445
-12.2241
8047.43
7966.49
7857.22
7667.17
7377.61
6952.95
6391.61
5745.85
5102.47
4525.79
4030.99
3604.92
3235.7
2921.84
2665.26
2463.68
2308.75
2187.27
2083.76
1984.3
1878.49
1763.19
1639.34
1508.71
1371.63
1226.71
1071.97
906.317
731.598
553.305
379.035
218.28
79.868
-30.2266
-109.999
-161.682
-189.808
-200.081
-198.197
-188.819
-175.243
-159.625
-143.434
-127.621
-112.954
-99.8393
-88.4717
-78.876
-70.9202
-64.3913
-59.0561
-54.6974
-51.1321
-48.2153
-45.8356
-43.9049
-42.3474
-41.0894
-40.0525
-39.1509
-38.294
-37.3916
-36.3627
-35.144
-33.6979
-32.0163
-30.1209
-28.0601
-25.9005
-23.7168
-21.5809
-19.5521
-17.6718
-15.9626
-14.4329
-13.0815
-11.9028
-10.8891
-10.0316
-9.30885
-16012.9
-15440
-14698.4
-13882.5
-12984.5
-12106
-11261.5
-10444.1
-9656.06
-8913.22
-8222.92
-7576.83
-6960.69
-6364.7
-5787.42
-5231.67
-4702.99
-4211.12
-3767.89
-3379.2
-3038.95
-2733.19
-2448.69
-2178.3
-1919.77
-1670.43
-1425.46
-1182.76
-945.492
-721.389
-520.812
-353.71
-226.359
-138.847
-85.2974
-56.2443
-42.3287
-36.0732
-32.4784
-28.9071
-24.5663
-19.6679
-14.8997
-10.7891
-7.61227
-5.48263
-4.29499
-3.83309
-3.87184
-4.22261
-4.74999
-5.37026
-6.03964
-6.7402
-7.46767
-8.22186
-8.99999
-9.79254
-10.5816
-11.3415
-12.0415
-12.6495
-13.1365
-13.4809
-13.6708
-13.705
-13.592
-13.347
-12.9884
-12.5341
-11.9998
-11.3988
-10.7437
-10.049
-9.3331
-8.61787
-7.92708
-7.28404
-6.70837
-6.21107
-1703.84
-2120.39
-2631.26
-3136.7
-3646.6
-4037.32
-4281.59
-4403.93
-4463.23
-4512.75
-4561.82
-4579.31
-4523.14
-4366.28
-4109.22
-3775.51
-3401.78
-3030.74
-2701.19
-2430.53
-2204.39
-1989.23
-1762.16
-1527.16
-1303.87
-1111.01
-956.311
-835.302
-738.704
-656.555
-581.112
-507.752
-434.809
-362.533
-292.247
-226.019
-165.896
-113.307
-68.9373
-33.1262
-5.43469
15.1938
29.8841
39.5525
45.1949
47.7669
48.098
46.8728
44.6293
41.7709
38.5866
35.2737
31.9608
28.726
25.6136
22.646
19.8329
17.1783
14.6841
12.3524
10.1861
8.18808
6.36065
4.70428
3.21745
1.89684
0.738309
-0.261936
-1.10649
-1.797
-2.33554
-2.72683
-2.97999
-3.10922
-3.13327
-3.07431
-2.95706
-2.80796
-2.65286
-2.51499
8856.6
8927.57
9083.45
9262.21
9432.2
9498.24
9414.36
9162.21
8751.05
8225.08
7650.52
7080.54
6537.06
6020.39
5518.41
5020.54
4522.85
4021.02
3496.15
2927.32
2347.88
1846.76
1484.38
1248.69
1091.71
971.212
863.746
761.762
665.994
579.335
504.002
440.726
389.036
347.62
314.476
287.172
263.901
243.316
224.755
207.824
192.031
176.801
162.063
147.923
134.531
122.037
110.546
100.099
90.6751
82.206
74.5975
67.7476
61.5579
55.94
50.8182
46.1288
41.8198
37.8495
34.1842
30.7974
27.6673
24.776
22.1081
19.6498
17.3886
15.3135
13.4146
11.6834
10.1129
8.69708
7.4304
6.30819
5.32621
4.48012
3.76404
3.16865
2.67934
2.27567
1.93305
1.63031
8391.76
8311.4
8148.05
7844.32
7404.58
6894.62
6371.53
5881.11
5455.26
5115.18
4866.84
4682.99
4510.28
4306.72
4062.32
3771.5
3419.18
3014.66
2624.06
2306.38
2044.44
1812.98
1630.45
1500.35
1392.47
1282.77
1165.54
1044.7
926.479
815.822
715.581
627.398
552.623
491.061
440.974
400.586
367.731
340.097
315.313
291.896
268.962
246.173
223.689
201.991
181.655
163.153
146.731
132.387
119.927
109.065
99.507
91.0056
83.3717
76.467
70.1886
64.4561
59.2034
54.3745
49.922
45.8055
41.9908
38.4494
35.1576
32.0952
29.2456
26.5941
24.1282
21.8371
19.7117
17.7448
15.9316
14.2692
12.756
11.3904
10.169
9.08405
8.12263
7.26594
6.49156
5.78715
-8821.66
-8562.68
-8226.43
-7815.82
-7311.66
-6729.85
-6086.36
-5414.72
-4760.4
-4169.43
-3674.36
-3273.79
-2919.08
-2528.76
-2043.09
-1463.17
-835.638
-213.371
364.206
859.004
1219.43
1412.98
1464.64
1429.66
1349.55
1245.75
1129.3
1006.84
883.571
764.009
651.748
549.617
459.605
383.485
322.426
275.783
241.729
217.95
201.881
191.012
183.156
176.615
170.253
163.477
156.116
148.249
140.061
131.757
123.513
115.47
107.733
100.375
93.4385
86.9411
80.8767
75.2248
69.9565
65.0402
60.4453
56.1434
52.1094
48.321
44.7592
41.4076
38.2521
35.2808
32.4844
29.8552
27.3878
25.0785
22.9246
20.9243
19.0752
17.3737
15.813
14.3834
13.0713
11.8599
10.7318
9.6852
-4082.08
-4174.78
-4332.46
-4539.48
-4795.42
-5027.16
-5194.16
-5283.7
-5301.1
-5256.36
-5154.1
-4990.82
-4760.8
-4463.53
-4113.68
-3740.19
-3372.21
-3028.15
-2712.11
-2416.38
-2129.5
-1846.19
-1569.13
-1306.23
-1065.24
-851.183
-665.581
-507.898
-375.967
-266.624
-176.411
-102.07
-40.7359
10.1508
51.8891
85.1882
110.441
127.76
137.476
140.508
138.359
132.843
125.822
118.846
112.858
108.162
104.595
101.775
99.2874
96.7973
94.0945
91.0902
87.7868
84.2395
80.5242
76.7161
72.8798
69.065
65.3075
61.6317
58.0531
54.5816
51.2231
47.9819
44.8609
41.8632
38.9919
36.2502
33.6407
31.1653
28.8246
26.6178
24.5424
22.5943
20.7675
19.0547
17.4467
15.9324
14.5016
13.16
6667.81
6620.09
6560.61
6465.5
6291.21
6054.06
5760.45
5412.89
5011.72
4561.33
4075.18
3570.62
3063.72
2568.77
2095.75
1648.25
1228.58
841.978
495.732
196.985
-49.6587
-244.679
-394.6
-505.553
-581.853
-627.347
-645.065
-637.683
-608.166
-560.083
-497.553
-424.968
-346.87
-268.19
-192.874
-124.156
-64.8576
-16.0656
22.31
51.8736
73.9849
89.8367
100.481
106.916
110.09
110.853
109.918
107.839
105.021
101.75
98.2179
94.5538
90.8377
87.1185
83.4249
79.7733
76.1737
72.6327
69.1554
65.7462
62.4091
59.1476
55.9646
52.8628
49.8445
46.912
44.0679
41.3148
38.6556
36.0934
33.6314
31.2723
29.0177
26.8685
24.8236
22.8808
21.0359
19.2831
17.6169
16.0445
4817.48
4651.45
4420.28
4188.57
3982.51
3869.88
3814.36
3768.3
3711.98
3646.4
3578.78
3514.77
3455.47
3394.52
3314.96
3195.75
3025.27
2808.25
2560.57
2299.91
2039.24
1786.56
1550.02
1335.99
1146.45
980.926
837.676
714.895
610.769
523.359
450.325
389.245
338.007
294.649
257.723
226.145
199.585
177.681
160.324
146.623
135.989
127.782
121.333
116.084
111.633
107.715
104.165
100.875
97.7774
94.8222
91.9709
89.1915
86.4567
83.7432
81.0319
78.3084
75.5628
72.79
69.9894
67.1639
64.3193
61.4638
58.6065
55.7579
52.9283
50.1285
47.3687
44.6588
42.0081
39.4249
36.9164
34.4886
32.1461
29.8921
27.7281
25.6543
23.6697
21.7717
19.9577
18.2331
-1075.35
-995.63
-939.395
-923.335
-890.155
-811.101
-710.149
-648.708
-663.139
-741.606
-850.02
-960.265
-1054.31
-1117.97
-1140.45
-1117.02
-1050.98
-952.194
-831.219
-695.945
-552.186
-406.005
-264.552
-135.896
-27.5785
56.8014
118.813
162.743
193.046
212.979
224.723
230.265
231.18
228.823
224.161
218.163
211.456
204.197
196.371
187.925
178.864
169.293
159.403
149.441
139.684
130.409
121.857
114.203
107.527
101.805
96.9274
92.7331
89.0485
85.7177
82.6179
79.6601
76.784
73.9511
71.139
68.3362
65.5393
62.7492
59.9699
57.2065
54.4648
51.7511
49.0716
46.4325
43.84
41.3002
38.8186
36.4005
34.0505
31.7723
29.569
27.4426
25.3943
23.4238
21.5306
19.7175
-7052.16
-6911.28
-6761.92
-6605.34
-6404.76
-6150.67
-5834.39
-5465.27
-5054.33
-4603.6
-4111.91
-3586.95
-3058.61
-2578.17
-2190.27
-1911.34
-1723.05
-1588.84
-1473.71
-1355.29
-1223.81
-1077.93
-920.929
-759.542
-604.737
-469.092
-360.377
-278.022
-216.144
-168.258
-129.545
-97.0087
-68.6881
-42.915
-18.8081
3.82492
24.6761
43.1225
58.4993
70.3857
78.746
83.8904
86.3384
86.7064
85.6397
83.7716
81.674
79.7987
78.4208
77.6078
77.2381
77.0734
76.8582
76.4005
75.6036
74.4519
72.9764
71.2259
69.2507
67.0966
64.8036
62.4062
59.9336
57.4102
54.8568
52.291
49.7275
47.1794
44.6575
42.1714
39.7294
37.3382
35.0037
32.7307
30.5229
28.3831
26.3133
24.3143
22.3861
20.5289
-963.818
-921.53
-830.693
-711.75
-598.177
-564.499
-642.386
-832.685
-1115.83
-1459.46
-1827.12
-2179.46
-2462.68
-2618.24
-2639.71
-2598.83
-2577.06
-2608.86
-2691.06
-2805.59
-2921.68
-3001.92
-3019.78
-2965.73
-2843.08
-2662.4
-2438.92
-2190.97
-1932.49
-1675.59
-1434.44
-1218.88
-1033.33
-878.151
-751.122
-648.417
-565.818
-499.425
-445.484
-401.373
-365.004
-334.73
-309.175
-287.201
-267.916
-250.657
-234.954
-220.489
-207.05
-194.501
-182.756
-171.76
-161.483
-151.905
-143.01
-134.788
-127.222
-120.292
-113.969
-108.218
-103
-98.2706
-93.9851
-90.0956
-86.5498
-83.2905
-80.2572
-77.3915
-74.6477
-72.0025
-69.4547
-67.0282
-64.7557
-62.6596
-60.7352
-58.9427
-57.2113
-55.4574
-53.6128
-51.6691
5003.67
4942.19
4867.19
4739.74
4517.19
4215.07
3843.21
3404.06
2895.64
2308.55
1632.69
896.368
227.136
-196.801
-310.721
-217.805
-74.9845
16.9696
32.0017
-8.60613
-71.0488
-132.141
-185.761
-237.587
-294.944
-360.431
-426.545
-480.235
-512.773
-525.245
-523.424
-512.999
-498.127
-481.279
-463.607
-445.41
-426.561
-407.239
-387.809
-368.338
-349.247
-330.937
-313.615
-297.303
-281.892
-267.198
-253.032
-239.249
-225.77
-212.589
-199.757
-187.365
-175.52
-164.322
-153.854
-144.172
-135.313
-127.276
-120.038
-113.548
-107.738
-102.532
-97.8531
-93.6392
-89.8134
-86.3255
-83.1216
-80.1502
-77.3646
-74.7269
-72.2128
-69.8054
-67.5027
-65.3062
-63.213
-61.2102
-59.2754
-57.381
-55.5041
-53.6434
-3681.05
-2742.44
-1620.54
-724.746
45.0688
762.304
1462.81
2090.33
2592.82
2928.2
3088.48
3140.49
3214.48
3397.61
3648.29
3852.96
3934.79
3884.16
3727.1
3494.54
3210.65
2894.39
2563.56
2234.8
1920.25
1625.39
1351.08
1098.06
868.457
664.265
486.126
333.222
203.758
95.5401
6.47517
-65.4251
-122.311
-165.959
-198.389
-221.744
-237.692
-247.587
-252.561
-253.537
-251.246
-246.283
-239.149
-230.301
-220.167
-209.168
-197.714
-186.188
-174.92
-164.163
-154.084
-144.778
-136.29
-128.626
-121.76
-115.634
-110.162
-105.247
-100.793
-96.7179
-92.9542
-89.4508
-86.1692
-83.0799
-80.1605
-77.394
-74.768
-72.2749
-69.9072
-67.6581
-65.5181
-63.4741
-61.5096
-59.6081
-57.7576
-55.9522
6997.18
6735.74
6456.32
6134.72
5643.03
5029.75
4311.77
3510.71
2656.38
1783.27
923.233
99.6546
-665.256
-1338.31
-1882.45
-2271.15
-2492.12
-2546.04
-2446.81
-2222.09
-1910.2
-1553.68
-1192.83
-861.299
-580.933
-361.804
-202.901
-96.3065
-31.8432
0.204804
8.21651
-0.883381
-21.3474
-48.4056
-78.2672
-108.062
-135.735
-160.296
-181.295
-198.574
-212.109
-221.957
-228.245
-231.155
-230.921
-227.824
-222.202
-214.474
-205.149
-194.817
-184.114
-173.622
-163.754
-154.706
-146.5
-139.076
-132.367
-126.316
-120.869
-115.954
-111.483
-107.358
-103.493
-99.8205
-96.2974
-92.8971
-89.6048
-86.4134
-83.3218
-80.3351
-77.4637
-74.7202
-72.1174
-69.6642
-67.3604
-65.1994
-63.1684
-61.2506
-59.4297
-57.6986
-3682.53
-3723.16
-3792.37
-3867.38
-3922.58
-3889.29
-3726.9
-3434.46
-3049.19
-2627.69
-2224.92
-1878.23
-1598.62
-1376.75
-1199.18
-1059.28
-955.82
-887.658
-850.056
-833.914
-827.694
-820.428
-804.637
-777.681
-741.574
-700.16
-656.667
-613.166
-570.948
-530.883
-493.538
-459.151
-427.637
-398.849
-372.923
-350.21
-330.902
-314.781
-301.275
-289.704
-279.482
-270.134
-261.268
-252.537
-243.651
-234.349
-224.394
-213.627
-202.047
-189.905
-177.718
-166.158
-155.802
-146.917
-139.469
-133.262
-128.035
-123.534
-119.549
-115.907
-112.469
-109.127
-105.812
-102.494
-99.1678
-95.847
-92.5491
-89.2913
-86.089
-82.9578
-79.9152
-76.9807
-74.1743
-71.5137
-69.0148
-66.6828
-64.5153
-62.5041
-60.634
-58.897
-2993.82
-2624.24
-2109.51
-1532.44
-879.581
-247.753
318.678
775.585
1099.28
1299.51
1406.66
1449.5
1445.89
1406.1
1338.49
1250.37
1146.62
1030.15
902.935
767.182
626.05
483.493
343.172
207.414
77.7503
-45.4135
-162.693
-275.417
-384.606
-488.897
-582.786
-657.398
-704.079
-718.802
-704.92
-672.249
-632.311
-592.93
-556.374
-521.427
-486.466
-450.745
-414.341
-377.79
-341.939
-307.381
-274.855
-245.046
-218.159
-194.665
-175.045
-159.538
-148.042
-139.703
-133.533
-128.919
-125.352
-122.372
-119.632
-116.904
-114.06
-111.044
-107.86
-104.542
-101.146
-97.7237
-94.3197
-90.966
-87.6847
-84.4913
-81.3988
-78.4203
-75.5694
-72.8596
-70.3023
-67.9062
-65.6757
-63.6085
-61.6943
-59.9206
6791.5
6630.89
6418.19
6122.45
5712.8
5228.24
4683.68
4098.49
3499.18
2910.72
2353.88
1838.08
1361.61
918.417
503.843
118.19
-233.756
-543.894
-802.097
-999.663
-1132.55
-1203
-1217.9
-1186.15
-1117.76
-1023.92
-917.115
-811.838
-723.805
-664.386
-634.035
-622.557
-616.317
-605.811
-588.734
-568.015
-547.125
-527.745
-509.736
-492.147
-473.923
-454.171
-432.326
-408.112
-381.356
-352.594
-322.48
-291.658
-261.439
-233.205
-208.29
-187.643
-171.17
-158.283
-148.42
-140.836
-134.744
-129.565
-124.93
-120.619
-116.509
-112.533
-108.66
-104.884
-101.207
-97.637
-94.1813
-90.8438
-87.6257
-84.5275
-81.5501
-78.696
-75.9697
-73.3769
-70.9235
-68.6142
-66.4499
-64.4275
-62.5441
-60.7876
-8747.54
-8249.06
-7620.02
-6897.22
-5990.97
-4948.65
-3838.6
-2787
-1904.22
-1220.41
-696.608
-285.99
29.1016
244.903
356.072
367.719
298.272
173.911
20.4941
-140.971
-298.378
-446.48
-581.557
-696.487
-782.186
-836.112
-864.526
-872.281
-857.066
-816.64
-754.371
-677.244
-593.853
-513.781
-445.027
-390.99
-350.866
-321.565
-299.769
-282.945
-269.422
-258.087
-248.146
-238.987
-230.125
-221.234
-212.067
-202.572
-192.854
-183.155
-173.777
-164.964
-156.863
-149.521
-142.916
-136.973
-131.59
-126.659
-122.087
-117.795
-113.722
-109.827
-106.083
-102.475
-98.9939
-95.637
-92.4018
-89.2863
-86.2887
-83.4076
-80.6426
-77.9948
-75.4665
-73.0606
-70.7805
-68.6277
-66.6008
-64.6971
-62.9168
-61.2037
1191.46
1096.58
905.53
596.638
206.263
-129.103
-333.351
-410.865
-418.026
-417.204
-446.907
-509.798
-578.4
-614.67
-589.95
-501.53
-372.132
-222.96
-62.0143
90.3522
189.545
203.908
144.963
46.8824
-62.1779
-156.844
-208.872
-205.298
-161.842
-108.777
-65.8754
-41.2481
-33.2354
-37.6432
-50.4295
-68.1056
-87.7756
-107.228
-125.001
-140.244
-152.544
-161.827
-168.238
-172.054
-173.611
-173.266
-171.375
-168.271
-164.267
-159.645
-154.65
-149.487
-144.315
-139.247
-134.354
-129.674
-125.216
-120.973
-116.93
-113.066
-109.364
-105.808
-102.384
-99.082
-95.8959
-92.82
-89.8505
-86.9851
-84.2221
-81.5613
-79.0031
-76.5493
-74.2022
-71.9645
-69.8383
-67.8237
-65.9181
-64.1195
-62.4276
-60.7602
7375.9
6966.14
6397.49
5704.22
4872.54
4122.03
3551.36
3171.53
2932.57
2757.8
2580.74
2373.73
2154.71
1960.61
1810.2
1698.79
1614.08
1547.45
1496.58
1459.25
1428.43
1392.01
1339.61
1263.86
1160.58
1029.42
875.83
711.31
549.793
402.951
277.804
175.902
95.834
34.5778
-11.5326
-45.9653
-71.6294
-90.8277
-105.293
-116.266
-124.604
-130.875
-135.462
-138.628
-140.57
-141.45
-141.413
-140.594
-139.125
-137.131
-134.727
-132.017
-129.09
-126.018
-122.861
-119.663
-116.456
-113.264
-110.103
-106.984
-103.916
-100.903
-97.9497
-95.0586
-92.2327
-89.4743
-86.7859
-84.1698
-81.6288
-79.1655
-76.7833
-74.4856
-72.2758
-70.1573
-68.1323
-66.2011
-64.3621
-62.6136
-60.9521
-59.3116
-1593.92
-1271.47
-858.52
-485.212
-156.987
57.7927
151.727
155.68
156.687
193.802
214.68
200.293
206.128
256.746
319.783
370.784
409.589
438.405
454.698
455.296
439.571
409.566
368.296
320.334
270.264
221.921
178.109
139.878
106.61
76.8957
49.4935
23.6705
-0.781516
-23.6873
-44.6952
-63.4424
-79.6601
-93.2328
-104.202
-112.74
-119.104
-123.597
-126.532
-128.205
-128.88
-128.781
-128.091
-126.955
-125.485
-123.764
-121.853
-119.796
-117.627
-115.368
-113.037
-110.65
-108.217
-105.75
-103.259
-100.751
-98.2354
-95.7197
-93.211
-90.716
-88.2409
-85.7916
-83.3739
-80.9934
-78.6556
-76.3658
-74.1295
-71.9518
-69.8376
-67.7913
-65.8163
-63.9146
-62.0861
-60.326
-58.6312
-56.9955
-4137.36
-4049.14
-3915.56
-3714.91
-3425.98
-3090.64
-2745.11
-2417.53
-2110.81
-1810.53
-1510.97
-1224.33
-969.073
-761.504
-609.914
-512.41
-461.968
-451.519
-473.809
-519.948
-580.235
-643.386
-699.909
-741.826
-763.399
-761.856
-738.19
-697.364
-645.196
-586.174
-524.026
-462.351
-404.372
-352.344
-307.291
-269.158
-237.263
-210.757
-188.872
-170.976
-156.527
-145.03
-136.011
-129.019
-123.642
-119.513
-116.323
-113.816
-111.788
-110.078
-108.562
-107.148
-105.766
-104.366
-102.913
-101.387
-99.7746
-98.0736
-96.2854
-94.416
-92.4739
-90.469
-88.4116
-86.3125
-84.182
-82.0299
-79.866
-77.6995
-75.539
-73.393
-71.2693
-69.1754
-67.1183
-65.1042
-63.139
-61.2274
-59.3714
-57.5673
-55.8214
-54.1877
-1500.22
-1699.62
-1971.83
-2283.38
-2601.59
-2902.83
-3189.63
-3465.54
-3727.35
-3962.58
-4153.71
-4286.77
-4356.54
-4366.13
-4322.91
-4233.54
-4101.43
-3927.69
-3713.35
-3460.88
-3174.07
-2860.02
-2527.14
-2187.35
-1856.03
-1551.96
-1286.4
-1057.35
-856.502
-678.627
-523.32
-392.229
-286.823
-207.122
-151.004
-114.482
-92.7466
-81.2789
-76.4833
-75.7616
-77.3313
-80.0066
-83.0274
-85.9384
-88.4985
-90.6107
-92.266
-93.5015
-94.3712
-94.9281
-95.2159
-95.2665
-95.1018
-94.7363
-94.1807
-93.4438
-92.5348
-91.4638
-90.242
-88.8817
-87.396
-85.7981
-84.1012
-82.3183
-80.462
-78.5447
-76.5782
-74.5738
-72.5426
-70.4951
-68.4413
-66.3908
-64.3523
-62.3344
-60.3451
-58.3925
-56.4808
-54.6103
-52.8
-51.1495
-7114.72
-6499.38
-5647.99
-4678.85
-3597.3
-2567.64
-1639.99
-835.256
-158.614
392.981
826.581
1153.17
1387.23
1545.39
1644.04
1697.65
1717.37
1711.11
1683.42
1636.54
1570.45
1483.47
1370.81
1226.04
1043.92
832.267
615.987
424.257
271.952
157.391
73.4202
14.0657
-24.4884
-46.6206
-58.0677
-63.9986
-67.786
-70.978
-73.9687
-76.7312
-79.1738
-81.2441
-82.9333
-84.2682
-85.2992
-86.0903
-86.7062
-87.2009
-87.6098
-87.9478
-88.2118
-88.3867
-88.4517
-88.3857
-88.171
-87.7951
-87.2509
-86.5367
-85.6556
-84.6142
-83.4221
-82.09
-80.6301
-79.0546
-77.3763
-75.608
-73.7623
-71.8518
-69.8888
-67.8853
-65.8529
-63.8027
-61.7451
-59.6901
-57.6478
-55.6281
-53.6368
-51.6756
-49.7698
-48.0597
12462.5
12182.9
11763
11087.6
10053
8825.16
7605.54
6539.38
5662.01
4940.9
4335.71
3819.57
3377.4
3001.17
2682.83
2412.51
2177.98
1966.28
1766.82
1573.71
1385.48
1204.26
1035.32
885.706
760.416
661.149
585.184
524.178
467.079
406.096
340.25
274.635
214.015
160.623
115.093
76.7998
44.7216
17.6432
-4.78955
-23.4224
-38.7887
-51.2064
-60.8708
-68.1605
-73.5018
-77.3215
-80.0129
-81.903
-83.236
-84.1756
-84.8214
-85.2303
-85.4356
-85.4579
-85.3101
-84.9988
-84.5257
-83.8902
-83.0921
-82.1339
-81.0209
-79.761
-78.3641
-76.8411
-75.2038
-73.4643
-71.635
-69.7282
-67.756
-65.7308
-63.6643
-61.5684
-59.4539
-57.332
-55.2134
-53.1093
-51.0265
-48.9674
-46.9605
-45.1741
-2803.17
-2769.24
-2755.46
-2743.67
-2714.5
-2601.74
-2393.56
-2136.96
-1892.99
-1692.01
-1537.58
-1419.93
-1328.38
-1252.62
-1184.42
-1119.76
-1058.26
-1001.02
-950.055
-907.819
-872.414
-833.894
-778.945
-700.282
-600.771
-490.172
-379.459
-278.774
-196.977
-139.773
-107.446
-94.668
-92.866
-94.5645
-96.0094
-96.5739
-96.8001
-97.0872
-97.4951
-97.8304
-97.1375
-95.7683
-94.0869
-92.2418
-90.4361
-88.8746
-87.6942
-86.9327
-86.5324
-86.3733
-86.3194
-86.2565
-86.1105
-85.8452
-85.4484
-84.9177
-84.2508
-83.4441
-82.4943
-81.4008
-80.1666
-78.7978
-77.3023
-75.6895
-73.9688
-72.1502
-70.2439
-68.2602
-66.2099
-64.104
-61.9539
-59.7709
-57.5666
-55.3526
-53.1405
-50.9426
-48.7672
-46.6188
-44.5242
-42.6594
-6463.24
-6261.92
-6004.2
-5695.79
-5334.67
-4922.96
-4447.23
-3921.3
-3378.26
-2842.89
-2323.85
-1826.1
-1355.87
-924.946
-551.45
-258.627
-69.1307
3.15578
-40.3275
-176.883
-354.258
-505.603
-593.853
-628.408
-635.599
-627.465
-604.555
-566.408
-513.158
-446.689
-371.833
-295.766
-225.659
-166.513
-120.54
-87.7128
-66.534
-54.7111
-49.7587
-49.3024
-52.147
-56.841
-61.703
-66.2894
-70.4441
-74.1207
-77.3369
-80.115
-82.4554
-84.3356
-85.7264
-86.619
-87.0413
-87.0539
-86.7316
-86.1434
-85.3411
-84.3586
-83.2168
-81.9292
-80.506
-78.9562
-77.2886
-75.5116
-73.6337
-71.6636
-69.6103
-67.4834
-65.2931
-63.05
-60.7657
-58.452
-56.1213
-53.786
-51.459
-49.1539
-46.8818
-44.6489
-42.4734
-40.5236
7270.29
7109.36
6926.87
6709.99
6399.25
6054.88
5690.11
5317.69
4944.54
4558.82
4141.74
3676.25
3152.16
2571.51
1947.13
1299.09
654.747
45.5005
-502.018
-960.87
-1282.63
-1425.64
-1414.33
-1318.36
-1188.38
-1046.45
-905.581
-774.394
-657.271
-555.059
-466.358
-389.036
-321.691
-264.281
-217.62
-182.227
-157.465
-141.54
-132.066
-126.717
-123.581
-120.953
-118.754
-116.649
-114.485
-112.275
-110.073
-107.918
-105.821
-103.775
-101.767
-99.7928
-97.8542
-95.9525
-94.0847
-92.2413
-90.407
-88.5638
-86.6948
-84.7855
-82.8255
-80.8078
-78.7286
-76.5866
-74.3825
-72.1185
-69.7985
-67.4276
-65.0125
-62.5611
-60.083
-57.5888
-55.0904
-52.6002
-50.1319
-47.6999
-45.3177
-42.9893
-40.719
-38.6786
-4961.24
-4470.61
-3795.1
-3048.79
-2252.82
-1527.58
-892.303
-341.228
132.964
529.144
840.886
1063.71
1199.49
1256.28
1244.21
1171.77
1043.49
863.391
647.129
433.073
265.897
161.303
101.058
62.9231
38.0825
24.2802
17.8506
13.2378
5.24157
-9.04679
-29.7077
-55.2219
-83.4749
-111.875
-137.978
-159.793
-175.958
-185.834
-189.558
-187.838
-182.031
-173.573
-163.922
-154.364
-145.553
-137.886
-131.387
-125.9
-121.209
-117.104
-113.414
-110.022
-106.853
-103.862
-101.017
-98.2924
-95.6623
-93.103
-90.5926
-88.1111
-85.6413
-83.1687
-80.6815
-78.1707
-75.63
-73.0561
-70.4479
-67.8073
-65.1385
-62.4479
-59.7444
-57.0385
-54.3425
-51.6698
-49.0351
-46.4544
-43.9403
-41.4948
-39.1239
-36.9127
1004.68
726.879
381.806
8.18692
-408.497
-813.719
-1195.99
-1549.78
-1869.09
-2147.87
-2379.98
-2561.02
-2689.76
-2768.35
-2802.3
-2800.24
-2772.67
-2728.49
-2672.5
-2603.52
-2514.71
-2396.46
-2239.98
-2041.3
-1803.88
-1539.57
-1267.23
-1008.66
-782.529
-599.635
-461.805
-363.839
-297.093
-252.805
-223.41
-203.187
-188.318
-176.525
-166.614
-158.159
-150.863
-144.691
-139.541
-135.183
-131.514
-128.321
-125.425
-122.706
-120.089
-117.528
-114.999
-112.481
-109.958
-107.417
-104.85
-102.253
-99.6242
-96.9637
-94.2714
-91.5471
-88.7904
-86.0004
-83.1767
-80.3192
-77.429
-74.5083
-71.5609
-68.5921
-65.609
-62.6203
-59.6361
-56.6676
-53.7272
-50.828
-47.9841
-45.2098
-42.5136
-39.899
-37.3999
-35.281
-48.0375
-43.0659
-39.1719
-35.9038
-32.7172
-29.656
-26.7077
-23.9222
-21.3429
-18.9815
-16.8317
-14.8635
-13.0637
-11.4455
-9.99757
-8.72519
-7.62776
-6.70376
-5.95115
-5.36462
-4.9333
-4.64127
-4.46943
-4.39843
-4.41174
-4.49761
-4.64932
-4.8634
-5.13689
-5.4646
-5.8373
-6.24086
-6.65753
-7.06736
-7.42861
-7.72588
-7.92763
-8.00611
-7.9388
-7.7104
-7.31533
-6.75946
-6.06107
-5.25045
-4.36762
-3.45826
-2.56807
-1.7369
-0.994204
-0.356934
0.169688
0.589491
0.911969
1.14913
1.31296
1.4136
1.45842
1.452
1.39686
1.29475
1.14801
0.960662
0.739069
0.492244
0.231794
-0.0285316
-0.27388
-0.489835
-0.664072
-0.787546
-0.854878
-0.863973
-0.815182
-0.710027
-0.551641
-0.345179
-0.0958454
0.190821
0.508855
0.851621
1.21196
1.58252
1.95618
2.32643
2.68778
3.03593
3.36778
3.68136
3.97564
4.25035
4.50574
4.74242
4.96116
5.16284
5.34837
5.51864
5.67455
5.81698
5.94674
6.06462
6.17138
6.26774
6.35436
6.43189
6.50092
6.56203
6.61571
6.66239
6.70243
6.73611
6.76369
6.78536
6.8013
6.81163
6.81643
6.81582
6.80987
6.79865
6.78218
6.76044
6.73335
6.70086
6.66284
6.61912
6.5694
6.51327
6.45028
6.3799
6.30159
6.2148
6.11895
6.01353
5.89814
5.77253
5.63666
5.49069
5.33505
5.17052
4.99824
4.81982
4.63728
4.45307
4.27003
4.09137
3.92064
3.76158
3.61806
3.49388
3.39265
3.31759
3.27142
3.25617
3.27295
3.32205
3.4024
3.51222
3.64853
3.80761
3.9851
4.17614
4.37564
4.57854
4.7802
4.9766
5.16452
5.34133
5.50481
5.65281
5.78322
5.8941
5.98382
6.05123
6.09562
6.11664
6.11405
6.0877
6.0374
5.96301
5.8645
5.74201
5.59593
5.42682
5.23543
5.02268
4.78969
4.5379
4.26918
3.98591
3.69096
3.3875
3.07867
2.76729
2.45543
2.14429
1.8338
1.52289
1.20872
0.886629
0.552501
0.184402