/*--------------------------------*- C++ -*----------------------------------*\
| =========                 |                                                 |
| \\      /  F ield         | OpenFOAM: The Open Source CFD Toolbox           |
|  \\    /   O peration     | Version:  2012                                  |
|   \\  /    A nd           | Website:  www.openfoam.com                      |
|    \\/     M anipulation  |                                                 |
\*---------------------------------------------------------------------------*/
FoamFile
{
    version     2.0;
    format      ascii;
    class       surfaceScalarField;
    location    "0.62";
    object      phi;
}
// * * * * * * * * * * * * * * * * * * * * * * * * * * * * * * * * * * * * * //

dimensions      [0 3 -1 0 0 0 0];
oriented        oriented;


internalField   nonuniform List<scalar> 
84340
(
0.000102415
2.02269e-05
-0.000122642
0.000254442
0.000108063
-0.00026009
0.000395594
0.000246626
-0.000387778
0.000578941
0.000308895
-0.000492242
0.000856468
0.00025932
-0.000536848
0.00121793
0.000174629
-0.000536086
0.00161911
0.000106259
-0.000507444
0.00202109
6.22157e-05
-0.000464196
0.00240279
3.22085e-05
-0.00041391
0.00275153
1.07862e-05
-0.000359527
0.00305937
-2.85142e-06
-0.000304986
0.0033238
-1.05056e-05
-0.000253919
0.00354715
-1.38864e-05
-0.000209465
0.00373293
-1.18912e-05
-0.000173892
0.00388201
-1.10537e-06
-0.000147979
0.00399213
2.09853e-05
-0.000131102
0.00406767
5.35946e-05
-0.000129137
0.00410968
9.30493e-05
-0.000135058
0.00411211
0.000141684
-0.000144115
0.00407297
0.000191787
-0.000152644
0.00399193
0.000240862
-0.000159822
0.00385798
0.00029293
-0.000158976
0.00367104
0.000333161
-0.000146221
0.00342786
0.000364076
-0.000120899
0.00312802
0.000385533
-8.56937e-05
0.0027797
0.000396599
-4.82773e-05
0.00240319
0.00039635
-1.98353e-05
0.00202809
0.000385017
-9.91521e-06
0.0016842
0.000364862
-2.09764e-05
0.00139159
0.000339903
-4.72876e-05
0.00115571
0.000314621
-7.87428e-05
0.000969349
0.000292223
-0.000105864
0.000818525
0.000273415
-0.000122591
0.000688278
0.000256545
-0.000126298
0.000566466
0.000239268
-0.000117456
0.00044512
0.000220609
-9.9263e-05
0.00032042
0.000201501
-7.68007e-05
0.000192203
0.000183325
-5.51084e-05
6.31444e-05
0.00016595
-3.68916e-05
-6.2547e-05
0.000147216
-2.15248e-05
-0.000180447
0.000124146
-6.2463e-06
-0.0002868
9.45854e-05
1.17674e-05
-0.000379201
5.78782e-05
3.45229e-05
-0.000459343
1.36934e-05
6.64486e-05
-0.000526283
-3.32529e-05
0.000100193
-0.000581202
-8.24699e-05
0.000137389
-0.000622968
-0.000134863
0.000176629
-0.000651637
-0.00018815
0.000216819
-0.00066786
-0.000241025
0.000257247
-0.000672978
-0.000292317
0.000297435
-0.000668988
-0.000341008
0.000337018
-0.000658289
-0.000386353
0.000375654
-0.000643313
-0.000428011
0.000413035
-0.000626162
-0.000466092
0.00044894
-0.00060836
-0.000501084
0.000483282
-0.000590769
-0.000533691
0.0005161
-0.000573655
-0.000564648
0.000547534
-0.000556836
-0.000594604
0.000577784
-0.000539829
-0.000624087
0.00060708
-0.000521972
-0.000653525
0.000635667
-0.00050251
-0.000683249
0.000663788
-0.000480677
-0.000713496
0.000691663
-0.000455773
-0.000744378
0.000719474
-0.00042725
-0.000775872
0.000747349
-0.000394777
-0.000807829
0.000775356
-0.000358285
-0.000839992
0.0008035
-0.000317974
-0.000872039
0.000831728
-0.000274285
-0.000903618
0.000859928
-0.000227841
-0.000934385
0.000887941
-0.000179362
-0.000964036
0.000915557
-0.000129569
-0.000992313
0.000942521
-7.90976e-05
-0.00101901
0.00096854
-2.84264e-05
-0.00104396
0.000993286
2.21468e-05
-0.00106699
0.00101642
7.2467e-05
-0.00108793
0.00103761
0.000122401
-0.00110655
0.00105662
0.000171655
-0.0011226
0.00107335
0.000219654
-0.00113598
0.00108798
0.000265453
-0.00114733
0.00110153
-0.00115834
0.00111729
0.000306508
0.000273083
-0.000252856
0.000724339
-0.000343193
0.00114807
-0.000177109
0.00140196
5.50131e-05
0.0013918
0.000269477
0.00117624
0.000390184
0.000955368
0.000327135
0.000925266
9.23179e-05
0.00113284
-0.000175363
0.00148244
-0.000338818
0.00185192
-0.000372326
0.00216812
-0.000326705
0.00241063
-0.000256403
0.00258304
-0.000184298
0.00269353
-0.000111596
0.0027489
-3.43827e-05
0.00275548
4.70114e-05
0.00272066
0.000127869
0.00265825
0.000204092
0.00258275
0.000267291
0.00250458
0.000319029
0.00244041
0.0003571
0.00238568
0.000387889
0.0023366
0.000413155
0.00228881
0.000433326
0.00223615
0.000449264
0.00217078
0.00046172
0.0020846
0.000471193
0.00197137
0.000478095
0.00182841
0.000482864
0.00165754
0.000485488
0.00146445
0.000485308
0.00125678
0.000481084
0.00104197
0.000471362
0.000826216
0.00045502
0.000615182
0.000431642
0.000415182
0.000401502
0.00023327
0.000365237
7.56929e-05
0.000323528
-5.41271e-05
0.000277036
-0.000156414
0.000226433
-0.000234319
0.00017249
-0.000292564
0.000116123
-0.000337393
5.85227e-05
-0.00036788
-2.76626e-06
-0.000386588
-6.37617e-05
-0.000397083
-0.000124368
-0.000401003
-0.00018423
-0.000399602
-0.000242426
-0.000394164
-0.000297755
-0.00038628
-0.000348892
-0.000377863
-0.00039477
-0.000370921
-0.000434953
-0.000367111
-0.000469902
-0.000367277
-0.000500917
-0.000371236
-0.000529733
-0.000377891
-0.000557994
-0.000385591
-0.000586903
-0.000392489
-0.00061719
-0.00039675
-0.000649263
-0.000396652
-0.000683347
-0.000390635
-0.000719513
-0.000377381
-0.000757632
-0.000355914
-0.00079734
-0.000325702
-0.000838041
-0.000286723
-0.000878971
-0.000239488
-0.000919274
-0.000185007
-0.000958099
-0.000124706
-0.000994686
-6.02981e-05
-0.00102844
6.38663e-06
-0.001059
7.35895e-05
-0.00108621
0.00013981
-0.00111018
0.000203967
-0.00113115
0.000265506
-0.00114947
0.000324453
-0.0011655
0.000381385
-0.00117953
0.000437301
-0.0011919
0.000493258
-0.00120329
-0.00121547
0.000550389
-0.000218011
-3.48448e-05
-0.000319969
-0.000241235
2.49459e-05
-0.000522023
0.000637185
-0.000557226
0.00123181
-0.000325147
0.00171287
-9.08797e-05
0.00211661
-7.65981e-05
0.00248487
-0.000275951
0.00280216
-0.000492644
0.00302202
-0.000558683
0.00311076
-0.000461068
0.00306829
-0.000284229
0.00291754
-0.000105659
0.00269139
4.18558e-05
0.00243125
0.000148546
0.00216305
0.000233813
0.00190666
0.000303405
0.00167651
0.000358011
0.00148315
0.000397459
0.00132555
0.000424893
0.00119861
0.000445969
0.00109063
0.000465074
0.000998631
0.000479889
0.00091749
0.000494296
0.000843163
0.000507653
0.000773602
0.000518826
0.000708485
0.000526837
0.00064865
0.000531028
0.000602898
0.000523847
0.000569523
0.000516239
0.000548316
0.000506695
0.000539096
0.000494528
0.00054078
0.0004794
0.000551061
0.00046108
0.000566683
0.000439399
0.000584148
0.000414177
0.000600312
0.000385338
0.000612681
0.000352867
0.000619366
0.000316843
0.000619031
0.000277371
0.000610871
0.000234594
0.000594419
0.000188941
0.000569292
0.000141251
0.000538124
8.96901e-05
0.000499589
3.57686e-05
0.000455824
-1.99963e-05
0.000410024
-7.85691e-05
0.000364387
-0.000138594
0.000320482
-0.000198521
0.000278894
-0.000256167
0.000239003
-0.000309002
0.000198964
-0.000354731
0.000156238
-0.000392227
0.000108623
-0.000422287
5.53909e-05
-0.000447684
-2.13981e-06
-0.000472202
-6.09894e-05
-0.000499144
-0.000117571
-0.000530322
-0.000168625
-0.000566135
-0.000211568
-0.00060632
-0.000244373
-0.000650542
-0.000265372
-0.000698514
-0.000273191
-0.000749813
-0.000266827
-0.000803704
-0.000245777
-0.00085909
-0.000210159
-0.000914588
-0.00016078
-0.000968654
-9.91373e-05
-0.00101974
-2.73714e-05
-0.00106645
5.18687e-05
-0.00110768
0.000135615
-0.00114274
0.000220822
-0.00117142
0.000304629
-0.00119399
0.00038462
-0.00121114
0.000459033
-0.00122388
0.000526904
-0.00123337
0.000588114
-0.00124074
0.000643285
-0.00124707
0.000693412
-0.00125342
-0.00126122
0.00073916
-0.000666572
0.000631728
-0.00172206
0.00081425
-0.00255867
0.000314592
-0.00291515
-0.000200745
-0.0027783
-0.000462005
-0.00234478
-0.000524399
-0.00191376
-0.000507616
-0.00172832
-0.000461392
-0.001843
-0.000377964
-0.00214493
-0.000256752
-0.00248392
-0.000122077
-0.00276071
-7.43808e-06
-0.00293248
6.611e-05
-0.00299523
0.000104608
-0.00296258
0.0001159
-0.00285092
0.000122145
-0.00267022
0.000122709
-0.0024191
0.000106894
-0.0020909
6.9258e-05
-0.00168793
2.1916e-05
-0.00122813
-1.38235e-05
-0.000739945
-2.31136e-05
-0.000254794
-5.26218e-06
0.000208058
3.14435e-05
0.000628198
8.75132e-05
0.000994692
0.000152332
0.0013015
0.000220033
0.00154708
0.00028544
0.00172697
0.000343956
0.0018477
0.000395509
0.00191877
0.00043563
0.00195197
0.000461325
0.00195813
0.000473243
0.00194675
0.000472455
0.00192547
0.000460684
0.00189987
0.000439774
0.00187377
0.000411436
0.00184937
0.000377271
0.00182774
0.000338469
0.00180928
0.000295833
0.0017945
0.000249377
0.00178184
0.000201597
0.00176762
0.00015547
0.00174857
0.00010874
0.00172554
5.8803e-05
0.0016975
8.03909e-06
0.00166166
-4.27253e-05
0.00161535
-9.22812e-05
0.00155547
-0.000138641
0.00147838
-0.000179083
0.00138024
-0.000210864
0.00125811
-0.000232596
0.00111197
-0.000246087
0.000946682
-0.000257001
0.000771878
-0.00027288
0.000599412
-0.000299737
0.000439609
-0.000339342
0.00029887
-0.000389583
0.000179687
-0.000446952
8.21759e-05
-0.000508809
5.71481e-06
-0.000574082
-5.01301e-05
-0.00064267
-8.54188e-05
-0.000714525
-0.000100057
-0.000789065
-9.41227e-05
-0.000865025
-6.81457e-05
-0.000940566
-2.33e-05
-0.0010135
3.8487e-05
-0.00108153
0.000114542
-0.00114251
0.000201523
-0.00119466
0.000295608
-0.00123683
0.000392766
-0.00126858
0.000489065
-0.00129029
0.000580998
-0.00130307
0.000665751
-0.00130863
0.000741415
-0.00130903
0.000807088
-0.00130642
0.000862851
-0.00130283
0.000909589
-0.00130015
-0.00130034
0.00094871
0.00127094
-0.000639208
0.00307427
-0.000989085
0.00449021
-0.00110135
0.00546417
-0.00117471
0.00615849
-0.00115633
0.0066527
-0.00101861
0.00695845
-0.000813367
0.00709417
-0.000597109
0.0071078
-0.0003916
0.00705014
-0.00019909
0.00690912
1.89402e-05
0.00659542
0.000306269
0.00597787
0.000683656
0.00494298
0.0011395
0.00342801
0.00163087
0.00148576
0.00206439
-0.00065457
0.00226304
-0.00258031
0.00203264
-0.00388836
0.00137731
-0.004469
0.000602557
-0.00453883
5.59985e-05
-0.00438811
-0.000173825
-0.00418221
-0.000211164
-0.00396998
-0.000180789
-0.00374889
-0.000133573
-0.00352191
-7.46504e-05
-0.00328071
-2.11713e-05
-0.00302207
2.68072e-05
-0.00274739
6.92735e-05
-0.00245689
0.000105005
-0.00215387
0.000132617
-0.00184323
0.000150679
-0.00152939
0.000159408
-0.00121447
0.00015753
-0.000900496
0.000146711
-0.000589765
0.000129043
-0.000284963
0.000106634
1.11247e-05
8.1183e-05
0.000295532
5.40614e-05
0.000565081
2.62838e-05
0.000815728
-1.26974e-06
0.00104501
-2.76827e-05
0.00125257
-5.20861e-05
0.00143511
-7.38037e-05
0.00158615
-9.22411e-05
0.00170101
-0.000106819
0.00177572
-0.000117433
0.00180709
-0.000123648
0.00179382
-0.000125371
0.00173733
-0.0001226
0.001642
-0.000115529
0.00151579
-0.000106386
0.00136734
-9.76436e-05
0.00120711
-9.67703e-05
0.00104264
-0.000108402
0.000881591
-0.000138692
0.000729445
-0.000187195
0.000589929
-0.000250066
0.000465858
-0.000322881
0.000359651
-0.000402602
0.000273375
-0.000487806
0.000208586
-0.000577881
0.000166221
-0.000672159
0.000146586
-0.00076943
0.000149383
-0.000867821
0.000173704
-0.000964886
0.000217993
-0.00105779
0.000280005
-0.00114354
0.000356782
-0.00121928
0.000444715
-0.0012826
0.000539702
-0.00133182
0.000637403
-0.00136628
0.000733574
-0.00138646
0.000824399
-0.0013939
0.000906773
-0.00139101
0.000978481
-0.00138074
0.00103829
-0.00136623
0.00108598
-0.00135052
0.00112224
-0.00133641
-0.00132677
0.00114867
-0.000380316
-0.000258892
-0.000641314
-0.000728087
-0.000811928
-0.000930731
-0.00126264
-0.000723994
-0.00204946
-0.000369501
-0.00299807
-7.00046e-05
-0.00392977
0.000118334
-0.00476698
0.000240104
-0.00551135
0.000352768
-0.00623007
0.000519626
-0.00696807
0.000756939
-0.00770617
0.00104437
-0.00839556
0.00137305
-0.00898781
0.00173175
-0.00945364
0.0020967
-0.00978117
0.00239193
-0.00997201
0.00245388
-0.0100393
0.00209996
-0.0100061
0.00134406
-0.0098969
0.000493377
-0.00972884
-0.000112066
-0.00950867
-0.000393995
-0.00923819
-0.000481646
-0.00892109
-0.000497883
-0.0085667
-0.000487965
-0.00815696
-0.00048439
-0.00768815
-0.000489987
-0.00717895
-0.000482385
-0.0066502
-0.000459476
-0.00612611
-0.000419093
-0.00563255
-0.00036094
-0.0051907
-0.000291166
-0.0048077
-0.000223596
-0.00447595
-0.00017422
-0.00417662
-0.000152621
-0.00388971
-0.000157861
-0.00360207
-0.000181012
-0.00330954
-0.000211349
-0.00301482
-0.000240659
-0.00272392
-0.000264609
-0.00244342
-0.000281773
-0.00217886
-0.000292242
-0.00193421
-0.000296736
-0.00171185
-0.000296163
-0.00151266
-0.000291433
-0.00133607
-0.000283408
-0.00118033
-0.000273176
-0.00104233
-0.000261642
-0.000917927
-0.00024978
-0.000801874
-0.000238653
-0.000687951
-0.000229452
-0.000570755
-0.000223581
-0.000445886
-0.000222512
-0.000314726
-0.000227932
-0.000181642
-0.000241486
-5.57815e-05
-0.000264553
5.49016e-05
-0.000297878
0.000146475
-0.00034164
0.000219429
-0.000395836
0.000277291
-0.000460464
0.00032486
-0.000535376
0.000366983
-0.000620004
0.000407957
-0.000713133
0.00045132
-0.000812793
0.00049977
-0.000916272
0.000555107
-0.00102022
0.00061818
-0.00112086
0.000688847
-0.00121421
0.000765979
-0.00129642
0.000847532
-0.00136415
0.00093073
-0.00141502
0.00101237
-0.00144792
0.00108922
-0.00146331
0.00115846
-0.00146313
0.00121793
-0.00145047
0.00126629
-0.00142911
0.00130302
-0.00140295
0.00132825
-0.00137575
0.00134275
-0.00135091
-0.00133228
0.00134825
-0.000370151
0.000111259
-0.000925295
-0.000172943
-0.00133694
-0.000519085
-0.00150855
-0.000552385
-0.00151504
-0.00036301
-0.00143614
-0.000148905
-0.00135808
4.02691e-05
-0.00134877
0.000230804
-0.00148401
0.000488002
-0.00179295
0.000828562
-0.00223932
0.00120331
-0.00272957
0.00153462
-0.00312901
0.00177249
-0.00329874
0.00190147
-0.00312133
0.00191929
-0.0025571
0.0018277
-0.00174013
0.00163691
-0.00101169
0.00137152
-0.000746107
0.00107847
-0.00107049
0.000817759
-0.00181118
0.000628621
-0.0027011
0.000495926
-0.00356649
0.000383747
-0.00433824
0.000273869
-0.00497711
0.000150902
-0.00547428
1.27836e-05
-0.00583077
-0.000133495
-0.00603607
-0.000277087
-0.00608555
-0.000409998
-0.00598289
-0.000521757
-0.00574956
-0.000594268
-0.00542746
-0.000613266
-0.00505595
-0.000595101
-0.00467108
-0.000559088
-0.00429782
-0.000525882
-0.00394925
-0.000506437
-0.00363245
-0.000497805
-0.00333964
-0.000504159
-0.00306222
-0.000518079
-0.00279367
-0.000533166
-0.00253041
-0.000545029
-0.00227147
-0.000551182
-0.00201743
-0.00055078
-0.00176941
-0.000544183
-0.00152838
-0.000532464
-0.00129484
-0.00051694
-0.00106914
-0.000498875
-0.000851479
-0.000479308
-0.000642124
-0.000459135
-0.000441538
-0.000439239
-0.000250375
-0.000420614
-6.95151e-05
-0.000404441
9.99385e-05
-0.000391966
0.000256641
-0.000384634
0.000399107
-0.000383953
0.000526017
-0.000391463
0.000636828
-0.000408689
0.00073223
-0.000437042
0.000814081
-0.000477687
0.000884981
-0.000531364
0.000947798
-0.000598192
0.00100528
-0.000677482
0.00105978
-0.000767637
0.00111314
-0.000866154
0.00116659
-0.000969719
0.00122074
-0.00107438
0.00127564
-0.00117576
0.00133075
-0.00126932
0.00138502
-0.00135068
0.00143689
-0.00141602
0.00148443
-0.00146256
0.00152555
-0.00148904
0.00155835
-0.00149611
0.00158145
-0.00148623
0.00159431
-0.00146333
0.00159718
-0.00143198
0.00159093
-0.0013967
0.00157674
-0.00136156
0.00155591
-0.00133009
-0.00130655
0.00153019
0.000510274
-0.000399016
0.00111245
-0.000775117
0.00160144
-0.00100808
0.00222686
-0.0011778
0.00313467
-0.00127083
0.00427206
-0.00128629
0.00553366
-0.00122133
0.00683517
-0.00107071
0.00817102
-0.000847843
0.00958118
-0.000581598
0.0110853
-0.000300847
0.0126439
-2.39795e-05
0.014176
0.000240461
0.0155908
0.000486661
0.0168018
0.00070827
0.0177266
0.00090289
0.0182816
0.00108195
0.0183882
0.00126484
0.0180023
0.00146444
0.0171419
0.00167813
0.0159027
0.00186783
0.0144013
0.00199736
0.0127333
0.00205172
0.0109763
0.00203086
0.00918516
0.00194203
0.00740228
0.00179566
0.00566526
0.00160353
0.00401011
0.00137806
0.00246844
0.00113167
0.00107126
0.000875427
-0.000144277
0.000621266
-0.00113133
0.000373784
-0.00186614
0.000139709
-0.00234851
-7.67126e-05
-0.00260216
-0.000272231
-0.00266566
-0.000442938
-0.00257565
-0.000587822
-0.00237564
-0.000704166
-0.00210401
-0.000789709
-0.00179271
-0.000844468
-0.0014683
-0.000869433
-0.00115182
-0.000867669
-0.000857653
-0.000844943
-0.000593399
-0.000808437
-0.000360418
-0.000765445
-0.000155564
-0.000721793
2.65669e-05
-0.000681006
0.000191624
-0.000644365
0.000344159
-0.000611669
0.000487128
-0.000582208
0.000622038
-0.000555524
0.000749378
-0.000531782
0.000869234
-0.000511822
0.000981625
-0.000497026
0.00108681
-0.000489135
0.00118539
-0.000490041
0.00127828
-0.000501587
0.0013666
-0.00052536
0.00145139
-0.00056248
0.00153344
-0.000613406
0.00161303
-0.000677785
0.00168992
-0.000754377
0.00176335
-0.000841063
0.00183213
-0.000934932
0.00189484
-0.00103243
0.00195
-0.00112954
0.0019962
-0.00122196
0.00203219
-0.00130531
0.00205696
-0.00137545
0.00206974
-0.00142881
0.00207007
-0.00146288
0.00205783
-0.00147681
0.00203342
-0.0014717
0.00199786
-0.00145068
0.00195285
-0.00141832
0.00190061
-0.00137974
0.00184356
-0.00133964
0.00178394
-0.00130195
0.00172362
-0.00126977
-0.00124704
0.00166411
-7.61432e-05
-0.000322872
3.78077e-05
-0.000889068
0.000533082
-0.00150335
0.00141205
-0.00205677
0.00258527
-0.00244405
0.0039066
-0.00260762
0.00516156
-0.00247629
0.00613295
-0.00204211
0.00670915
-0.00142404
0.00692314
-0.000795593
0.00686691
-0.000244613
0.00661795
0.000224978
0.00622324
0.000635174
0.005703
0.0010069
0.0050626
0.00134867
0.0043068
0.00165869
0.0034544
0.00193435
0.0025536
0.00216565
0.00168259
0.00233545
0.00093409
0.00242663
0.000368097
0.00243382
8.34329e-06
0.00235712
-0.000153202
0.00221327
-0.000146202
0.00202386
-1.15026e-05
0.00180733
0.000208275
0.00157588
0.000476267
0.00133554
0.000766355
0.00108797
0.0010633
0.000834725
0.00135199
0.000586741
0.00163643
0.000336823
0.00191592
9.42914e-05
0.00218796
-0.000132332
0.00244528
-0.000334027
0.00267626
-0.00050321
0.00286851
-0.000635195
0.00300892
-0.000728232
0.00308813
-0.000783373
0.00310172
-0.000803301
0.00304993
-0.000792673
0.00293922
-0.000758721
0.00278244
-0.000710893
0.00259447
-0.000656974
0.00239437
-0.000608337
0.002199
-0.000570074
0.00202134
-0.00054413
0.0018697
-0.000529372
0.00174806
-0.000522718
0.00165704
-0.000520651
0.00159521
-0.000520381
0.00156011
-0.000520425
0.001549
-0.000520665
0.00155924
-0.000522069
0.00158852
-0.000526308
0.00163475
-0.000535363
0.00169594
-0.00055123
0.00177
-0.000575649
0.00185456
-0.000609914
0.00194681
-0.000654734
0.00204353
-0.000710124
0.00214111
-0.000775363
0.00223573
-0.000848996
0.00232356
-0.000928897
0.00240099
-0.00101236
0.00246477
-0.00109621
0.00251221
-0.00117698
0.00254128
-0.00125103
0.00255069
-0.00131472
0.00254
-0.00136476
0.00250966
-0.00139847
0.00246109
-0.00141432
0.00239664
-0.00141236
0.00231942
-0.00139447
0.00223301
-0.00136427
0.00214108
-0.0013264
0.00204706
-0.00128572
0.00195382
-0.0012464
0.0018636
-0.00121173
0.00177807
-0.00118424
-0.00116693
0.00169796
-0.000450867
0.000127995
-0.00100504
-0.000334892
-0.00143861
-0.00106979
-0.00179119
-0.00170418
-0.00210087
-0.00213438
-0.00239446
-0.00231403
-0.00271733
-0.00215342
-0.00311453
-0.00164491
-0.00359905
-0.000939515
-0.00414715
-0.000247495
-0.00470949
0.000317729
-0.00523877
0.000754258
-0.00569944
0.00109584
-0.00606084
0.00136829
-0.00629709
0.00158493
-0.00639031
0.00175191
-0.00632994
0.00187398
-0.00611489
0.00195059
-0.00575925
0.00197982
-0.00529281
0.00196018
-0.00474887
0.00188989
-0.00415933
0.00176757
-0.00354251
0.00159645
-0.00290156
0.00138291
-0.00222981
0.00113558
-0.0015203
0.000866365
-0.000774643
0.000589888
-5.71276e-06
0.000319043
0.000765201
6.38116e-05
0.00151827
-0.000166325
0.00221801
-0.000362925
0.00283116
-0.00051885
0.00332901
-0.000630181
0.00369317
-0.000698191
0.00392379
-0.000733831
0.00402288
-0.000734285
0.00400189
-0.000707239
0.0038799
-0.000661381
0.00368063
-0.00060404
0.00343031
-0.000542344
0.00315483
-0.000483241
0.00287715
-0.00043322
0.00261725
-0.000397068
0.00238718
-0.000378267
0.00219175
-0.000374648
0.00203176
-0.000384132
0.00190458
-0.000402197
0.00180668
-0.000424813
0.00173496
-0.000448932
0.00168736
-0.000472782
0.00166274
-0.000495803
0.00166044
-0.000518365
0.00167981
-0.000541447
0.00171984
-0.00056633
0.00177885
-0.000594372
0.00185444
-0.000626823
0.00194348
-0.000664686
0.00204216
-0.000708603
0.0021462
-0.000758769
0.00225096
-0.000814886
0.00235174
-0.000876139
0.00244395
-0.00094121
0.00252338
-0.00100833
0.00258635
-0.00107533
0.00262989
-0.00113975
0.00265183
-0.00119892
0.00265093
-0.00125013
0.00262701
-0.0012908
0.00258102
-0.00131877
0.00251518
-0.00133262
0.00243293
-0.00133207
0.00233873
-0.00131815
0.00223746
-0.0012932
0.00213375
-0.00126056
0.00203135
-0.001224
0.00193275
-0.00118711
0.00183936
-0.00115302
0.00175196
-0.00112432
0.00167111
-0.00110338
-0.00109254
0.00159671
0.000628252
-0.000500257
0.00122287
-0.000929513
0.00107874
-0.00092566
0.0001909
-0.000816334
-0.00116977
-0.000773705
-0.00271373
-0.000770067
-0.00416092
-0.000706226
-0.00529291
-0.000512927
-0.00603139
-0.000201027
-0.00645324
0.000174348
-0.00668847
0.000552963
-0.00683
0.000895784
-0.00690017
0.00116602
-0.00687282
0.00134094
-0.00670593
0.00141804
-0.00635691
0.00140288
-0.00578747
0.00130454
-0.00498632
0.00114945
-0.00399676
0.000990252
-0.00291413
0.000877553
-0.00182675
0.000802518
-0.000775854
0.00071667
0.000254061
0.000566539
0.00131777
0.000319201
0.00245487
-1.51027e-06
0.00364334
-0.000322105
0.00481609
-0.000582867
0.0058756
-0.000740467
0.0067257
-0.000786284
0.00729568
-0.000736305
0.00755124
-0.00061849
0.00749707
-0.000464676
0.00717344
-0.000306556
0.00664415
-0.000168894
0.00597794
-6.7629e-05
0.00525049
-6.82911e-06
0.00452546
1.77903e-05
0.00384943
1.46525e-05
0.00325263
-7.24324e-06
0.00275046
-4.01737e-05
0.00234831
-8.10968e-05
0.00204244
-0.00012735
0.00181804
-0.000172661
0.0016602
-0.000220435
0.00155439
-0.000268832
0.00148671
-0.000316459
0.00144692
-0.000362399
0.00142819
-0.000406089
0.00142662
-0.000447362
0.00144025
-0.000486413
0.00146818
-0.000523732
0.00150983
-0.000560013
0.00156446
-0.000596072
0.00163087
-0.000632744
0.00170731
-0.000670809
0.0017914
-0.00071091
0.0018802
-0.000753491
0.00197033
-0.000798738
0.00205811
-0.000846548
0.00213974
-0.000896511
0.0022115
-0.000947903
0.00227
-0.00099971
0.00231233
-0.00105065
0.00233623
-0.00109923
0.00234029
-0.0011438
0.00232401
-0.00118264
0.00228799
-0.00121411
0.00223397
-0.00123678
0.00216492
-0.00124971
0.00208485
-0.00125256
0.00199848
-0.0012457
0.00191054
-0.00123021
0.00182508
-0.00120774
0.00174482
-0.0011803
0.00167093
-0.00115011
0.0016033
-0.00111949
0.00154124
-0.00109095
0.00148412
-0.0010672
0.00143181
-0.00105108
-0.00104503
0.0013843
-0.000556254
5.59966e-05
-0.00196887
0.000483106
-0.00400318
0.00110865
-0.00631002
0.0014905
-0.00853832
0.0014546
-0.0104458
0.00113739
-0.0118398
0.000687815
-0.0125756
0.000222879
-0.0125893
-0.000187335
-0.0119206
-0.00049435
-0.0107215
-0.000646145
-0.00919619
-0.000629546
-0.00751872
-0.000511441
-0.00578355
-0.000394232
-0.00402251
-0.000343007
-0.00224581
-0.000373817
-0.00047006
-0.000471203
0.00125209
-0.000572705
0.00279337
-0.000551029
0.00398563
-0.000314706
0.00471093
7.72204e-05
0.00498587
0.000441733
0.00489688
0.000655524
0.00453139
0.000684694
0.00399876
0.000531118
0.00338621
0.000290444
0.00273821
6.5132e-05
0.00208257
-8.48205e-05
0.00144703
-0.000150748
0.000863929
-0.000153205
0.00036636
-0.000120921
-1.93439e-05
-7.89718e-05
-0.000280881
-4.50195e-05
-0.000421606
-2.81688e-05
-0.00045961
-2.96251e-05
-0.000420234
-4.62042e-05
-0.000328786
-7.36583e-05
-0.000205702
-0.000108432
-6.24039e-05
-0.000150541
8.62173e-05
-0.000188795
0.000227569
-0.000222448
0.000360036
-0.000259817
0.000485127
-0.000297752
0.0006003
-0.000335608
0.000704731
-0.000373263
0.000798946
-0.000410674
0.000884365
-0.000447817
0.000962957
-0.000484681
0.00103687
-0.000521276
0.00110812
-0.000557661
0.00117835
-0.000593959
0.00124868
-0.000630343
0.00131963
-0.000667025
0.0013911
-0.000704216
0.00146238
-0.000742089
0.00153222
-0.000780743
0.0015989
-0.000820176
0.00166043
-0.000860266
0.00171463
-0.000900751
0.00175935
-0.000941232
0.00179262
-0.000981167
0.00181279
-0.00101989
0.00181875
-0.00105661
0.00180999
-0.00109048
0.00178681
-0.00112062
0.00175035
-0.00114618
0.00170269
-0.00116645
0.00164677
-0.00118086
0.00158607
-0.00118902
0.00152424
-0.00119073
0.0014645
-0.00118596
0.00140917
-0.00117488
0.00135938
-0.00115796
0.00131519
-0.00113611
0.00127592
-0.00111083
0.00124072
-0.0010843
0.00120908
-0.00105931
0.001181
-0.00103912
0.00115687
-0.00102695
-0.0010254
0.00113725
-0.000336298
0.000392295
-0.000932924
0.00107973
-0.00141033
0.00158605
-0.00168087
0.00176104
-0.00189057
0.00166429
-0.0021468
0.00139362
-0.00248752
0.00102854
-0.00288493
0.000620286
-0.00326288
0.000190619
-0.00354252
-0.000214712
-0.0036754
-0.000513266
-0.00366159
-0.000643358
-0.00353295
-0.000640075
-0.00327911
-0.000648071
-0.00288642
-0.000735698
-0.00232917
-0.000931071
-0.00156677
-0.0012336
-0.00054241
-0.00159706
0.000652667
-0.00174611
0.00161806
-0.0012801
0.0020411
-0.000345817
0.00205277
0.000430056
0.00192637
0.000781929
0.00174917
0.000861889
0.00148394
0.000796351
0.00111157
0.00066281
0.000659535
0.000517171
0.000183305
0.00039141
-0.00026061
0.000293167
-0.00062937
0.000215556
-0.000899238
0.000148947
-0.00106349
8.52852e-05
-0.00112717
1.86565e-05
-0.001101
-5.43389e-05
-0.00099964
-0.000130985
-0.000847121
-0.000198723
-0.00066103
-0.000259749
-0.000457547
-0.000311914
-0.000245088
-0.000363001
-2.717e-05
-0.000406713
0.000192233
-0.000441851
0.000401417
-0.000469002
0.000593164
-0.000489499
0.000762711
-0.000505155
0.000907508
-0.000518061
0.00102714
-0.00053031
0.00112308
-0.000543751
0.00119819
-0.000559792
0.00125621
-0.000579298
0.00130115
-0.000602605
0.0013368
-0.000629601
0.00136631
-0.000659859
0.00139204
-0.000692759
0.00141543
-0.000727601
0.00143704
-0.000763697
0.00145671
-0.000800419
0.00147376
-0.000837226
0.00148715
-0.000873656
0.0014957
-0.000909302
0.00149826
-0.000943794
0.00149388
-0.000976778
0.00148189
-0.0010079
0.0014621
-0.00103682
0.0014348
-0.00106318
0.00140082
-0.00108664
0.00136149
-0.00110686
0.00131846
-0.00112342
0.00127347
-0.00113586
0.00122808
-0.00114363
0.0011835
-0.00114614
0.00114047
-0.00114294
0.00109946
-0.00113386
0.00106078
-0.00111927
0.00102487
-0.0011002
0.000992435
-0.0010784
0.000964459
-0.00105632
0.000942056
-0.00103691
0.000926186
-0.00102325
0.00091733
-0.0010181
-0.00102351
0.000915438
3.26222e-05
0.000359672
0.000537699
0.000574654
0.00153595
0.000587805
0.00270934
0.00058765
0.00377181
0.000601829
0.00456939
0.000596043
0.00501643
0.000581491
0.00505843
0.000578293
0.00466638
0.000582665
0.0038603
0.000591364
0.00273634
0.000610696
0.00142615
0.000666836
6.55338e-05
0.00072054
-0.00128204
0.000699501
-0.00257309
0.000555357
-0.00377744
0.000273279
-0.00485518
-0.000155865
-0.00573203
-0.000720214
-0.00628973
-0.00118841
-0.00641141
-0.00115842
-0.00608735
-0.000669876
-0.00543242
-0.000224874
-0.0046054
-4.50898e-05
-0.00374669
3.18018e-06
-0.0029775
2.71651e-05
-0.00236155
4.68556e-05
-0.00190687
6.24892e-05
-0.00158603
7.05784e-05
-0.0013597
6.68327e-05
-0.00119243
4.82848e-05
-0.00105829
1.48034e-05
-0.000937576
-3.54244e-05
-0.00080584
-0.000113079
-0.000645388
-0.00021479
-0.000458303
-0.000318071
-0.000242424
-0.000414602
-8.00061e-07
-0.000501372
0.000261346
-0.00057406
0.000527929
-0.000629584
0.000787574
-0.000666357
0.00103022
-0.000684497
0.00124694
-0.000685719
0.00143047
-0.000673036
0.00157576
-0.000650443
0.0016803
-0.000622597
0.00174448
-0.000594489
0.00177178
-0.000571056
0.00176838
-0.000556386
0.00174216
-0.000553081
0.0017015
-0.000561946
0.001654
-0.000582102
0.00160561
-0.000611464
0.00156022
-0.00064737
0.00151978
-0.000687165
0.00148469
-0.000728599
0.00145426
-0.000769993
0.00142727
-0.000810235
0.00140229
-0.000848672
0.00137795
-0.000884966
0.00135312
-0.000918966
0.00132695
-0.000950609
0.00129889
-0.000979842
0.00126865
-0.00100657
0.00123611
-0.00103064
0.00120124
-0.00105177
0.00116398
-0.0010696
0.00112422
-0.00108366
0.00108185
-0.00109349
0.0010369
-0.00109868
0.000989728
-0.00109897
0.000941228
-0.00109444
0.000892858
-0.00108549
0.000846578
-0.00107299
0.000804637
-0.00105826
0.00076928
-0.00104304
0.000742427
-0.00102947
0.000725357
-0.00101984
0.000718453
-0.00101634
0.000721096
-0.00102074
-0.00103422
0.000731809
0.000387794
-2.81217e-05
0.000821286
0.000141163
0.000963037
0.000446054
0.000890819
0.000659868
0.000846258
0.00064639
0.00100768
0.000434617
0.00143537
0.000153805
0.00210525
-9.15841e-05
0.00295954
-0.000271633
0.00394878
-0.000397867
0.00503235
-0.000472875
0.00618983
-0.000490652
0.00737026
-0.000459889
0.00847025
-0.00040049
0.00936566
-0.000340046
0.00995
-0.000311062
0.0100992
-0.000305092
0.00969686
-0.000317855
0.00884694
-0.000338484
0.0080218
-0.00033328
0.00761953
-0.000267608
0.00754025
-0.000145596
0.0074949
2.66602e-07
0.00735147
0.000146608
0.00709798
0.000280652
0.00675412
0.000390718
0.00634939
0.000467219
0.00591535
0.000504617
0.00548132
0.000500864
0.00507224
0.00045737
0.00470818
0.000378863
0.00439977
0.000272982
0.00413838
0.000148306
0.00390872
1.48771e-05
0.00370748
-0.000116829
0.00353091
-0.000238034
0.00337063
-0.000341096
0.00321656
-0.000419992
0.00305864
-0.000471658
0.00288953
-0.000497249
0.00270733
-0.000502298
0.00251642
-0.000494805
0.00232556
-0.000482184
0.00214438
-0.000469258
0.00198029
-0.000458509
0.00183746
-0.000451657
0.001717
-0.000450591
0.00161784
-0.00045723
0.00153767
-0.000472917
0.00147355
-0.000497822
0.00142229
-0.000530844
0.00138079
-0.000569966
0.00134625
-0.000612824
0.00131628
-0.0006572
0.00128902
-0.000701338
0.00126305
-0.000744025
0.00123736
-0.000784543
0.00121122
-0.000822535
0.00118413
-0.000857873
0.00115569
-0.000890533
0.00112559