/*--------------------------------*- C++ -*----------------------------------*\
| =========                 |                                                 |
| \\      /  F ield         | OpenFOAM: The Open Source CFD Toolbox           |
|  \\    /   O peration     | Version:  2012                                  |
|   \\  /    A nd           | Website:  www.openfoam.com                      |
|    \\/     M anipulation  |                                                 |
\*---------------------------------------------------------------------------*/
FoamFile
{
    version     2.0;
    format      ascii;
    class       volScalarField;
    location    "1";
    object      p;
}
// * * * * * * * * * * * * * * * * * * * * * * * * * * * * * * * * * * * * * //

dimensions      [0 2 -2 0 0 0 0];


internalField   nonuniform List<scalar> 
42400
(
4328.77
4477.9
4739
5070.28
5433.48
5765.59
6054.26
6299.46
6494.85
6628.6
6691.2
6680.68
6600.99
6455.44
6243.16
5963.62
5620.41
5222.17
4781.24
4311.33
3827.33
3344.58
2877.44
2437.27
2030.79
1660.49
1326.83
1029.86
769.397
544.415
352.788
191.686
58.1978
-50.2703
-135.619
-199.724
-244.696
-273.02
-287.166
-289.739
-283.489
-270.912
-254.252
-235.572
-216.526
-198.399
-182.125
-168.193
-156.551
-147.082
-139.519
-133.499
-128.658
-124.675
-121.291
-118.307
-115.582
-113.014
-110.534
-108.094
-105.662
-103.218
-100.75
-98.254
-95.7301
-93.1842
-90.626
-88.0688
-85.5284
-83.0223
-80.5683
-78.1827
-75.8788
-73.6646
-71.5406
-69.4978
-67.5156
-65.5616
-63.5848
-61.4957
9071.89
9001.08
8839.95
8507.83
8013.52
7429.75
6829.6
6258.72
5733.57
5248.55
4782.4
4304.48
3781.1
3188.51
2533.11
1856.47
1214.29
646.561
169.897
-213.464
-503.767
-699.382
-801.03
-818.89
-775.337
-699.341
-615.416
-538.847
-475.089
-424.178
-384.14
-352.248
-326.563
-305.384
-287.275
-271.197
-256.517
-243.01
-230.47
-218.836
-208.015
-197.863
-188.233
-178.918
-169.836
-161.104
-152.807
-145.021
-137.996
-131.753
-126.247
-121.421
-117.199
-113.506
-110.265
-107.405
-104.859
-102.561
-100.452
-98.4768
-96.5874
-94.7439
-92.9148
-91.0771
-89.2162
-87.3251
-85.4033
-83.4556
-81.4909
-79.5209
-77.5584
-75.6166
-73.7069
-71.8379
-70.0136
-68.2328
-66.4889
-64.7712
-63.0678
-61.3425
-9405.51
-8918.05
-8295.85
-7682.49
-7074.68
-6567.26
-6133.88
-5729.4
-5325.36
-4912.36
-4490.62
-4066.98
-3654.9
-3270.76
-2927.62
-2630.12
-2375.03
-2152.01
-1951.29
-1768.56
-1604.96
-1463.97
-1346.64
-1249.07
-1163.33
-1080.57
-994.047
-900.836
-801.794
-700.298
-600.771
-507.704
-423.769
-350.323
-287.655
-235.399
-192.754
-158.814
-132.573
-112.93
-98.7636
-89.0193
-82.7152
-78.9975
-77.1664
-76.5529
-76.6821
-77.2548
-78.064
-78.9658
-79.8676
-80.7134
-81.4715
-82.1251
-82.6656
-83.0878
-83.388
-83.5617
-83.6038
-83.5091
-83.2729
-82.8921
-82.3661
-81.6973
-80.8912
-79.9566
-78.9046
-77.7489
-76.5046
-75.1874
-73.8137
-72.399
-70.958
-69.503
-68.0438
-66.5873
-65.1372
-63.696
-62.2671
-60.844
-6038.57
-6117.94
-6191.22
-6194.3
-6119.93
-5968.94
-5764.96
-5523.61
-5251.54
-4955.75
-4646.65
-4337.41
-4040.77
-3767.01
-3519.75
-3293.66
-3077.03
-2858.85
-2633.8
-2400.41
-2155.8
-1894.59
-1612.89
-1315.01
-1015.38
-732.27
-481.883
-275.595
-118.29
-7.47263
64.1981
105.711
125.472
130.307
125.384
114.502
100.388
84.9315
69.3582
54.3778
40.342
27.4006
15.5981
4.90343
-4.75243
-13.4551
-21.2882
-28.328
-34.6412
-40.2871
-45.3184
-49.7831
-53.726
-57.1895
-60.2138
-62.8365
-65.0916
-67.0094
-68.6155
-69.9317
-70.9765
-71.7661
-72.3151
-72.6381
-72.7497
-72.6652
-72.4009
-71.9737
-71.4011
-70.7008
-69.8905
-68.9873
-68.0071
-66.9647
-65.8727
-64.7417
-63.5805
-62.3965
-61.1962
-59.9713
5617.93
5535.08
5425.42
5279.91
5100.03
4899.14
4688.39
4479.68
4282.06
4099.81
3932.99
3779.1
3633.52
3491.58
3347.2
3192.15
3017.79
2815.21
2578.61
2312.35
2035.63
1780.83
1580.03
1446
1362.21
1293.37
1209.62
1101.6
976.12
844.434
716.083
597.689
492.993
403.283
328.059
265.784
214.529
172.387
137.668
108.957
85.0848
65.0849
48.1625
33.6922
21.1905
10.2936
0.723339
-7.73424
-15.2455
-21.9411
-27.9259
-33.2846
-38.087
-42.3908
-46.2441
-49.6867
-52.7517
-55.4663
-57.8529
-59.9298
-61.7128
-63.2156
-64.4512
-65.4327
-66.1733
-66.6875
-66.9905
-67.0984
-67.028
-66.7964
-66.4207
-65.9175
-65.3027
-64.5911
-63.7964
-62.9309
-62.006
-61.0319
-60.016
-58.9628
3590.99
3890.56
4326.3
4812.28
5291.08
5662.48
5904.02
6016.95
6015.99
5926.41
5772.81
5570.28
5325.46
5043.45
4729.6
4388.28
4025.86
3653.51
3284.25
2927.17
2583.77
2252.47
1935.55
1637.46
1359.29
1104.73
882.357
700.307
558.397
447.483
358.333
285.658
227.168
180.92
144.671
116.178
93.5004
75.1252
59.9464
47.1733
36.232
26.7007
18.2652
10.6924
3.81201
-2.49927
-8.33022
-13.7446
-18.7884
-23.495
-27.8889
-31.989
-35.8102
-39.3624
-42.6553
-45.696
-48.4897
-51.0405
-53.3513
-55.4247
-57.2629
-58.8684
-60.2447
-61.3965
-62.33
-63.0532
-63.5758
-63.909
-64.0651
-64.0574
-63.8996
-63.6055
-63.1887
-62.6625
-62.0396
-61.3324
-60.553
-59.7121
-58.8187
-57.8868
4856.24
4425.96
3830.96
3073.05
2056.33
975.178
-37.3744
-887.812
-1547.58
-2036.54
-2386.8
-2627.27
-2782.32
-2870.09
-2897.32
-2867.43
-2788.67
-2670.58
-2519.96
-2340.81
-2136.09
-1908.88
-1666.05
-1419.42
-1182.62
-968.399
-785.212
-637.179
-523.49
-437.101
-370.135
-315.324
-268.271
-226.796
-190.107
-158.033
-130.515
-107.399
-88.3919
-73.1013
-61.0863
-51.9005
-45.1179
-40.3474
-37.2335
-35.4619
-34.7586
-34.8893
-35.6565
-36.8962
-38.4738
-40.2801
-42.2271
-44.2446
-46.2766
-48.2786
-50.2153
-52.0587
-53.7864
-55.3805
-56.8272
-58.1163
-59.2405
-60.1959
-60.9811
-61.5976
-62.0492
-62.3415
-62.482
-62.4794
-62.3432
-62.0834
-61.7106
-61.2355
-60.6689
-60.0218
-59.305
-58.5281
-57.7006
-56.8367
-8321.79
-8000.31
-7570.72
-7037.39
-6382.25
-5703.28
-5101
-4649.73
-4389.64
-4306.81
-4296.69
-4249.02
-4172.8
-4136.34
-4135.56
-4117.13
-4053.87
-3942.82
-3784.42
-3583.57
-3349.02
-3090.06
-2815.24
-2534.88
-2261.48
-2006.35
-1774.56
-1563.6
-1367.21
-1181.93
-1006.97
-844.343
-696.961
-567.135
-455.901
-363.009
-287.205
-226.626
-179.137
-142.565
-114.858
-94.1935
-79.0214
-68.0761
-60.3511
-55.0631
-51.6096
-49.5302
-48.4735
-48.1713
-48.418
-49.0554
-49.9618
-51.0428
-52.2254
-53.4523
-54.6788
-55.87
-56.9985
-58.0429
-58.9871
-59.8187
-60.5294
-61.1138
-61.5691
-61.8953
-62.094
-62.1688
-62.1244
-61.9669
-61.703
-61.3401
-60.8864
-60.3502
-59.74
-59.0647
-58.3327
-57.5512
-56.7285
-55.8757
-1197.71
-1162.8
-1079.09
-917.826
-684.489
-429.945
-210.38
-64.8839
-4.00371
-6.59208
-14.823
36.3479
153.823
284.99
379.692
430.079
453.583
464.215
465.805
457.822
439.36
410.528
373.294
331.813
291.177
255.611
227.062
205.731
191.501
183.049
177.534
171.761
162.742
148.803
130.272
108.945
86.9373
65.8682
46.6577
29.6784
14.9563
2.33172
-8.42127
-17.5377
-25.2385
-31.7241
-37.1701
-41.7318
-45.5471
-48.7359
-51.4025
-53.6367
-55.5144
-57.0984
-58.439
-59.5757
-60.5383
-61.3487
-62.0228
-62.5716
-63.0033
-63.3234
-63.5365
-63.6462
-63.6561
-63.5697
-63.3909
-63.1239
-62.7732
-62.3439
-61.8415
-61.2718
-60.6407
-59.9545
-59.2194
-58.4417
-57.6272
-56.7806
-55.9087
-55.0189
10205.2
9927.92
9534
8987.24
8297.56
7563.64
6853.33
6199.82
5609.55
5078.05
4597.03
4154.42
3740.63
3356.51
3008.74
2701.48
2433.76
2201.29
1999.16
1822.65
1667.34
1528.59
1401.51
1281.52
1164.86
1048.47
930.978
812.835
695.919
582.796
476.613
380.341
295.865
223.929
164.589
116.873
78.8293
48.484
24.1714
4.6057
-11.167
-23.8679
-34.0635
-42.2137
-48.6977
-53.8289
-57.8656
-61.019
-63.4608
-65.3304
-66.7413
-67.7852
-68.5367
-69.0546
-69.3851
-69.5632
-69.6147
-69.5587
-69.4088
-69.1751
-68.865
-68.4844
-68.0383
-67.5307
-66.9658
-66.3473
-65.679
-64.9646
-64.2082
-63.4136
-62.5848
-61.7259
-60.841
-59.9339
-59.0085
-58.0685
-57.117
-56.1563
-55.1912
-54.226
-8191.2
-7736.8
-7185.95
-6611.99
-5929.07
-5191.01
-4415.31
-3644.76
-2927.88
-2295.6
-1760.2
-1320.44
-964.947
-677.665
-444.375
-255.859
-108.02
-0.446071
66.2148
94.0953
89.2879
60.3567
16.1813
-35.1945
-87.0501
-134.069
-172.322
-199.281
-213.7
-215.404
-205.698
-187.453
-164.462
-140.496
-118.829
-101.382
-88.5136
-79.8149
-74.5411
-71.8767
-71.0893
-71.5791
-72.8777
-74.6226
-76.5388
-78.4204
-80.1142
-81.5187
-82.5732
-83.2543
-83.5708
-83.5555
-83.256
-82.7253
-82.0138
-81.1646
-80.212
-79.1822
-78.0942
-76.9625
-75.7976
-74.6079
-73.4
-72.1793
-70.9504
-69.7172
-68.4834
-67.2518
-66.0255
-64.8069
-63.5981
-62.4012
-61.2178
-60.0492
-58.8968
-57.7615
-56.6437
-55.5431
-54.4627
-53.4032
-251.421
-226.063
-184.434
-142.652
-105.579
-112.548
-180.745
-311.566
-492.737
-704.064
-923.868
-1133.88
-1321.49
-1480.12
-1608.81
-1711.57
-1795.45
-1866.94
-1926.19
-1962.79
-1958.81
-1900.39
-1787.73
-1634.69
-1460.45
-1281.92
-1110.41
-952.583
-811.095
-686.878
-579.748
-488.86
-412.994
-350.671
-300.206
-259.791
-227.624
-202.063
-181.716
-165.481
-152.537
-142.284
-134.266
-128.087
-123.359
-119.689
-116.708
-114.115
-111.698
-109.327
-106.937
-104.506
-102.041
-99.5634
-97.1
-94.6705
-92.2866
-89.9541
-87.6743
-85.4472
-83.2722
-81.1494
-79.0792
-77.0626
-75.1008
-73.1952
-71.3471
-69.5573
-67.8265
-66.1548
-64.5419
-62.9871
-61.4891
-60.0465
-58.6575
-57.3199
-56.0312
-54.7885
-53.5925
-52.4391
2081.93
1841.25
1512.16
1098.72
588.457
43.2236
-496.106
-990.337
-1408.35
-1733.83
-1964.83
-2108.4
-2173.23
-2167.57
-2103.46
-1999.9
-1876.69
-1748.45
-1617.48
-1477.92
-1324.97
-1162.49
-1002.23
-857.55
-736.771
-641.225
-567.374
-509.056
-461.422
-420.726
-384.854
-352.972
-324.913
-300.701
-280.227
-263.123
-248.779
-236.454
-225.408
-215.021
-204.851
-194.666
-184.432
-174.282
-164.47
-155.302
-147.035
-139.845
-133.76
-128.638
-124.222
-120.249
-116.521
-112.925
-109.415
-105.975
-102.605
-99.3079
-96.0866
-92.9455
-89.8897
-86.9244
-84.0553
-81.2878
-78.6264
-76.0747
-73.6351
-71.3088
-69.0953
-66.9933
-65.0001
-63.1123
-61.3256
-59.6352
-58.0359
-56.5222
-55.0883
-53.7284
-52.4406
-51.2148
-7717.04
-7162.23
-6380.78
-5485.99
-4478.72
-3497.03
-2576.83
-1737.44
-996.672
-367.681
148.826
563.764
890.825
1139.64
1316.54
1427.55
1479.43
1480.35
1439.87
1368.7
1276.66
1170.48
1054.29
931.102
804.412
678.775
558.863
448.218
349.279
262.617
187.332
121.708
63.94
12.6939
-32.6562
-72.1534
-105.571
-132.71
-153.533
-168.255
-177.281
-181.2
-180.799
-177.049
-171.019
-163.78
-156.309
-149.319
-143.166
-137.891
-133.32
-129.199
-125.308
-121.498
-117.695
-113.868
-110.016
-106.153
-102.301
-98.4858
-94.734
-91.0713
-87.5206
-84.1011
-80.8277
-77.711
-74.7576
-71.9702
-69.3485
-66.8896
-64.5883
-62.4379
-60.4305
-58.5574
-56.8097
-55.178
-53.6532
-52.2261
-50.8922
-49.6352
6221.77
6091.86
5938.92
5708
5349.24
4861.66
4299.86
3734.26
3217.12
2778.18
2435.75
2196.58
2049.02
1968.46
1930.68
1917.61
1913.89
1905.3
1882.92
1842.52
1782.17
1700.56
1597.76
1475.01
1334.45
1179.02
1012.81
841.378
671.28
508.993
360.037
228.504
116.834
25.6666
-46.087
-100.867
-141.725
-171.546
-192.586
-206.433
-214.223
-216.872
-215.245
-210.235
-202.786
-193.858
-184.374
-175.105
-166.562
-158.931
-152.132
-145.943
-140.13
-134.516
-129.006
-123.564
-118.197
-112.931
-107.798
-102.828
-98.0489
-93.4812
-89.1406
-85.0374
-81.1768
-77.5602
-74.1852
-71.0462
-68.1351
-65.4415
-62.9537
-60.6587
-58.5429
-56.5925
-54.794
-53.1338
-51.5992
-50.1784
-48.8637
-47.634
5496.81
5376
5175.44
4817.63
4299.93
3703.78
3131.28
2651.01
2276.62
1982.22
1727.53
1476.73
1210.82
930.446
647.585
375.487
123.827
-102.698
-303.764
-481.139
-638.474
-779.997
-908.46
-1020.16
-1108.27
-1168.97
-1202.43
-1208.53
-1183.97
-1125.61
-1036.45
-927.253
-812.201
-704.596
-612.065
-536.372
-475.785
-427.406
-388.426
-356.56
-330.024
-307.429
-287.698
-270.024
-253.842
-238.788
-224.655
-211.343
-198.81
-187.032
-175.983
-165.628
-155.926
-146.838
-138.325
-130.353
-122.89
-115.908
-109.383
-103.292
-97.616
-92.3353
-87.4328
-82.892
-78.6968
-74.8311
-71.278
-68.0199
-65.0386
-62.3151
-59.83
-57.5638
-55.4976
-53.6128
-51.8917
-50.3177
-48.8752
-47.5504
-46.3333
-45.2005
-12814.4
-11927.6
-10799.8
-9664.79
-8458.94
-7273.85
-6138.53
-5102.79
-4215.04
-3497.22
-2924.74
-2455.91
-2084.19
-1836.42
-1725.02
-1727.29
-1804.56
-1923.96
-2060.34
-2189.85
-2288.31
-2331.79
-2301.12
-2194.49
-2031.31
-1840.39
-1646.38
-1464.76
-1303.42
-1165.2
-1049.67
-954.658
-877.243
-812.464
-755.065
-700.968
-648.034
-595.954
-545.579
-498.085
-454.356
-414.738
-379.1
-347.023
-318.015
-291.639
-267.568
-245.576
-225.504
-207.224
-190.621
-175.577
-161.971
-149.683
-138.594
-128.593
-119.574
-111.438
-104.094
-97.4581
-91.4557
-86.0194
-81.0909
-76.62
-72.5635
-68.8846
-65.5506
-62.5319
-59.8011
-57.3327
-55.1025
-53.0874
-51.2656
-49.6166
-48.1214
-46.7622
-45.5231
-44.39
-43.3523
-42.3875
2879.65
2882.96
2881.69
2831.92
2722.02
2528.04
2255.3
1929
1589.24
1277.52
1021.51
825.676
674.783
542.012
399.481
227.68
21.172
-215.601
-474.154
-740.59
-994.352
-1214.8
-1384.72
-1492.46
-1535.81
-1525.22
-1476.68
-1403.75
-1316.28
-1221.49
-1124.33
-1027.87
-933.04
-839.274
-746.948
-658.879
-579.011
-510.505
-454.789
-411.221
-377.293
-349.516
-324.703
-300.866
-277.322
-254.228
-232.06
-211.281
-192.159
-174.907
-159.483
-145.793
-133.698
-123.039
-113.661
-105.411
-98.1481
-91.7406
-86.068
-81.0209
-76.5026
-72.432
-68.7444
-65.3901
-62.3323
-59.5442
-57.0051
-54.6975
-52.6054
-50.7132
-49.0046
-47.4635
-46.0735
-44.8184
-43.6826
-42.6515
-41.7116
-40.8511
-40.0605
-39.3224
-868.595
-880.725
-904.229
-951.332
-1012.39
-1082.22
-1140.37
-1171.05
-1172.39
-1153.96
-1124.96
-1091.09
-1060.73
-1044.3
-1049.34
-1076.74
-1123.48
-1185.04
-1258.21
-1341.97
-1434.92
-1530.99
-1617.13
-1674.61
-1689.61
-1661.72
-1602.79
-1527.78
-1448.48
-1371.42
-1295.91
-1212.4
-1105.19
-966.588
-809.691
-657.566
-524.733
-412.801
-318.396
-239.837
-177.64
-132.12
-101.758
-83.297
-73.1198
-68.5553
-67.0397
-67.03
-67.5529
-68.0295
-68.1702
-67.8716
-67.1442
-66.0596
-64.7153
-63.2092
-61.6247
-60.0215
-58.4336
-56.8732
-55.3384
-53.8228
-52.3229
-50.8423
-49.3919
-47.9866
-46.6426
-45.374
-44.1906
-43.098
-42.097
-41.1848
-40.3559
-39.6026
-38.9164
-38.2881
-37.7093
-37.172
-36.6695
-36.1926
-5308.96
-5146.95
-4938.44
-4695.68
-4418.84
-4130.93
-3826.03
-3488.58
-3106.34
-2683.9
-2243.22
-1812.89
-1417.56
-1073.75
-791.335
-575.284
-417.345
-293.498
-189.997
-118.857
-90.1373
-94.4103
-117.408
-149.666
-186.662
-226.654
-267.17
-304.228
-334.272
-354.451
-359.967
-341.378
-291.656
-214.478
-129.29
-59.9285
-16.6621
2.0365
6.13043
5.14195
4.25379
4.75018
5.72533
5.8406
5.03611
3.46006
0.888416
-2.36092
-5.93407
-9.56344
-13.0639
-16.3217
-19.2812
-21.9317
-24.2928
-26.3995
-28.2877
-29.9828
-31.493
-32.8102
-33.917
-34.7965
-35.4425
-35.8643
-36.0867
-36.1452
-36.0792
-35.9265
-35.7196
-35.4836
-35.2366
-34.9904
-34.7512
-34.5212
-34.3
-34.0853
-33.8741
-33.6629
-33.4486
-33.2317
2779.79
2865.19
2959.84
2960.19
2859.55
2633.82
2337.9
2033.55
1753.71
1504.27
1283.3
1093.53
938.517
810.966
702.295
609.957
523.22
436.87
365.092
316.859
287.649
272.741
268.869
273.804
285.543
300.556
313.678
318.833
310.7
287.308
251.811
211.355
173.39
142.44
119.334
102.396
89.1518
77.536
66.3136
54.9884
43.5333
32.1437
21.0736
10.5467
0.717124
-8.33742
-16.6087
-24.1417
-31.0123
-37.3123
-43.1331
-48.5542
-53.6348
-58.4094
-62.8845
-67.038
-70.8196
-74.1532
-76.9407
-79.0699
-80.4249
-80.9015
-80.426
-78.9778
-76.6127
-73.1486
-69.1126
-64.7497
-60.3159
-56.0738
-52.2222
-48.8757
-46.065
-43.7365
-41.7862
-40.0982
-38.5788
-37.0794
-35.6475
-34.2702
6727.01
6654.48
6484.59
6160.47
5711.47
5228.96
4798.05
4469.33
4254.24
4135.22
4073.6
4002.41
3812.55
3413.96
2883.63
2429.58
2139.62
1921.81
1716.38
1541.64
1407.32
1301.75
1213.6
1135.95
1064.2
995.418
927.994
860.917
793.662
726.327
659.625
594.634
532.335
473.305
418.152
367.178
320.354
277.561
238.638
203.401
171.664
143.218
117.845
95.3117
75.3694
57.7584
42.2137
28.475
16.2976
5.46258
-4.21472
-12.881
-20.6452
-27.5826
-33.7406
-39.1451
-43.8058
-47.7214
-50.8827
-53.277
-54.8942
-55.7347
-55.8198
-55.2093
-53.9725
-52.5011
-50.6003
-48.559
-46.6202
-44.9323
-43.5518
-42.4492
-41.6241
-40.8897
-40.1695
-39.4078
-38.5712
-37.741
-36.8526
-35.9317
-1627.62
-1286.68
-810.754
-298.682
220.744
647.467
989.557
1279.8
1534.6
1753.17
1929.68
2055.66
2124.87
2145.43
2125.81
2066.34
1974.63
1865.05
1748.87
1633.82
1523.36
1417.79
1317.23
1221.97
1132.24
1047.66
966.998
888.665
811.208
734.03
657.814
584.194
515.03
451.774
394.739
343.671
298.163
257.729
221.877
190.154
162.126
137.379
115.525
96.2095
79.117
63.9711
50.5321
38.5946
27.9857
18.5642
10.2165
2.85134
-3.60773
-9.23024
-14.0853
-18.2458
-21.7882
-24.7903
-27.3265
-29.4627
-31.2544
-32.7482
-33.9857
-35.0106
-35.8711
-36.6249
-37.3447
-38.0164
-38.6481
-39.2189
-39.7029
-40.0816
-40.2628
-40.333
-40.2838
-40.1112
-39.8219
-39.4312
-38.9512
-38.3864
84.0262
-51.2268
-181.514
-260.59
-323.42
-365.553
-408.137
-460.062
-519.192
-581.839
-644.855
-705.298
-757.967
-794.907
-809.436
-800.941
-774.674
-736.513
-689.256
-634.446
-573.216
-507.028
-437.337
-365.351
-292.136
-219.051
-148.193
-82.5666
-25.7155
19.2365
50.7445
69.8244
79.1507
82.2091
81.9366
80.1334
77.672
74.6937
71.204
67.1917
62.6255
57.3954
51.6016
45.3699
38.8499
32.212
25.6263
19.2545
13.2346
7.67456
2.6468
-1.81371
-5.70919
-9.07586
-11.9779
-14.4989
-16.7318
-18.7685
-20.6899
-22.5591
-24.4164
-26.279
-28.1421
-29.9829
-31.7661
-33.4523
-35.0078
-36.4079
-37.646
-38.7271
-39.659
-40.4462
-41.0883
-41.5912
-41.9579
-42.1914
-42.2948
-42.2724
-42.1287
-41.8502
-1382.18
-1451.25
-1549.14
-1667.83
-1804.61
-1944.54
-2083.06
-2219.35
-2353.52
-2485.21
-2611.94
-2728.17
-2824.39
-2887.58
-2904.45
-2866.6
-2772.94
-2631
-2453.83
-2254.3
-2043.85
-1831.43
-1623.14
-1422.56
-1231.73
-1051.78
-883.517
-727.695
-584.411
-453.25
-334.567
-229.989
-141.707
-71.0906
-17.9757
19.1486
42.6155
55.3099
59.9905
59.0105
54.3215
47.5441
39.7325
31.6416
23.7795
16.4491
9.81545
3.94839
-1.1444
-5.49752
-9.17279
-12.2499
-14.82
-16.9806
-18.831
-20.4682
-21.9801
-23.4417
-24.9093
-26.418
-27.981
-29.5919
-31.2294
-32.8638
-34.4633
-36.0002
-37.4528
-38.8073
-40.0564
-41.1977
-42.2315
-43.1585
-43.979
-44.6912
-45.2911
-45.7711
-46.1203
-46.3261
-46.3753
-46.2432
-7012.47
-6492.36
-5788.44
-4986.83
-4078.02
-3176.58
-2331.07
-1581.56
-957.383
-472.479
-123.147
110.026
257.777
351.955
414.108
452.578
465.927
451.358
409.513
345.247
266.141
180.293
94.9632
16.0625
-51.6626
-104.714
-141.245
-161.457
-167.959
-165.053
-157.076
-147.432
-138.133
-129.92
-122.755
-116.304
-110.209
-104.202
-98.1408
-91.9837
-85.7717
-79.6277
-73.6943
-68.073
-62.865
-58.134
-53.9077
-50.1865
-46.951
-44.1669
-41.7985
-39.8126
-38.181
-36.8814
-35.8968
-35.214
-34.8211
-34.7049
-34.8482
-35.2281
-35.8163
-36.5793
-37.4809
-38.4848
-39.5568
-40.6671
-41.7909
-42.9093
-44.0079
-45.0763
-46.1058
-47.0878
-48.0116
-48.8636
-49.625
-50.272
-50.776
-51.1065
-51.2373
-51.1265
12627.5
12385.7
12093.9
11695.9
11105.9
10380.5
9537.6
8597.98
7585.7
6520.89
5427.99
4340.37
3303.66
2376.16
1612.85
1037.71
635.749
370.54
205.089
110.026
62.2947
42.9188
37.1823
35.3887
32.0932
24.4913
11.3016
-7.05179
-30.0361
-57.0526
-86.276
-115.261
-141.48
-162.661
-177.683
-186.197
-188.493
-185.352
-178.057
-167.907
-156.092
-143.594
-131.174
-119.381
-108.519
-98.7214
-90.0166
-82.3626
-75.6848
-69.8999
-64.9139
-60.6359
-56.9837
-53.8881
-51.2927
-49.1531
-47.4337
-46.1041
-45.136
-44.5007
-44.1678
-44.1048
-44.2778
-44.6532
-45.1981
-45.8819
-46.6762
-47.5542
-48.4969
-49.485
-50.4988
-51.5174
-52.5165
-53.4668
-54.3334
-55.0756
-55.6489
-56.0087
-56.1115
-55.9266
-8645.51
-8113.14
-7385.04
-6532.88
-5561.71
-4585.49
-3649.03
-2779.91
-1996.26
-1310.88
-734.073
-273.366
68.2256
296.269
424.35
470.31
452.086
385.363
283.028
155.1
8.84534
-150.108
-314.579
-473.804
-613.638
-719.57
-781.477
-797.895
-775.19
-724.491
-658.276
-586.315
-514.779
-447.534
-386.519
-332.716
-286.385
-247.22
-214.364
-187.031
-164.668
-146.474
-131.857
-120.235
-110.988
-103.509
-97.2722
-91.8713
-87.0618
-82.722
-78.6597
-74.8305
-71.2309
-67.8661
-64.7537
-61.9174
-59.3822
-57.1707
-55.2993
-53.7766
-52.6015
-51.7641
-51.2466
-51.0258
-51.0753
-51.3689
-51.8749
-52.4977
-53.2723
-54.1613
-55.1257
-56.1285
-57.1292
-58.0828
-58.9399
-59.6482
-60.1551
-60.4116
-60.3783
-60.0238
2614.98
2256.25
1832.16
1389.78
875.542
338.901
-214.164
-776.007
-1333.65
-1864.89
-2339.1
-2724.75
-2998.81
-3152.34
-3191.02
-3130.09
-2988.03
-2783.69
-2536.56
-2267.07
-1994.99
-1736.07
-1500.2
-1288.34
-1092.87
-903.627
-715.683
-533.929
-370.24
-236.515
-139.404
-78.6932
-48.6059
-40.9477
-47.6694
-62.4643
-80.6075
-98.7937
-114.955
-127.91
-137.078
-142.867
-145.854
-146.485
-144.899
-141.169
-135.408
-127.955
-119.77
-111.549
-103.871
-96.9989
-90.9214
-85.5372
-80.7351
-76.4362
-72.5977
-69.2047
-66.2568
-63.7583
-61.71
-60.1048
-58.9245
-58.14
-57.7138
-57.5964
-57.7382
-58.156
-58.7375
-59.4442
-60.2267
-61.0438
-61.8473
-62.5831
-63.1971
-63.6376
-63.8595
-63.8107
-63.4938
-62.8744
-1206.27
-669.355
59.8291
772.82
1453.2
2073.95
2671.47
3205.32
3606.27
3836.65
3911.4
3888.02
3826.42
3746.36
3617.83
3400.82
3092.9
2730.76
2356.69
1996.5
1661.06
1355.01
1081.87
844.941
646.21
485.877
360.67
263.408
185.164
118.004
57.4954
2.75352
-44.7375
-83.724
-114.113
-136.581
-151.986
-160.991
-164.085
-161.833
-155.115
-145.238
-133.833
-122.554
-112.756
-105.113
-99.747
-96.477
-94.5575
-93.4503
-92.7805
-92.339
-91.5256
-90.1708
-88.2337
-85.7993
-83.0345
-80.1316
-77.2752
-74.62
-72.2798
-70.3247
-68.7838
-67.6506
-66.8911
-66.454
-66.279
-66.3063
-66.4747
-66.727
-67.0185
-67.293
-67.4994
-67.5969
-67.5458
-67.3162
-66.8921
-66.2778
-65.4586
-64.4431
6496.82
6391.51
6273.28
6117.48
5905.92
5644.63
5324.91
4925.78
4415.46
3759.79
2937.3
1966.96
963.4
130.148
-384.624
-617.743
-711.887
-754.208
-752.614
-703.202
-617.696
-512.239
-400.116
-291.952
-195.709
-115.649
-52.6587
-5.78847
26.4243
45.9599
55.4663
58.0476
56.04
50.7341
42.6333
32.1275
19.4908
5.43406
-9.10468
-23.345
-36.5865
-48.2565
-58.1145
-66.263
-73.0304
-78.7845
-83.7714
-88.0689
-91.6502
-94.5038
-96.6051
-97.5609
-97.9461
-97.7006
-96.8062
-95.3469
-93.4687
-91.3506
-89.1633
-87.052
-85.1263
-83.4539
-82.0614
-80.9392
-80.0509
-79.3444
-78.7624
-78.2499
-77.7575
-77.2395
-76.6539
-75.9587
-75.1205
-74.1308
-72.9635
-71.6407
-70.2004
-68.6829
-67.176
-65.6631
-7487.32
-7268.32
-7005.76
-6717.08
-6384.19
-6057.45
-5770.73
-5530.83
-5297.44
-4997.19
-4570.65
-4029.56
-3466.9
-2980.72
-2597.71
-2280.11
-1982.6
-1689
-1404.11
-1140.67
-912.661
-727.238
-583.747
-477.746
-400.528
-343.201
-299.702
-267.564
-245.643
-231.719
-222.192
-213.514
-203.621
-192.027
-179.344
-166.746
-155.082
-144.859
-136.111
-128.595
-122.107
-116.39
-111.126
-106.244
-101.84
-98.0659
-95.0929
-93.0516
-91.9995
-91.8683
-92.5211
-93.9226
-95.4976
-97.009
-98.3008
-99.2884
-99.9565
-100.332
-100.46
-100.387
-100.14
-99.7284
-99.1493
-98.3927
-97.4544
-96.3415
-95.072
-93.6685
-92.147
-90.5081
-88.7357
-86.7979
-84.6735
-82.3519
-79.8618
-77.2722
-74.6755
-72.1678
-69.8413
-67.7596
-3336.86
-3319.59
-3314.09
-3256.36
-3068.2
-2664.85
-2080.98
-1427.14
-813.006
-291.895
143.799
505.911
765.825
878.009
841.618
714.533
561.086
399.47
213.592
-0.249587
-225.793
-446.711
-648.6
-815.803
-928.961
-969.712
-936.987
-855.928
-761.837
-676.634
-603.842
-539.504
-481.066
-428.8
-383.451
-345.023
-312.699
-285.237
-261.371
-240.003
-220.274
-201.834
-184.802
-169.318
-155.517
-143.537
-133.47
-125.356
-119.153
-114.755
-111.979
-110.596
-110.338
-110.945
-112.173
-113.802
-115.633
-117.477
-119.155
-120.5
-121.356
-121.598
-121.148
-119.989
-118.176
-115.827
-113.098
-110.138
-107.06
-103.915
-100.712
-97.394
-93.9934
-90.4096
-86.7329
-83.0625
-79.5176
-76.224
-73.2863
-70.7892
11796
11435.6
10856.4
10001.4
8891.32
7733.49
6635.16
5624.04
4702.96
3872.55
3129.99
2466.43
1882.1
1402.28
1053.22
825.271
669.792
551.145
458.285
385.974
324.587
266.051
205.603
142.579
78.0287
13.1729
-51.3438
-114.895
-175.576
-230.045
-274.871
-307.772
-327.703
-334.546
-329.609
-315.478
-295.459
-272.853
-250.541
-229.832
-211.669
-195.945
-182.374
-170.681
-160.607
-151.959
-144.645
-138.619
-133.852
-130.317
-127.965
-126.722
-126.477
-127.078
-128.34
-130.055
-131.994
-133.922
-135.605
-136.82
-137.376
-137.134
-136.021
-134.05
-131.314
-127.973
-124.216
-120.222
-116.123
-111.987
-107.836
-103.667
-99.3626
-95.0318
-90.7283
-86.5537
-82.634
-79.0899
-76.0182
-73.4836
-10943.7
-10265.7
-9432.6
-8630.28
-7861.69
-7209.9
-6657.66
-6158.06
-5628.54
-4989.82
-4227.2
-3399.48
-2605.75
-1934.08
-1425.07
-1073.77
-847.168
-705.494
-613.427
-546.711
-488.099
-424.789
-353.87
-284.183
-228.56
-193.303
-174.106
-160.836
-143.047
-115.641
-81.8606
-51.7026
-34.5596
-32.7645
-42.5188
-58.4591
-76.363
-93.678
-108.989
-121.498
-131.066
-138.077
-142.894
-145.846
-147.292
-147.588
-147.06
-146.001
-144.668
-143.277
-142.004
-140.977
-140.266
-139.885
-139.794
-139.906
-140.096
-140.221
-140.131
-139.685
-138.767
-137.303
-135.243
-132.654
-129.592
-126.154
-122.447
-118.566
-114.574
-110.505
-106.374
-102.197
-98.0191
-93.8947
-89.7366
-85.817
-82.2339
-79.0717
-76.3972
-74.2476
-1352.52
-1374.68
-1394.06
-1403.65
-1436.16
-1514.86
-1664
-1883.04
-2138.11
-2375.54
-2547.01
-2629.12
-2617.42
-2514.83
-2327.09
-2065.43
-1753.86
-1436.21
-1161.43
-942.597
-748.14
-554.706
-376.21
-231.986
-124.557
-51.1003
-2.84293
31.7152
61.4689
86.7209
101.006
99.2554
82.3612
55.5318
24.5254
-6.60397
-35.5973
-61.592
-84.6959
-104.521
-121.03
-134.362
-144.727
-152.39
-157.666
-160.891
-162.402
-162.519
-161.538
-159.726
-157.329
-154.569
-151.641
-148.704
-145.872
-143.209
-140.731
-138.413
-136.202
-134.025
-131.807
-129.476
-126.975
-124.272
-121.354
-118.224
-114.902
-111.412
-107.783
-104.042
-100.22
-96.3559
-92.497
-88.7165
-85.2625
-82.0517
-79.1727
-76.6963
-74.6547
-73.0526
5609.67
5507.73
5383.13
5204.98
4939.91
4590.35
4174.85
3731.92
3302.61
2916.36
2587.51
2319.91
2114.58
1972.29
1888.64
1843.82
1791.33
1663.38
1414.94
1071.19
705.968
383.969
134.637
-44.5745
-175.566
-278.251
-351.075
-385.886
-384.89
-362.298
-335.208
-314.438
-302.522
-297.3
-295.585
-294.628
-292.973
-290.231
-285.695
-279.579
-271.96
-263
-253.035
-242.438
-231.604
-220.88
-210.526
-200.705
-191.498
-182.93
-175.006
-167.724
-161.088
-155.097
-149.738
-144.97
-140.729
-136.92
-133.444
-130.198
-127.089
-124.033
-120.968
-117.846
-114.639
-111.334
-107.934
-104.45
-100.905
-97.3289
-93.7602
-90.248
-86.8477
-83.6241
-80.6481
-77.9701
-75.635
-73.6734
-72.0997
-70.8344
1746.6
1703.96
1658.94
1578.82
1431.34
1181.63
853.305
505.694
197.317
-40.6415
-204.549
-302.558
-346.676
-346.724
-312.959
-265.05
-228.571
-220.037
-237.347
-265.563
-288.755
-303.19
-317.016
-338.952
-371.192
-409.559
-448.061
-482.584
-511.381
-533.92
-549.799
-558.36
-558.952
-551.475
-536.509
-515.289
-488.981
-458.319
-424.843
-390.491
-356.976
-325.516
-296.886
-271.498
-249.452
-230.614
-214.682
-201.259
-189.914
-180.233
-171.861
-164.515
-157.994
-152.16
-146.916
-142.178
-137.865
-133.89
-130.167
-126.62
-123.178
-119.789
-116.413
-113.024
-109.606
-106.157
-102.681
-99.1925
-95.7144
-92.2755
-88.9113
-85.662
-82.571
-79.6818
-77.0345
-74.6624
-72.5892
-70.829
-69.4043
-68.2269
-11696.1
-11013.6
-10105.4
-9115.31
-8027.4
-7028.57
-6199.41
-5566.55
-5090.16
-4699.18
-4361.97
-4085.51
-3861.04
-3662.64
-3473.19
-3287.47
-3104.47
-2922.17
-2737.8
-2549.93
-2359.46
-2168.12
-1978.56
-1793.99
-1616.82
-1448.4
-1290.22
-1143.55
-1009.3
-887.865
-779.068
-682.355
-597.16
-522.674
-458.273
-403.394
-357.076
-318.243
-286.137
-260.046
-239.261
-223.017
-210.459
-200.702
-192.927
-186.453
-180.763
-175.509
-170.483
-165.579
-160.764
-156.041
-151.429
-146.95
-142.618
-138.44
-134.411
-130.518
-126.745
-123.071
-119.476
-115.939
-112.443
-108.976
-105.528
-102.098
-98.6894
-95.3142
-91.9895
-88.7383
-85.5873
-82.5653
-79.7009
-77.0193
-74.5395
-72.2713
-70.2132
-68.3504
-66.6608
-65.0594
338.135
-2.25153
-441.668
-930.611
-1480.05
-2012.15
-2512.89
-2979.35
-3400.32
-3752.21
-4005.18
-4135.13
-4133.61
-4007.28
-3771.48
-3448.44
-3065.96
-2651.96
-2230.41
-1821.48
-1441.18
-1100.81
-806.191
-557.658
-352.466
-186.895
-57.3463
39.4711
106.788
148.117
167.376
168.755
156.449
134.131
105.015
72.2162
38.1577
4.56818
-27.3154
-56.5847
-82.5335
-104.646
-122.653
-136.56
-146.625
-153.275
-157.021
-158.384
-157.86
-155.907
-152.932
-149.28
-145.236
-141.017
-136.78
-132.626
-128.613
-124.762
-121.073
-117.531
-114.111
-110.787
-107.533
-104.331
-101.165
-98.0298
-94.9253
-91.8593
-88.8452
-85.9005
-83.045
-80.2989
-77.68
-75.2011
-72.8667
-70.6707
-68.5935
-66.6002
-64.6304
-62.6208
-31.7437
-28.9126
-26.6502
-24.767
-23.1503
-21.6509
-20.108
-18.4437
-16.6833
-14.9028
-13.1793
-11.5707
-10.1113
-8.81487
-7.68137
-6.70437
-5.87531
-5.18553
-4.62679
-4.19142
-3.87229
-3.66319
-3.55913
-3.55673
-3.65452
-3.85335
-4.15693
-4.57232
-5.10959
-5.77977
-6.59062
-7.54184
-8.62243
-9.81278
-11.0914
-12.4436
-13.8675
-15.3752
-16.9888
-18.7326
-20.6239
-22.6651
-24.8366
-27.0948
-29.3733
-31.5889
-33.6506
-35.4695
-36.9671
-38.0824
-38.7755
-39.0293
-38.8532
-38.2766
-37.346
-36.1185
-34.6551
-33.0157
-31.2541
-29.4162
-27.5383
-25.6479
-23.7642
-21.8996
-20.0624
-18.2581
-16.4917
-14.7685
-13.0963
-11.4858
-9.95079
-8.50755
-7.17208
-5.95762
-4.87235
-3.91849
-3.09275
-2.38784
-1.79424
-1.30183
-0.900927
-0.583024
-0.34107
-0.169581
-0.0645969
-0.0236351
-0.0456997
-0.131357
-0.282756
-0.503425
-0.797739
-1.17015
-1.62443
-2.16324
-2.78788
-3.49791
-4.29018
-5.15732
-6.08628
-7.05747
-8.04515
-9.01885
-9.94566
-10.7927
-11.5294
-12.1296
-12.5725
-12.844
-12.9358
-12.8463
-12.5913
-12.1738
-11.6112
-10.9236
-10.1331
-9.26258
-8.33459
-7.37052
-6.39016
-5.41137
-4.4499
-3.51933
-2.63106
-1.79428
-1.01602
-0.301113
0.347796
0.9302
1.44755
1.90294
2.30063
2.64559
2.943
3.19797
3.41524
3.59906
3.75305
3.88028
3.9832
4.06384
4.12378
4.16428
4.18623
4.1902
4.17642
4.14479
4.09492
4.02606
3.93716
3.82685
3.69347
3.5351
3.34965
3.13483
2.88825
2.60744
2.29
1.93371
1.53665
1.09728
0.614566
0.0880304
-0.482158
-1.0951