/*--------------------------------*- C++ -*----------------------------------*\
| =========                 |                                                 |
| \\      /  F ield         | OpenFOAM: The Open Source CFD Toolbox           |
|  \\    /   O peration     | Version:  2012                                  |
|   \\  /    A nd           | Website:  www.openfoam.com                      |
|    \\/     M anipulation  |                                                 |
\*---------------------------------------------------------------------------*/
FoamFile
{
    version     2.0;
    format      ascii;
    class       volVectorField;
    location    "1";
    object      U;
}
// * * * * * * * * * * * * * * * * * * * * * * * * * * * * * * * * * * * * * //

dimensions      [0 1 -1 0 0 0 0];


internalField   nonuniform List<vector> 
42400
(
(-16.6049 15.0315 3.87911e-17)
(-50.6205 49.1717 6.24892e-17)
(-80.3118 76.6032 -6.36634e-17)
(-89.932 89.2674 0)
(-82.7674 85.2055 0)
(-66.8 73.5238 -7.65033e-19)
(-48.1364 59.5224 0)
(-29.4623 45.383 7.61475e-19)
(-12.0634 32.1019 0)
(3.10421 20.4492 7.51915e-19)
(15.4879 10.9325 7.41627e-19)
(25.1264 3.64714 -7.24525e-19)
(32.3636 -1.569 -1.12421e-16)
(37.5322 -4.9799 1.14572e-16)
(41.0333 -6.98582 -6.12729e-19)
(43.0947 -8.0335 0)
(43.918 -8.55131 0)
(43.7315 -8.88747 0)
(42.8004 -9.2466 0)
(41.3216 -9.65745 0)
(39.389 -10.0177 0)
(37.0616 -10.1768 -4.13346e-19)
(34.3928 -10.0481 -5.42806e-17)
(31.4804 -9.67755 8.44232e-18)
(28.4749 -9.22008 4.65423e-17)
(25.5391 -8.81127 -1.58123e-19)
(22.7699 -8.47245 -1.18421e-19)
(20.1663 -8.12821 1.65353e-19)
(17.6748 -7.67686 0)
(15.2582 -7.05282 0)
(12.9323 -6.2445 6.09215e-18)
(10.7586 -5.27459 -6.15605e-18)
(8.83275 -4.17998 -9.53332e-20)
(7.23426 -3.02327 2.11792e-18)
(6.02664 -1.84614 -1.9839e-18)
(5.2265 -0.703136 0)
(4.81264 0.354275 0)
(4.73018 1.28578 0)
(4.89685 2.06596 0)
(5.21814 2.6741 6.86418e-18)
(5.60698 3.119 -6.89307e-18)
(5.98231 3.41705 6.3384e-18)
(6.27822 3.58441 -7.61416e-19)
(6.45753 3.63489 -1.11027e-17)
(6.51328 3.5749 5.19095e-18)
(6.4624 3.40645 -4.34221e-18)
(6.33948 3.1327 8.59856e-18)
(6.18013 2.75743 -3.99728e-18)
(6.01394 2.29654 -2.21632e-19)
(5.8636 1.78067 3.43743e-18)
(5.73725 1.24243 -6.67658e-18)
(5.63266 0.710799 -2.48696e-19)
(5.54505 0.208205 3.44654e-18)
(5.47098 -0.251983 -3.47318e-19)
(5.40971 -0.664609 0)
(5.36275 -1.03011 0)
(5.33238 -1.35162 0)
(5.32054 -1.6329 3.00768e-19)
(5.32815 -1.87711 2.90369e-19)
(5.35512 -2.08643 0)
(5.40063 -2.26216 4.46244e-18)
(5.46348 -2.40497 -4.64812e-18)
(5.54243 -2.5152 -4.10713e-18)
(5.63636 -2.59312 4.03064e-18)
(5.74431 -2.63918 0)
(5.86553 -2.6541 0)
(5.99936 -2.63902 -3.40065e-18)
(6.14514 -2.59552 3.32425e-18)
(6.30211 -2.52567 3.79206e-19)
(6.46925 -2.43202 0)
(6.64521 -2.3177 0)
(6.82811 -2.1864 3.23473e-19)
(7.01555 -2.04249 3.06148e-19)
(7.20454 -1.89105 0)
(7.39157 -1.73786 2.73643e-19)
(7.57267 -1.58946 2.05733e-18)
(7.74349 -1.45297 -1.99549e-18)
(7.89973 -1.33547 -4.59823e-19)
(8.0349 -1.2466 -1.71006e-18)
(8.15431 -1.18838 -1.54061e-18)
(-10.0004 7.4833 0)
(-14.972 13.7201 1.19559e-16)
(-8.1233 13.108 -1.22441e-16)
(2.41173 12.0345 0)
(10.1121 13.758 0)
(15.3159 15.751 1.04841e-16)
(18.4331 16.7703 -1.06244e-16)
(19.9933 16.4083 -7.45813e-19)
(20.5296 14.5283 0)
(20.6706 10.996 -7.35812e-19)
(21.1522 5.62889 -7.2628e-19)
(22.6313 -1.71581 -6.62873e-17)
(25.2678 -10.7835 9.44103e-18)
(28.2874 -20.3388 6.03146e-17)
(30.2353 -28.2834 3.94296e-17)
(29.9835 -32.9645 -3.97184e-17)
(27.576 -34.3627 0)
(23.9678 -33.6194 -2.19908e-19)
(20.2748 -31.9944 0)
(17.1828 -30.2011 0)
(14.8018 -28.3536 0)
(12.7855 -26.2138 1.54392e-17)
(10.5982 -23.4622 1.56214e-18)
(7.83306 -19.9835 -1.68551e-17)
(4.48099 -16.0153 0)
(0.944717 -12.0295 4.57786e-19)
(-2.23743 -8.44882 1.20542e-19)
(-4.71354 -5.49106 -1.68678e-19)
(-6.40447 -3.20595 1.00211e-17)
(-7.38014 -1.56231 -1.01404e-17)
(-7.76125 -0.478493 3.50572e-19)
(-7.64264 0.131624 3.09192e-19)
(-7.09163 0.362519 7.16728e-18)
(-6.21773 0.324393 -7.40425e-18)
(-5.14359 0.121919 -6.74898e-18)
(-3.98666 -0.151046 6.82656e-18)
(-2.84646 -0.419726 0)
(-1.79917 -0.63542 -1.50921e-19)
(-0.894239 -0.774089 0)
(-0.145195 -0.831779 -2.51353e-19)
(0.457438 -0.819209 4.70421e-18)
(0.935296 -0.755714 -4.94879e-18)
(1.31822 -0.663242 3.3756e-19)
(1.64024 -0.55909 -3.16395e-19)
(1.9368 -0.451719 1.06347e-19)
(2.2313 -0.35111 -2.74013e-19)
(2.53642 -0.268318 2.5474e-19)
(2.85943 -0.207947 3.1974e-18)
(3.19641 -0.173421 -3.19868e-18)
(3.5339 -0.170965 0)
(3.85964 -0.201641 1.53972e-19)
(4.16483 -0.262259 3.78245e-19)
(4.44435 -0.348414 2.35585e-18)
(4.69714 -0.455305 -2.34632e-18)
(4.92543 -0.578321 -2.78774e-19)
(5.13349 -0.713252 4.58323e-18)
(5.3263 -0.856221 -5.0644e-18)
(5.50859 -1.00349 -3.00645e-19)
(5.68425 -1.15133 -2.90205e-19)
(5.85611 -1.29595 4.23036e-18)
(6.02592 -1.43367 -4.16391e-18)
(6.19456 -1.56104 2.59659e-19)
(6.36225 -1.67503 2.25847e-19)
(6.52878 -1.77322 0)
(6.69366 -1.8538 -3.08054e-18)
(6.8563 -1.91564 7.40627e-20)
(7.016 -1.95819 3.67454e-18)
(7.172 -1.98142 0)
(7.32335 -1.98571 -7.37376e-19)
(7.46886 -1.97178 3.42492e-19)
(7.60699 -1.94065 2.64527e-18)
(7.73578 -1.89366 -2.89992e-18)
(7.85285 -1.83258 -2.68869e-18)
(7.95553 -1.75975 2.59804e-18)
(8.04117 -1.67822 -5.40446e-19)
(8.10747 -1.59188 2.0228e-18)
(8.15295 -1.50533 -1.48303e-18)
(8.17709 -1.42379 4.59903e-19)
(8.18065 -1.35308 -2.12964e-18)
(8.17033 -1.28811 1.65708e-18)
(13.5552 -10.5267 4.2149e-17)
(50.1606 -31.3806 -3.96408e-19)
(72.8436 -51.4337 1.47029e-20)
(76.4324 -48.4586 -3.84268e-19)
(58.4726 -33.0145 0)
(34.4164 -11.2505 9.4569e-17)
(12.7236 9.27148 -1.87336e-16)
(-3.68086 25.7502 9.26354e-17)
(-15.3765 38.3112 -8.18274e-17)
(-23.4149 47.6848 6.82022e-18)
(-28.2359 54.1385 7.80295e-17)
(-29.8817 57.4847 -1.58451e-20)
(-28.425 57.5075 -8.59876e-21)
(-24.3681 54.3744 -5.52139e-17)
(-18.7389 48.8721 5.62926e-17)
(-12.7724 42.1416 -3.16007e-19)
(-7.40705 35.1269 4.34093e-17)
(-3.09122 28.3589 -3.08149e-18)
(0.163777 21.9704 -3.98976e-17)
(2.40907 16.0264 -6.42758e-19)
(3.70449 10.4936 5.88647e-19)
(4.19489 5.26971 5.33554e-19)
(4.14622 0.276883 0)
(3.88781 -4.42652 -8.11345e-20)
(3.7251 -8.65033 -2.38316e-17)
(3.86275 -12.1671 4.58922e-17)
(4.3463 -14.7789 -2.26319e-17)
(5.07141 -16.3539 1.88113e-17)
(5.87502 -16.8692 -1.90332e-17)
(6.6373 -16.4438 -1.4959e-17)
(7.29506 -15.2848 2.71715e-17)
(7.8374 -13.6658 -2.20491e-18)
(8.27129 -11.8476 -1.06729e-17)
(8.59143 -10.0076 0)
(8.78844 -8.26091 0)
(8.85455 -6.67381 -1.88041e-19)
(8.7924 -5.27651 0)
(8.61652 -4.07574 1.2312e-19)
(8.34851 -3.065 2.96687e-18)
(8.01882 -2.23014 -5.33911e-18)
(7.65588 -1.55149 2.80859e-18)
(7.28255 -1.00766 0)
(6.91996 -0.577603 0)
(6.58333 -0.242149 1.90643e-18)
(6.28237 0.0124359 -1.71749e-18)
(6.02439 0.196266 -6.85604e-20)
(5.81651 0.320769 0)
(5.66219 0.395679 0)
(5.56041 0.427144 1.89629e-18)
(5.50633 0.420956 -1.88698e-18)
(5.49335 0.383404 -1.53907e-19)
(5.51501 0.320552 0)
(5.56601 0.237831 -2.12482e-18)
(5.64255 0.139774 1.9089e-18)
(5.74215 0.0300102 -3.55167e-18)
(5.86306 -0.0885242 3.85267e-18)
(6.00362 -0.213278 -3.50566e-18)
(6.16172 -0.341814 7.45133e-18)
(6.33453 -0.471659 -7.35236e-18)
(6.51848 -0.600295 7.12031e-21)
(6.70946 -0.725263 3.5573e-18)
(6.90318 -0.844317 3.46594e-18)
(7.09543 -0.955571 -3.63029e-18)
(7.28244 -1.0576 0)
(7.46099 -1.14946 2.76689e-18)
(7.62855 -1.23066 -3.85268e-20)
(7.78322 -1.30102 -3.76757e-18)
(7.92362 -1.36054 0)
(8.04868 -1.40927 6.93602e-19)
(8.15744 -1.44712 2.29559e-18)
(8.24884 -1.47381 -2.26189e-18)
(8.32159 -1.4889 0)
(8.37426 -1.49192 0)
(8.40549 -1.48264 -2.81132e-19)
(8.41453 -1.46145 2.66821e-19)
(8.40174 -1.42969 1.48488e-18)
(8.36923 -1.38981 -2.39784e-18)
(8.32109 -1.3454 0)
(8.26322 -1.30041 4.28454e-19)
(8.20853 -1.25914 1.59954e-18)
(5.03892 -3.44173 5.42738e-17)
(1.81032 -3.04249 -8.20429e-17)
(-8.14283 2.04084 4.24674e-17)
(-14.1039 1.27452 4.38548e-17)
(-12.3941 -4.12565 -4.45082e-17)
(-7.7203 -10.3737 0)
(-2.71092 -15.071 8.53189e-17)
(1.68065 -17.5697 -8.70726e-17)
(5.27712 -18.1735 8.04117e-17)
(8.23001 -17.3535 -8.19941e-17)
(10.7538 -15.5939 7.40814e-17)
(13.0223 -13.3486 -1.4474e-16)
(15.0529 -11.0142 1.37334e-16)
(16.564 -8.76009 -1.30372e-16)
(16.966 -6.36756 1.23953e-16)
(15.7625 -3.40425 -6.05488e-17)
(13.1605 0.308374 -5.48313e-17)
(10.2032 4.53524 1.05206e-16)
(8.06878 8.8472 -5.18118e-17)
(6.93496 13.3001 6.24803e-19)
(5.96643 18.098 -5.55059e-19)
(4.39853 23.0078 -3.53946e-17)
(2.40596 27.0967 3.54503e-17)
(0.914215 29.3035 4.11239e-19)
(0.793293 29.2172 0)
(2.33928 27.1641 3.00269e-19)
(5.24819 23.7849 0)
(8.80243 19.778 4.46782e-18)
(12.152 15.8242 -2.97453e-18)
(14.633 12.4491 -1.18048e-18)
(15.9586 9.89203 1.91804e-18)
(16.193 8.11771 -2.08241e-18)
(15.5939 6.94349 3.31349e-19)
(14.465 6.16403 1.94602e-19)
(13.0698 5.61545 2.82475e-18)
(11.5998 5.18792 -2.98678e-18)
(10.1783 4.81657 0)
(8.87673 4.46608 -1.82752e-18)
(7.73225 4.11871 1.86471e-18)
(6.76022 3.76611 4.43469e-20)
(5.96242 3.40578 9.53234e-20)
(5.33197 3.03953 0)
(4.85662 2.67257 0)
(4.52075 2.31166 0)
(4.30742 1.96432 1.25535e-20)
(4.19802 1.63721 4.91178e-19)
(4.17415 1.33557 -4.21643e-19)
(4.21846 1.06241 0)
(4.31529 0.818813 0)
(4.45137 0.604249 1.0292e-18)
(4.61641 0.416865 -9.68296e-19)
(4.80315 0.2538 1.22882e-18)
(5.00702 0.111555 -8.84649e-19)
(5.22536 -0.0136108 1.45377e-19)
(5.45653 -0.125287 -1.26848e-18)
(5.69901 -0.226605 1.61542e-18)
(5.95076 -0.320029 -2.98489e-18)
(6.20886 -0.407289 2.7756e-18)
(6.46951 -0.489441 0)
(6.72824 -0.567012 -1.75899e-19)
(6.98029 -0.640208 -3.04427e-18)
(7.22105 -0.709106 1.48761e-19)
(7.44645 -0.773826 6.12937e-18)
(7.65326 -0.834621 -5.69411e-18)
(7.83919 -0.891907 2.53689e-18)
(8.00292 -0.946216 2.81567e-18)
(8.14398 -0.998092 -2.0651e-18)
(8.26255 -1.04794 -3.2278e-19)
(8.35914 -1.09588 -2.59886e-18)
(8.43429 -1.14154 2.5152e-18)
(8.48834 -1.18404 -6.04007e-19)
(8.52128 -1.22193 -2.58673e-18)
(8.53291 -1.25337 2.24185e-18)
(8.52314 -1.27647 0)
(8.49266 -1.28973 -2.01997e-18)
(8.44348 -1.29253 5.27326e-19)
(8.37944 -1.28551 4.16182e-18)
(8.30603 -1.27073 -1.77903e-18)
(8.22975 -1.25197 1.6575e-18)
(8.16453 -1.22592 -1.61519e-18)
(3.52197 -3.62058 -2.5158e-17)
(2.4039 -3.9964 0)
(-5.33359 1.11418 0)
(-11.9457 6.47661 -2.52436e-19)
(-13.9113 9.7964 0)
(-13.576 11.9236 0)
(-12.3914 13.6461 0)
(-11.2397 15.2897 -6.9026e-19)
(-10.6825 16.963 0)
(-11.0801 18.7294 6.24268e-19)
(-12.6413 20.6834 -6.20502e-17)
(-15.4845 22.9565 1.25437e-16)
(-19.5678 25.5902 -6.26739e-17)
(-24.3578 28.3613 0)
(-28.5331 30.5123 -1.18595e-20)
(-29.8038 30.7153 5.38537e-19)
(-25.5984 27.4845 0)
(-15.0877 20.4718 -5.0361e-17)
(-0.92722 11.5491 9.87492e-17)
(11.3405 4.41267 -4.46553e-18)
(16.648 2.37187 -4.29507e-17)
(13.91 6.1061 1.78446e-20)
(6.493 13.0102 0)
(-0.523931 18.9555 2.86702e-17)
(-3.85845 21.1323 -3.00893e-17)
(-3.42378 19.5247 2.68288e-17)
(-1.02648 15.9278 -2.75778e-17)
(1.59943 12.1193 -2.30611e-17)
(3.57168 8.9759 2.32134e-17)
(4.66057 6.66725 0)
(4.9641 5.07333 1.50222e-17)
(4.71169 3.98808 -1.51741e-17)
(4.15317 3.20648 -2.24999e-19)
(3.49225 2.57681 8.40587e-18)
(2.85973 2.01745 -8.67026e-18)
(2.32054 1.50524 -6.24414e-22)
(1.89654 1.04673 1.15509e-19)
(1.58927 0.652639 3.74849e-18)
(1.39469 0.326051 -3.76679e-18)
(1.30725 0.0605902 -2.30786e-18)
(1.32026 -0.154261 4.40852e-19)
(1.42443 -0.328733 1.91242e-18)
(1.6067 -0.471607 0)
(1.85055 -0.590261 -3.40179e-20)
(2.13908 -0.689746 3.56299e-19)
(2.45628 -0.773698 -5.30186e-19)
(2.78889 -0.844318 5.24656e-20)
(3.1269 -0.903063 6.73282e-20)
(3.46378 -0.95115 0)
(3.79619 -0.98979 3.42369e-20)
(4.12334 -1.02029 -7.45443e-19)
(4.44606 -1.04405 7.27177e-19)
(4.76587 -1.06242 -2.64271e-20)
(5.08406 -1.0767 -1.06177e-18)
(5.40106 -1.08793 7.42619e-19)
(5.71602 -1.09698 -1.17214e-18)
(6.02678 -1.10443 -1.43206e-18)
(6.33008 -1.1107 2.58606e-18)
(6.62197 -1.11605 -2.59219e-18)
(6.89824 -1.12072 2.72946e-18)
(7.15498 -1.12494 0)
(7.38889 -1.12905 -1.77003e-19)
(7.59768 -1.13352 -2.6918e-18)
(7.78013 -1.13892 2.29132e-18)
(7.93607 -1.14593 6.62681e-19)
(8.06632 -1.15524 0)
(8.17233 -1.16746 2.52658e-18)
(8.25594 -1.183 -2.16765e-18)
(8.31901 -1.20192 -3.13926e-19)
(8.36308 -1.22382 -2.89589e-19)
(8.38921 -1.24774 5.75335e-19)
(8.39795 -1.27216 1.13129e-20)
(8.38959 -1.29508 -2.38924e-18)
(8.36463 -1.31436 2.06792e-18)
(8.32438 -1.32799 -2.43312e-19)
(8.27142 -1.3346 0)
(8.20977 -1.33373 -2.25045e-18)
(8.14451 -1.32615 1.73811e-18)
(8.08168 -1.31286 0)
(8.03122 -1.29043 -1.55881e-18)
(6.16256 -4.18973 -6.60947e-19)
(20.9225 -10.3586 2.54261e-17)
(32.854 -17.5391 -3.17527e-17)
(48.6606 -21.4747 6.82738e-17)
(63.3112 -25.322 -3.65403e-17)
(74.5194 -25.0887 -3.83875e-19)
(80.4365 -21.0614 -4.47382e-17)
(80.7546 -14.5459 4.66785e-17)
(76.3357 -7.08132 2.75306e-19)
(68.9993 -0.0563311 -3.85725e-19)
(60.768 5.76722 4.59276e-17)
(53.1384 10.29 4.37168e-17)
(46.9944 13.6091 -9.29057e-17)
(42.9938 15.7115 8.5055e-17)
(41.5679 16.3175 -1.67052e-16)
(42.7989 15.1316 8.17583e-17)
(45.977 12.189 0)
(49.1883 8.05771 0)
(50.0166 3.71037 -6.01302e-17)
(46.7781 0.0967503 5.9933e-18)
(39.1734 -2.04365 5.43676e-17)
(28.1335 -2.21382 -4.20315e-17)
(15.3927 -0.453683 7.91807e-17)
(3.119 2.39526 -3.65402e-17)
(-6.57593 4.87389 -2.55044e-17)
(-12.2132 5.74543 5.09809e-18)
(-13.4446 4.64059 2.19334e-17)
(-11.3147 2.0755 -1.0849e-20)
(-7.87262 -0.934108 6.0808e-21)
(-4.87699 -3.42386 -3.66255e-21)
(-3.03509 -4.93042 0)
(-2.27942 -5.5169 -5.94072e-18)
(-2.22652 -5.49249 1.07694e-17)
(-2.45222 -5.1752 -4.80898e-18)
(-2.6401 -4.79591 0)
(-2.62999 -4.47479 2.65223e-18)
(-2.39456 -4.24383 -2.64184e-18)
(-1.98124 -4.08328 0)
(-1.45939 -3.9587 0)
(-0.888847 -3.84285 9.60219e-19)
(-0.310083 -3.72089 -1.02284e-18)
(0.25394 -3.58831 -8.96697e-20)
(0.792954 -3.44791 0)
(1.30295 -3.30322 -1.45446e-19)
(1.7836 -3.15875 1.81242e-19)
(2.2368 -3.01865 2.33073e-20)
(2.66573 -2.88609 -3.2933e-20)
(3.07426 -2.76311 5.34083e-20)
(3.46638 -2.65066 0)
(3.84575 -2.54888 -6.53732e-19)
(4.21525 -2.45728 1.34108e-18)
(4.57669 -2.37496 -7.66218e-19)
(4.93062 -2.30082 -1.09128e-19)
(5.27633 -2.2337 -1.07911e-18)
(5.61209 -2.1724 5.53304e-20)
(5.93525 -2.11587 2.09068e-18)
(6.24266 -2.0632 -7.82826e-19)
(6.53106 -2.01362 0)
(6.79738 -1.96654 0)
(7.03916 -1.92157 1.50313e-19)
(7.25473 -1.87848 1.52305e-19)
(7.44337 -1.83726 0)
(7.60536 -1.79805 2.3477e-18)
(7.74187 -1.76112 -2.30098e-18)
(7.85476 -1.72683 -2.80605e-18)
(7.94634 -1.69556 -3.27043e-19)
(8.01905 -1.66766 2.09721e-18)
(8.07517 -1.64334 -2.37873e-18)
(8.11658 -1.62264 2.32336e-18)
(8.14461 -1.60527 9.5605e-21)
(8.16004 -1.59065 1.92119e-18)
(8.1633 -1.5778 -1.8732e-18)
(8.15479 -1.5655 -1.7983e-18)
(8.13535 -1.55236 2.25133e-18)
(8.10665 -1.53711 -1.66615e-18)
(8.07131 -1.51876 1.85402e-18)
(8.03273 -1.4969 -1.75337e-18)
(7.99474 -1.47167 3.37482e-18)
(7.96159 -1.44271 -2.4974e-20)
(7.93763 -1.41178 -2.62069e-20)
(-1.73485 1.46839 -2.17506e-17)
(4.23716 -9.82198 -2.18661e-19)
(30.0805 -21.8071 2.40263e-17)
(57.9078 -46.0118 -4.24795e-17)
(84.2231 -63.9581 1.85447e-17)
(99.105 -76.4851 -3.13391e-18)
(96.2216 -78.8209 7.00154e-18)
(74.9184 -70.2098 -3.19185e-18)
(42.9949 -55.198 1.42394e-17)
(13.1506 -40.6905 -1.43144e-17)
(-5.76725 -31.3886 2.0703e-17)
(-13.8183 -27.1276 -2.06619e-17)
(-16.3197 -25.1707 2.42657e-17)
(-17.6047 -23.2619 -2.48704e-17)
(-19.9071 -20.3425 -1.27624e-19)
(-24.4635 -16.2363 -1.07962e-19)
(-31.3782 -11.22 5.05766e-17)
(-39.5558 -6.05167 -5.15503e-17)
(-47.2195 -1.73004 1.14891e-19)
(-52.8738 1.06507 9.07456e-19)
(-56.0315 2.35572 4.12817e-17)
(-56.8824 2.57967 -4.0363e-17)
(-55.69 2.18718 0)
(-52.4642 1.24588 -6.4966e-19)
(-47.1762 -0.348611 0)
(-40.0646 -2.5833 0)
(-31.9379 -5.23477 -4.3921e-19)
(-24.0396 -7.91954 -1.25326e-17)
(-17.5292 -10.1565 1.3073e-17)
(-12.8144 -11.652 9.20015e-18)
(-9.57619 -12.476 -9.29424e-18)
(-7.28333 -12.7944 1.07662e-20)
(-5.53823 -12.7309 -1.50546e-20)
(-4.13082 -12.3765 0)
(-2.95244 -11.8093 -2.40403e-19)
(-1.93462 -11.108 0)
(-1.03871 -10.3419 0)
(-0.247661 -9.56047 -1.26544e-19)
(0.448923 -8.79636 0)
(1.06065 -8.06964 0)
(1.59813 -7.39168 1.38632e-18)
(2.07312 -6.76787 -1.36968e-18)
(2.4981 -6.20156 0)
(2.88369 -5.69273 0)
(3.23931 -5.23982 0)
(3.57309 -4.83998 -6.94042e-20)
(3.8916 -4.48947 3.29543e-20)
(4.19974 -4.1841 8.23113e-19)
(4.50086 -3.91944 -8.56468e-19)
(4.79683 -3.69103 9.1007e-19)
(5.08826 -3.49456 -1.01939e-18)
(5.37469 -3.32589 1.2037e-19)
(5.65481 -3.18113 6.81074e-20)
(5.92666 -3.0566 0)
(6.18787 -2.9489 0)
(6.43588 -2.85487 -9.83201e-19)
(6.6682 -2.77166 -1.82613e-19)
(6.88259 -2.69671 1.14321e-18)
(7.0773 -2.62784 -1.20328e-18)
(7.25125 -2.56327 1.18886e-18)
(7.40412 -2.50162 2.3041e-18)
(7.53634 -2.44191 5.07732e-20)
(7.64901 -2.38351 -4.73248e-18)
(7.74376 -2.32608 2.41879e-18)
(7.82246 -2.2695 1.52084e-19)
(7.88707 -2.21383 3.03009e-19)
(7.93933 -2.1592 2.36688e-18)
(7.98069 -2.10573 -4.63576e-18)
(8.01216 -2.05352 2.26782e-18)
(8.03443 -2.00253 2.80425e-19)
(8.04792 -1.9526 2.15082e-18)
(8.05312 -1.90341 -2.35491e-18)
(8.05076 -1.85453 0)
(8.04205 -1.80551 -2.4681e-19)
(8.0287 -1.75595 0)
(8.01284 -1.70566 1.79406e-18)
(7.99668 -1.65469 -2.17674e-20)
(7.98235 -1.60321 -1.66591e-18)
(7.97196 -1.55129 1.17678e-18)
(7.96738 -1.50438 3.52672e-19)
(-1.55924 2.43017 -3.65814e-17)
(5.13824 2.18194 5.50761e-17)
(19.4964 -5.75604 2.33536e-19)
(27.0599 -9.48165 4.75435e-17)
(20.6638 -9.73571 -4.87149e-17)
(6.74554 -8.43108 4.0381e-17)
(-6.88401 -8.94818 -7.87092e-17)
(-15.7803 -11.9555 3.77905e-17)
(-19.8754 -16.9507 -3.52157e-17)
(-19.29 -23.0866 3.53071e-17)
(-13.8077 -28.8477 0)
(-7.03015 -33.9236 -1.79198e-19)
(-3.92299 -39.0159 -2.7648e-19)
(-4.66719 -42.9777 0)
(-6.55669 -44.8056 0)
(-8.37741 -45.6009 0)
(-10.0451 -46.0382 0)
(-11.3416 -45.7136 2.64064e-19)
(-12.1511 -44.4981 0)
(-12.4831 -42.6216 -3.57962e-17)
(-12.3442 -40.2277 3.45454e-17)
(-11.6697 -37.4861 6.04522e-17)
(-10.4499 -34.5682 -6.21211e-17)
(-8.66489 -31.696 -5.04606e-17)
(-6.39186 -29.0866 5.20595e-17)
(-3.81078 -26.8803 -4.12279e-17)
(-1.18551 -25.0482 4.20974e-17)
(1.18105 -23.4545 -3.27704e-17)
(3.14472 -21.9254 4.28948e-18)
(4.75042 -20.5168 2.89594e-17)
(6.07818 -19.1978 0)
(7.12653 -17.9174 2.43129e-19)
(7.86821 -16.6221 1.94822e-19)
(8.30062 -15.2809 0)
(8.45468 -13.9027 2.39346e-19)
(8.39414 -12.5309 0)
(8.19103 -11.2202 0)
(7.90537 -10.0157 5.0366e-18)
(7.58485 -8.94331 -8.79512e-18)
(7.26237 -8.01018 3.92697e-18)
(6.95891 -7.21022 2.52108e-18)
(6.68723 -6.53037 -2.56505e-18)
(6.4552 -5.95531 -3.35226e-20)
(6.26738 -5.47022 0)
(6.12596 -5.06173 1.48271e-18)
(6.03116 -4.71831 -1.34589e-18)
(5.98154 -4.43003 0)
(5.97426 -4.18838 0)
(6.00542 -3.986 -1.10164e-18)
(6.07041 -3.81652 1.24011e-18)
(6.16416 -3.6744 1.3097e-18)
(6.28141 -3.55476 -1.22796e-18)
(6.4168 -3.45328 -1.26187e-18)
(6.56501 -3.36608 2.39253e-18)
(6.72085 -3.28967 -1.19743e-18)
(6.87938 -3.22091 -3.07919e-19)
(7.03604 -3.15702 0)
(7.18689 -3.09564 1.63908e-19)
(7.32869 -3.03486 -1.10469e-18)
(7.45909 -2.97326 2.36737e-18)
(7.57667 -2.9099 -1.25135e-18)
(7.68083 -2.84429 0)
(7.7717 -2.7763 -1.54607e-19)
(7.8499 -2.70608 0)
(7.91631 -2.63399 -1.52177e-19)
(7.9719 -2.56045 -1.52586e-19)
(8.01758 -2.48594 -2.98649e-19)
(8.05413 -2.41086 -2.31343e-18)
(8.08222 -2.33558 1.97567e-18)
(8.10249 -2.26034 -2.75635e-19)
(8.11562 -2.18529 -2.12799e-18)
(8.12246 -2.11049 2.5909e-18)
(8.12406 -2.03596 -1.9878e-18)
(8.12166 -1.96175 1.93299e-18)
(8.11655 -1.88796 -2.07083e-18)
(8.10995 -1.81487 1.56592e-18)
(8.10286 -1.74287 1.69072e-18)
(8.0961 -1.67229 -1.63882e-18)
(8.09049 -1.60392 3.91801e-19)
(8.08706 -1.54466 -3.77529e-19)
(7.67991 -3.71055 5.36463e-18)
(7.13948 -3.00703 7.3194e-18)
(-4.48653 2.05574 -1.48344e-17)
(-16.7925 7.36204 1.26831e-17)
(-25.3461 10.5646 -5.7702e-18)
(-31.7327 13.5733 -1.75695e-19)
(-36.462 16.915 1.03732e-18)
(-39.6919 20.6516 -1.32268e-18)
(-41.8829 24.5787 5.69503e-19)
(-43.7651 28.7491 4.16927e-20)
(-46.0343 33.6413 2.88184e-19)
(-48.6468 38.8837 5.0323e-19)
(-50.346 42.9351 -5.26331e-19)
(-49.9102 45.0239 2.83665e-18)
(-47.5365 45.9701 -2.89303e-18)
(-44.0639 46.5832 -3.9274e-18)
(-40.1089 46.8652 4.00151e-18)
(-36.0082 46.6932 -2.50775e-19)
(-31.9095 46.0842 0)
(-27.8327 45.071 4.45987e-18)
(-23.7391 43.6565 -4.36291e-18)
(-19.5921 41.8719 -2.99466e-19)
(-15.3866 39.7821 -3.54359e-18)
(-11.1781 37.5017 3.85535e-18)
(-7.07878 35.1212 -5.54047e-19)
(-3.19826 32.7066 0)
(0.391799 30.3263 1.92578e-19)
(3.62559 28.0008 -5.71789e-20)
(6.44596 25.7791 3.94167e-18)
(8.78882 23.557 -4.14441e-18)
(10.6186 21.2843 -3.91152e-18)
(11.9067 18.8798 3.62158e-18)
(12.6764 16.3242 -3.55346e-19)
(12.9734 13.709 3.3681e-18)
(12.8519 11.188 -6.06422e-18)
(12.3826 8.88794 2.8243e-18)
(11.6625 6.87428 1.75831e-18)
(10.8049 5.15405 -1.8327e-18)
(9.91643 3.69677 -7.64995e-20)
(9.07884 2.46009 1.29669e-20)
(8.34155 1.40343 3.79441e-20)
(7.72654 0.496293 -7.21563e-20)
(7.23628 -0.282674 -2.09742e-19)
(6.86235 -0.948212 3.15852e-19)
(6.59182 -1.51125 -7.61373e-19)
(6.41081 -1.98106 6.9537e-19)
(6.30623 -2.36629 0)
(6.26622 -2.6754 1.13995e-18)
(6.28011 -2.91698 -1.12898e-18)
(6.33828 -3.09961 1.13492e-18)
(6.43199 -3.23166 -1.59701e-20)
(6.55324 -3.32106 4.90628e-20)
(6.69466 -3.37511 4.09775e-20)
(6.84943 -3.40026 3.43111e-20)
(7.01125 -3.40201 -1.33996e-18)
(7.17445 -3.38488 6.94967e-20)
(7.33401 -3.35246 0)
(7.48579 -3.30754 -1.54437e-18)
(7.62655 -3.25232 1.19705e-18)
(7.75412 -3.18856 0)
(7.86728 -3.11777 -1.52769e-18)
(7.96571 -3.04126 1.15532e-18)
(8.04976 -2.96025 0)
(8.12023 -2.87582 -1.66217e-19)
(8.1782 -2.78897 0)
(8.22484 -2.70054 -2.31873e-18)
(8.26131 -2.61126 4.97293e-18)
(8.28873 -2.52168 -2.35561e-18)
(8.30817 -2.43224 2.83894e-19)
(8.32066 -2.34323 2.75719e-19)
(8.32721 -2.25486 -2.12988e-18)
(8.32879 -2.16728 1.81639e-18)
(8.32632 -2.08063 -2.49025e-19)
(8.32061 -1.9951 -2.38979e-19)
(8.31229 -1.91092 4.59372e-19)
(8.30183 -1.82847 2.20939e-19)
(8.2895 -1.74814 1.87886e-18)
(8.2756 -1.67023 -2.42997e-20)
(8.26063 -1.59585 -1.73413e-18)
(8.24565 -1.53211 -3.66203e-19)
(-8.37917 1.50306 0)
(-18.4441 1.41179 2.30502e-19)
(-21.4949 -0.849294 6.31585e-20)
(-20.4434 -5.97222 6.08382e-17)
(-14.7908 -10.5011 -1.19369e-16)
(-5.28788 -15.8846 1.11606e-16)
(5.87372 -21.2907 -5.42667e-17)
(16.5516 -26.0469 0)
(25.6475 -29.7299 -3.43451e-19)
(33.0408 -32.2643 3.87417e-17)
(39.157 -33.85 -3.98114e-17)
(44.4843 -34.7636 -3.28908e-17)
(48.8749 -34.7697 6.38773e-17)
(51.8122 -33.596 -2.98899e-18)
(52.9502 -31.2573 -2.89258e-18)
(52.3843 -27.9682 -2.5519e-17)
(50.4207 -24.013 -1.66381e-19)
(47.3649 -19.6746 1.95925e-17)
(43.511 -15.2328 -1.97822e-17)
(39.1787 -10.9415 -1.71853e-19)
(34.7358 -7.02595 -1.34554e-19)
(30.5531 -3.67119 5.44996e-20)
(26.942 -1.00252 1.35781e-17)
(24.0895 0.921801 -1.67365e-18)
(22.0266 2.12587 -1.23365e-17)
(20.6292 2.72128 -1.50907e-19)
(19.6162 2.87334 9.27898e-18)
(18.5855 2.81306 -1.7839e-17)
(17.1117 2.79047 1.54919e-17)
(14.8068 3.03015 -7.0622e-18)
(11.5854 3.62809 0)
(7.83304 4.44783 7.81886e-18)
(4.28019 5.20728 -1.36396e-17)
(1.60019 5.62594 5.92525e-18)
(0.0805784 5.56895 -3.29688e-18)
(-0.408299 5.08443 3.34691e-18)
(-0.206513 4.32594 6.17826e-20)
(0.342986 3.4446 0)
(1.00169 2.54629 4.57204e-20)
(1.64504 1.6875 -6.4029e-20)
(2.22727 0.889761 7.68244e-20)
(2.7442 0.157504 -3.64204e-20)
(3.20847 -0.510341 4.08879e-20)
(3.63513 -1.11467 0)
(4.03685 -1.65516 0)
(4.42218 -2.13058 1.26501e-18)
(4.79586 -2.53958 -1.46897e-18)
(5.15949 -2.88161 -7.82239e-20)
(5.5124 -3.1576 -1.56234e-18)
(5.8526 -3.37025 3.26128e-18)
(6.17747 -3.52402 -1.47226e-18)
(6.48434 -3.62489 0)
(6.77085 -3.67991 1.73925e-18)
(7.03527 -3.69664 -1.61252e-18)
(7.27654 -3.68247 0)
(7.49423 -3.64413 1.68995e-18)
(7.68843 -3.58734 -1.57825e-18)
(7.8596 -3.51665 1.55552e-18)
(8.00853 -3.4356 -1.33037e-18)
(8.1363 -3.34686 0)
(8.24429 -3.25245 3.69874e-19)
(8.33406 -3.15398 1.73331e-19)
(8.40736 -3.05271 -1.40092e-18)
(8.46594 -2.94968 1.77118e-19)
(8.51156 -2.84578 1.33693e-18)
(8.54585 -2.74173 0)
(8.57033 -2.63812 1.53673e-19)
(8.58636 -2.53543 0)
(8.59514 -2.43403 0)
(8.59771 -2.33421 -2.23637e-18)
(8.59496 -2.23621 2.18027e-18)
(8.58762 -2.14021 1.80442e-18)
(8.57624 -2.04641 2.19684e-19)
(8.56125 -1.95501 -1.68753e-18)
(8.54294 -1.86623 -2.04357e-18)
(8.52151 -1.78033 1.7616e-18)
(8.49713 -1.69751 -2.0932e-19)
(8.47011 -1.61786 -1.57533e-18)
(8.44103 -1.54251 3.40322e-18)
(8.41115 -1.47801 -1.1019e-18)
(-4.68991 3.11343 7.24001e-17)
(-1.5213 10.0962 -5.3719e-17)
(7.47177 7.58479 -4.77077e-17)
(18.3099 11.5259 4.88076e-17)
(25.1956 13.3143 -6.68077e-20)
(30.3334 16.1454 -6.84322e-20)
(33.0667 18.9892 0)
(33.2506 21.465 2.53989e-17)
(31.5255 23.4996 -2.60585e-17)
(28.7234 24.878 0)
(25.5477 25.4054 -1.2694e-17)
(22.519 24.8964 2.25705e-17)
(19.9062 23.4 -2.94246e-18)
(17.7857 21.0448 -1.22921e-17)
(15.9596 18.1143 5.0128e-18)
(13.9732 15.0337 -1.73484e-19)
(11.2384 12.2754 3.05774e-19)
(7.36495 10.2211 0)
(2.57591 8.99343 -9.22971e-19)
(-2.27582 8.38502 7.81965e-19)
(-6.26458 8.01453 2.82e-19)
(-8.9417 7.55301 -1.39533e-19)
(-10.3552 6.83124 5.39601e-19)
(-10.7772 5.83237 8.37875e-19)
(-10.5041 4.64338 -8.22485e-19)
(-9.76243 3.34701 1.53683e-19)
(-8.71791 2.04212 1.89435e-18)
(-7.47667 0.802306 2.29593e-19)
(-6.11617 -0.292524 -4.52678e-18)
(-4.75177 -1.14272 -1.80079e-19)
(-3.4744 -1.65073 2.26606e-18)
(-2.33068 -1.77282 2.03135e-18)
(-1.31352 -1.53919 -2.15385e-18)
(-0.402297 -1.03848 0)
(0.396783 -0.381184 -1.68862e-20)
(1.04618 0.313502 -5.75391e-21)
(1.52305 0.944398 0)
(1.84135 1.44113 1.85662e-18)
(2.04494 1.75859 -1.88445e-18)
(2.19062 1.87284 -2.54961e-20)
(2.33274 1.78151 0)
(2.5118 1.49933 3.63956e-20)
(2.75239 1.05876 1.84118e-18)
(3.06467 0.50502 -1.80482e-18)
(3.4463 -0.1145 0)
(3.88688 -0.753614 -1.76192e-18)
(4.37024 -1.37248 2.04069e-18)
(4.87733 -1.93969 0)
(5.38839 -2.43361 0)
(5.88526 -2.84202 -1.12117e-19)
(6.35289 -3.16101 -1.1276e-19)
(6.78013 -3.39357 0)
(7.16019 -3.54782 1.85089e-18)
(7.4906 -3.63516 -1.94561e-18)
(7.77266 -3.66826 -1.89384e-18)
(8.01025 -3.65934 1.46801e-19)
(8.20853 -3.61901 3.6383e-18)
(8.3728 -3.55573 -3.5454e-18)
(8.50789 -3.47591 -1.7904e-19)
(8.61793 -3.38426 1.4656e-18)
(8.70636 -3.28416 -1.93521e-19)
(8.77611 -3.17814 0)
(8.82967 -3.06811 0)
(8.86923 -2.95558 1.45165e-18)
(8.8967 -2.84178 -1.60456e-18)
(8.91377 -2.72772 0)
(8.92192 -2.61425 1.66511e-19)
(8.92239 -2.50207 0)
(8.91623 -2.39176 1.19014e-18)
(8.90431 -2.28379 -1.16132e-18)
(8.88732 -2.17857 2.77179e-19)
(8.86579 -2.0764 2.34558e-18)
(8.84016 -1.97754 -2.02826e-18)
(8.81075 -1.8822 2.39472e-19)
(8.77783 -1.79054 0)
(8.74165 -1.7027 0)
(8.70245 -1.61871 0)
(8.66062 -1.53851 -1.75175e-18)
(8.61677 -1.46319 -1.58498e-19)
(8.57228 -1.39851 2.86816e-18)
(9.79922 -4.11983 1.12622e-18)
(17.9307 -6.76864 1.38411e-18)
(15.4044 -7.47756 -1.41531e-18)
(11.3593 -6.24624 8.7524e-19)
(8.84998 -6.39296 -8.80354e-19)
(6.43748 -6.45669 -1.98661e-21)
(3.21389 -6.28058 -1.97957e-20)
(-1.01794 -5.76516 0)
(-6.00051 -4.97951 1.04148e-19)
(-11.2639 -4.15175 0)
(-16.2119 -3.57136 -9.1524e-20)
(-20.2782 -3.50394 -1.02499e-17)
(-23.031 -4.13759 1.03479e-17)
(-24.1736 -5.56901 1.32847e-17)
(-23.5045 -7.80306 -1.32947e-17)
(-20.903 -10.7191 1.54336e-17)
(-16.4074 -14.0662 -1.6402e-17)
(-10.4057 -17.4903 0)
(-3.77086 -20.4812 0)
(2.14283 -22.3817 0)
(5.96184 -22.7253 -1.89043e-17)
(7.06598 -21.569 3.76118e-17)
(5.96478 -19.4136 -1.4929e-18)
(3.88 -16.8689 -3.3809e-17)
(1.99708 -14.3824 1.66708e-17)
(0.985771 -12.212 0)
(0.936349 -10.4027 2.84129e-19)
(1.58989 -8.90496 0)
(2.59382 -7.6361 -8.51861e-18)
(3.66188 -6.50621 8.40243e-18)
(4.61335 -5.44663 -3.1842e-20)
(5.35191 -4.41045 0)
(5.83373 -3.36932 4.53817e-18)
(6.04338 -2.31479 -8.40063e-18)
(5.98308 -1.25679 3.94665e-18)
(5.67015 -0.219029 -2.89481e-18)
(5.13824 0.765483 5.48009e-18)
(4.44094 1.65686 -2.58139e-18)
(3.6525 2.40998 0)
(2.86363 2.97786 0)
(2.17208 3.31784 0)
(1.66813 3.40029 1.68515e-18)
(1.41717 3.218 -4.97027e-18)
(1.44792 2.79167 3.20644e-18)
(1.74853 2.16883 0)
(2.27467 1.41533 -2.96317e-18)
(2.96323 0.602256 2.88298e-18)
(3.74634 -0.205707 2.74675e-18)
(4.56181 -0.957269 -2.43936e-19)
(5.35876 -1.61754 -5.74198e-20)
(6.09904 -2.16721 -5.78154e-20)
(6.75676 -2.60054 -2.51948e-18)
(7.31777 -2.92253 0)
(7.77939 -3.14585 0)
(8.14851 -3.28715 -2.07559e-18)
(8.43806 -3.36355 2.21899e-18)
(8.6629 -3.39027 0)
(8.83685 -3.37946 0)
(8.97111 -3.3403 1.2678e-19)
(9.07416 -3.27949 2.20771e-19)
(9.15212 -3.20201 0)
(9.20947 -3.11169 0)
(9.24952 -3.01161 -2.10762e-19)
(9.2749 -2.90433 -2.00749e-19)
(9.28774 -2.79207 1.65626e-18)
(9.28979 -2.67673 -2.85213e-18)
(9.28259 -2.55997 -1.31865e-19)
(9.2674 -2.44317 2.59254e-18)
(9.24531 -2.32752 -2.62473e-18)
(9.21723 -2.21396 2.34987e-18)
(9.18393 -2.10323 -4.4477e-19)
(9.14602 -1.99592 -1.0752e-18)
(9.10404 -1.89244 1.99447e-18)
(9.05844 -1.7931 -4.60172e-20)
(9.0096 -1.69809 -3.63865e-18)
(8.95784 -1.60752 1.95987e-18)
(8.9035 -1.52134 0)
(8.84699 -1.4395 3.87096e-19)
(8.78885 -1.36314 0)
(8.7306 -1.29702 -1.39373e-18)
(-1.63538 -0.340735 0)
(1.98933 -4.58719 6.99609e-20)
(10.907 -8.92984 -6.54684e-20)
(19.445 -16.0844 5.96659e-18)
(26.2607 -21.2863 -8.41814e-18)
(30.2601 -25.6202 2.2579e-18)
(31.1314 -28.3123 1.98944e-20)
(28.8575 -28.9837 0)
(23.7782 -27.7502 0)
(16.634 -25.0082 0)
(8.38383 -21.3215 9.24602e-20)
(-0.0432565 -17.1817 5.54632e-20)
(-7.80093 -12.9406 0)
(-14.0214 -8.94649 3.4973e-20)
(-17.8109 -5.63506 -2.03078e-19)
(-18.6272 -3.39112 1.7876e-17)
(-16.7359 -2.28357 -1.76741e-17)
(-13.2174 -2.05442 -1.97026e-20)
(-9.43306 -2.34709 0)
(-6.45408 -2.87653 8.31141e-21)
(-4.69025 -3.51282 -2.54101e-19)
(-3.848 -4.29023 1.11511e-17)
(-3.24836 -5.2033 -1.56535e-18)
(-2.30391 -6.25381 -9.67609e-18)
(-0.802261 -7.31362 -3.62271e-19)
(1.11809 -8.27593 -3.14117e-21)
(3.16031 -9.02991 -6.13494e-18)
(5.06374 -9.50371 5.91631e-18)
(6.68911 -9.67693 1.95207e-20)
(7.99366 -9.57123 1.95057e-19)
(8.97773 -9.21264 1.71717e-19)
(9.64111 -8.62519 -3.90279e-18)
(9.97137 -7.8345 3.93855e-18)
(9.95234 -6.86932 1.71868e-19)