/*--------------------------------*- C++ -*----------------------------------*\
| =========                 |                                                 |
| \\      /  F ield         | OpenFOAM: The Open Source CFD Toolbox           |
|  \\    /   O peration     | Version:  2012                                  |
|   \\  /    A nd           | Website:  www.openfoam.com                      |
|    \\/     M anipulation  |                                                 |
\*---------------------------------------------------------------------------*/
FoamFile
{
    version     2.0;
    format      ascii;
    class       volScalarField;
    location    "0.28";
    object      p;
}
// * * * * * * * * * * * * * * * * * * * * * * * * * * * * * * * * * * * * * //

dimensions      [0 2 -2 0 0 0 0];


internalField   nonuniform List<scalar> 
42400
(
-2534.07
-2442.06
-2289.54
-2056.26
-1740.58
-1381.44
-1013.07
-662.518
-349.704
-82.3497
137.179
309.376
434.548
512.687
544.29
531.541
480.172
398.245
292.982
169.85
35.0097
-101.604
-225.98
-323.501
-385.43
-412.962
-415.41
-404.451
-389.375
-375.476
-364.52
-355.616
-347.224
-337.79
-325.675
-309.26
-287.229
-258.761
-223.727
-182.871
-138.386
-93.2898
-50.7323
-13.1041
17.7304
40.7726
56.0454
64.3295
66.8358
64.9075
59.8214
52.6995
44.4978
36.0315
28.0038
21.0152
15.5473
11.9105
10.2452
10.4823
12.2572
15.0935
18.4071
21.596
24.1617
25.8041
26.458
26.2482
25.3929
24.1159
22.6
20.9788
19.3425
17.747
16.223
14.7839
13.436
12.1809
11.0514
9.87847
10465.7
10256.9
9936.63
9458.1
8803.47
8060.34
7278.17
6502.04
5769.99
5099.28
4485.98
3918.61
3390.2
2900.43
2453.16
2051.89
1696.79
1384.57
1109.91
864.951
641.831
434.016
239.048
60.5044
-91.9435
-208.006
-286.008
-328.89
-343.67
-337.589
-316.641
-286.375
-251.09
-214.114
-177.897
-143.808
-112.892
-85.4805
-61.363
-40.1741
-21.5646
-5.27963
8.84168
20.9337
31.1496
39.666
46.6341
52.1393
56.1973
58.7926
59.9351
59.7081
58.2937
55.9751
53.1168
50.128
47.4098
45.2955
43.9766
43.8773
44.3842
45.2163
46.0784
46.6175
46.5518
45.7346
44.1753
42.01
39.4358
36.6482
33.8062
31.0239
28.3754
25.9029
23.6253
21.5464
19.6635
17.9689
16.4867
15.0885
-11035.9
-10757.2
-10411
-10008.1
-9535.02
-9024.2
-8472.78
-7865.26
-7185.54
-6448.91
-5702.86
-4994.92
-4348.06
-3765.6
-3245.22
-2784.27
-2379.17
-2024.27
-1712.52
-1435.37
-1185.72
-958.813
-749.995
-556.893
-377.549
-210.834
-59.4904
69.4675
169.497
239.331
282.882
306.174
314.831
313.117
304.03
289.716
272.185
253.035
233.495
214.522
196.816
180.822
166.826
154.936
145.076
137.03
130.534
125.312
121.086
117.581
114.546
111.766
109.081
106.387
103.642
100.85
98.0431
95.2432
92.5004
89.3578
86.2237
82.7555
78.9654
74.8055
70.2929
65.5523
60.7528
56.0455
51.5294
47.2546
43.2448
39.5144
36.0734
32.9255
30.067
27.4887
25.1785
23.1269
21.3208
19.7418
-7362.34
-7019.87
-6570.89
-6113.81
-5674.3
-5325.81
-5047.52
-4795.95
-4532.98
-4239.82
-3919.65
-3590.29
-3270.38
-2969.42
-2689.94
-2434.72
-2207.48
-2007.35
-1826.91
-1656.43
-1487.64
-1313.9
-1133.13
-946.107
-759.014
-582.427
-426.841
-297.427
-192.853
-108.111
-38.1761
19.9057
67.585
105.869
135.413
157.138
171.955
180.886
185.026
185.435
183.116
178.961
173.717
168.039
162.452
157.111
152.338
148.237
144.791
141.915
139.469
137.276
135.138
132.852
130.226
127.094
123.335
118.882
113.736
107.946
101.676
95.4137
89.233
83.2812
77.6203
72.2159
67.0183
62.0085
57.2006
52.6268
48.3202
44.3064
40.5996
37.2032
34.1116
31.3136
28.7948
26.5418
24.5272
22.7649
15647.8
15435.2
15177.5
14780.9
14163.2
13369.3
12442.5
11423.8
10336.9
9185.26
7967.45
6702.97
5460.24
4350.98
3471.42
2835.7
2381.1
2036.22
1765.18
1555.85
1396.15
1270.59
1167.51
1078.64
998.68
924.789
856.405
793.943
737.409
685.993
638.356
593.088
549.258
506.438
464.91
425.045
387.422
352.55
320.747
292.162
266.758
244.4
224.938
208.151
193.763
181.523
171.22
162.615
155.455
149.475
144.406
139.979
135.943
132.071
128.183
124.143
119.867
115.315
110.476
105.364
100.016
94.5068
88.9048
83.3012
77.7689
72.3682
67.1485
62.1512
57.4108
52.9538
48.7962
44.944
41.3942
38.1374
35.1604
32.4478
29.9838
27.7522
25.7353
23.9383
3421.22
3706.51
4130.56
4592.28
5074.45
5544.78
6022.92
6491.91
6917.79
7277.41
7558.15
7749.36
7837.68
7807.5
7645.34
7349.97
6939.4
6446.58
5907.24
5351.26
4799.66
4265.87
3757.8
3281.15
2840.98
2442.1
2088.46
1781.81
1521.11
1302.15
1118.64
964.099
834.053
725.187
633.861
555.981
488.136
428.346
375.74
329.868
290.293
256.519
228.022
204.257
184.657
168.659
155.719
145.327
137.011
130.343
124.941
120.464
116.616
113.146
109.846
106.554
103.149
99.5529
95.7256
91.6599
87.3781
82.9247
78.3565
73.7475
69.1645
64.6716
60.3236
56.1635
52.2212
48.5139
45.0475
41.8195
38.8219
36.0435
33.473
31.0994
28.9126
26.9029
25.0666
23.3822
1651.26
1482.5
1269.66
1025.36
719.64
379.347
18.5428
-344.666
-695.005
-1019.47
-1304.32
-1536.06
-1700.2
-1780.24
-1762.37
-1646.72
-1454.5
-1218.88
-967.326
-717.447
-480.486
-264.987
-77.502
77.9782
200.325
290.892
352.368
388.666
404.908
405.083
392.52
371.267
344.613
315.27
285.239
255.974
228.605
203.953
182.431
164.038
148.517
135.48
124.517
115.284
107.513
101.005
95.6051
91.1835
87.6177
84.7858
82.5637
80.8164
79.3826
78.1375
76.952
75.7129
74.3268
72.7233
70.8598
68.7215
66.3202
63.6887
60.8807
57.9561
54.9779
52.0049
49.086
46.257
43.5406
40.9472
38.4792
36.1337
33.9068
31.7956
29.7991
27.918
26.1538
24.5085
22.9838
21.5531
-10770.9
-10216.3
-9485.02
-8617.7
-7556.38
-6422.07
-5315.71
-4328.75
-3507.15
-2864.14
-2405.79
-2130.68
-2013.63
-2006.88
-2063.29
-2149.92
-2242.73
-2318.95
-2362.5
-2366.3
-2330.53
-2258.93
-2156.57
-2028.68
-1880.54
-1717.51
-1545.14
-1368.5
-1192.29
-1020.97
-859.142
-710.675
-578.335
-463.376
-365.788
-284.592
-218.174
-164.601
-121.858
-88.0286
-61.4067
-40.5404
-24.2276
-11.4871
-1.52325
6.30588
12.5137
17.5082
21.6168
25.0859
28.088
30.7386
33.1213
35.2421
37.0943
38.6521
39.882
40.7552
41.257
41.3929
41.1882
40.6845
39.9337
38.9908
37.9075
36.7279
35.4856
34.2037
32.8953
31.5675
30.2239
28.8684
27.5078
26.1523
24.8154
23.5119
22.2563
21.0611
19.9319
18.8518
3320.1
3065.4
2725.77
2312.79
1815.89
1282.14
729.338
178.072
-342.288
-799.323
-1165.52
-1426.96
-1588.59
-1672.49
-1708.12
-1718.55
-1709.13
-1676.28
-1620.91
-1549.14
-1466.94
-1377.17
-1280.36
-1176.69
-1067.81
-957.556
-850.888
-751.601
-661.552
-581.153
-509.93
-446.517
-389.673
-338.565
-292.586
-251.289
-214.412
-181.79
-153.258
-128.6
-107.533
-89.7176
-74.7745
-62.304
-51.9024
-43.1681
-35.7434
-29.4169
-23.7998
-18.6796
-13.9133
-9.41063
-5.13114
-1.07952
2.70882
6.18421
9.29993
12.0271
14.3491
16.279
17.8444
19.0833
20.0398
20.759
21.2826
21.6432
21.862
21.9487
21.9052
21.7306
21.4262
20.9995
20.4656
19.8461
19.1664
18.452
17.7263
17.0079
16.3051
15.6118
-3268
-3042.68
-2722.6
-2333.55
-1880.01
-1428.36
-1012.38
-653.788
-364.3
-147.34
-1.45278
77.7899
98.5247
72.3061
12.1604
-67.9205
-152.932
-227.957
-280.776
-305.168
-302.851
-281.769
-252.357
-223.561
-200.618
-184.888
-175.144
-169.432
-165.317
-160.634
-153.989
-145.312
-135.295
-125.059
-115.214
-106.154
-98.1252
-91.2399
-85.3283
-80.2696
-75.9275
-72.1386
-68.7339
-65.5915
-62.6028
-59.5076
-56.1848
-52.4752
-48.4695
-44.1654
-39.6029
-34.8696
-30.0789
-25.3544
-20.8168
-16.5716
-12.6997
-9.24789
-6.22332
-3.59252
-1.2916
0.755558
2.61789
4.34324
5.95324
7.44623
8.80463
10.0039
11.0209
11.8398
12.4565
12.8786
13.1247
13.22
13.1931
13.0722
12.8831
12.6463
12.3738
12.0692
-867.211
-946.002
-1052.6
-1158.66
-1267.59
-1355.54
-1423.1
-1472.52
-1504.89
-1520.06
-1521.45
-1516.04
-1510.08
-1504.85
-1496.11
-1476.47
-1437.85
-1372.78
-1276.58
-1148.46
-993.721
-823.507
-651.403
-488.951
-343.335
-217.95
-113.965
-31.3605
30.6901
73.5602
98.9885
109.043
106.343
94.0245
74.9094
51.8292
27.4213
3.81058
-17.6428
-36.0155
-50.8587
-62.1075
-69.9441
-74.6998
-76.7426
-76.6266
-74.7676
-71.5343
-67.2937
-62.3906
-57.1405
-51.8256
-46.6854
-41.9023
-37.5885
-33.7703
-30.4049
-27.3973
-24.6325
-22.0054
-19.4365
-16.877
-14.3065
-11.7291
-9.16847
-6.66356
-4.26274
-2.01643
0.0297264
1.84113
3.39836
4.69819
5.75179
6.58101
7.21388
7.68079
8.01165
8.23304
8.36392
8.4194
10587.2
10404.2
10166.9
9837.2
9397.68
8871.09
8261.93
7566.1
6781.23
5917.56
5004.28
4087.46
3217.56
2433.43
1754.69
1185.28
722.239
361.389
97.6784
-76.4933
-172.007
-204.98
-195.64
-164.567
-128.816
-99.8252
-83.3213
-80.3454
-88.6204
-104.017
-122.056
-139.12
-153.38
-164.171
-171.495
-175.613
-176.778
-175.172
-170.979
-164.504
-156.147
-146.374
-135.737
-124.862
-114.151
-103.907
-94.3583
-85.6674
-77.9335
-71.1939
-65.429
-60.5687
-56.5035
-53.0944
-50.1919
-47.6431
-45.3046
-43.0466
-40.757
-38.3449
-35.7466
-32.9294
-29.8931
-26.6669
-23.3069
-19.8877
-16.4963
-13.2202
-10.1488
-7.34886
-4.86769
-2.72752
-0.925963
0.558827
1.76112
2.72085
3.47852
4.07092
4.52648
4.87304
-7737.73
-7395.84
-6952.1
-6436.95
-5829.1
-5178.84
-4509.81
-3849.09
-3227.82
-2678.39
-2229.48
-1897.55
-1681.83
-1565.15
-1521.08
-1522.41
-1547.86
-1579.09
-1599.98
-1598.47
-1568.03
-1508.39
-1424.61
-1324.31
-1215.4
-1104.8
-997.653
-896.721
-802.805
-715.855
-635.946
-563.477
-497.686
-437.441
-382.009
-331.071
-284.595
-242.714
-205.67
-173.698
-146.852
-124.94
-107.519
-93.8445
-83.2673
-75.1846
-69.0573
-64.4602
-61.0715
-58.6593
-57.0387
-56.0376
-55.4869
-55.2279
-55.1237
-54.9741
-54.6246
-53.9426
-52.8219
-51.189
-49.0057
-46.2717
-43.0227
-39.3093
-35.2728
-31.0213
-26.6977
-22.4507
-18.4197
-14.7213
-11.438
-8.61059
-6.23843
-4.28818
-2.70689
-1.43476
-0.414126
0.40498
1.0613
1.59443
-4849.56
-5144.52
-5513.53
-5884.68
-6279.65
-6634.62
-6919.39
-7094.73
-7133.3
-7039.95
-6854.21
-6628.16
-6398.24
-6175.44
-5952.86
-5716.75
-5451.62
-5148.6
-4809.35
-4447.84
-4087.13
-3748.79
-3442.48
-3160.28
-2884.51
-2601.03
-2306.01
-2003.32
-1703.15
-1418.35
-1162.21
-942.406
-760.33
-612.892
-494.656
-399.94
-323.872
-262.508
-212.736
-172.243
-139.393
-113.027
-92.2396
-76.2431
-64.3175
-55.8246
-50.2226
-47.0232
-45.7693
-46.0266
-47.3902
-49.4939
-52.0124
-54.6448
-57.0954
-59.1758
-60.6963
-61.5031
-61.4844
-60.5714
-58.7433
-56.0302
-52.5131
-48.3207
-43.6231
-38.6144
-33.4998
-28.4819
-23.7448
-19.4397
-15.6698
-12.4803
-9.85829
-7.74581
-6.06082
-4.71725
-3.63803
-2.76092
-2.03922
-1.42827
-1144.43
-846.523
-423.945
37.6881
523.494
943.726
1286.59
1557.35
1757.36
1887.94
1956.89
1982.59
2001.03
2045.19
2105.63
2137.01
2110.35
2033.07
1922.68
1785.61
1619.43
1421.82
1201.48
978.303
773.405
599.723
458.222
341.012
240.032
150.257
74.8164
19.1995
-14.9954
-30.814
-33.4079
-27.736
-17.8382
-6.60162
4.14691
13.2707
20.1117
24.3441
25.9138
25.0076
21.9618
17.1624
10.9841
3.77278
-4.15157
-12.4837
-20.9319
-29.2085
-37.0424
-44.3532
-50.7724
-56.1197
-60.2448
-63.0221
-64.3788
-64.304
-62.8551
-60.1581
-56.4017
-51.8238
-46.6905
-41.2734
-35.8284
-30.5816
-25.7211
-21.3895
-17.6744
-14.6006
-12.1316
-10.1855
-8.6588
-7.44984
-6.47211
-5.65941
-4.96411
-4.34593
13509.6
13406.9
13257.5
12985.8
12585.1
12097.1
11575.6
11027.9
10407.8
9684.83
8873.7
7987.7
7055.07
6178.24
5455.31
4863.86
4325.21
3820.02
3368.45
2972.75
2618.94
2295.96
2002.34
1744.83
1530.75
1361.66
1236.42
1152.59
1103.29
1079
1067.35
1052.06
1016.39
951.259
860.276
754.749
646.664
544.65
453.352
374.49
308.076
252.762
206.409
167.274
133.892
105.053
79.7935
57.3738
37.2084
19.0474
2.73999
-11.909
-24.929
-36.1339
-45.5992
-53.2166
-58.8961
-62.6073
-64.3768
-64.3039
-62.5688
-59.4308
-55.2141
-50.2783
-44.9799
-39.6349
-34.4937
-29.7368
-25.4824
-21.7973
-18.7022
-16.1742
-14.1539
-12.5586
-11.2963
-10.2787
-9.42972
-8.69067
-8.0202
-7.38862
-2626.55
-2368.74
-1973.98
-1492.08
-939.825
-446.889
-41.3846
271.359
501.026
667.654
779.799
818.875
762.981
629.565
483.619
388.334
359.938
380.691
430.312
496.012
568.369
640.053
706.394
763.821
806.886
828.103
823.627
797.383
758.475
716.328
676.354
637.956
596.899
550.293
497.97
443.451
390.72
342.238
298.813
260.121
225.272
193.679
165.165
139.219
115.374
93.2851
72.7009
53.4357
35.4059
18.6237
3.06409
-11.0861
-23.7177
-34.6927
-43.8538
-51.0563
-56.2017
-59.2676
-60.3241
-59.5429
-57.1955
-53.6394
-49.2868
-44.5601
-39.8371
-35.4026
-31.4258
-27.9686
-25.0178
-22.5192
-20.4055
-18.6149
-17.099
-15.8187
-14.7336
-13.7973
-12.9622
-12.1878
-11.4451
-10.7173
-12353.2
-11710.4
-10937.3
-10200.8
-9404.64
-8572.46
-7721.47
-6887.96
-6089.11
-5328.04
-4606.8
-3932.06
-3318.46
-2789.87
-2369.97
-2068.62
-1879.48
-1782.94
-1750.82
-1752.7
-1760.36
-1753.78
-1720.42
-1653.88
-1554.04
-1425.25
-1276.55
-1117.96
-958.363
-804.741
-662.1
-533.916
-422.588
-330.697
-258.931
-204.245
-161.199
-125.53
-94.9605
-68.8287
-47.2183
-30.2726
-17.9758
-10.024
-5.96121
-5.24229
-7.28467
-11.5046
-17.348
-24.281
-31.7927
-39.3992
-46.6485
-53.1184
-58.4254
-62.2478
-64.3528
-64.6334
-63.1435
-60.1169
-55.9487
-51.13
-46.152
-41.4232
-37.2282
-33.7166
-30.9039
-28.6901
-26.908
-25.3864
-23.9995
-22.684
-21.4274
-20.2404
-19.1311
-18.0927
-17.1077
-16.1563
-15.2224
-14.2994
15228.7
14986.9
14593.7
13929.1
12961.1
11832.6
10652.5
9513.87
8479.75
7573.42
6790.5
6110.83
5502.78
4927.64
4348.3
3737.32
3084.48
2399.41
1709.18
1047.87
443.971
-84.7013
-528.317
-879.285
-1129.81
-1276.84
-1326.48
-1295.8
-1207.5
-1084.53
-946.517
-808.128
-679.711
-567.704
-473.828
-396.034
-331.537
-277.793
-233.174
-196.649
-167.309
-144.171
-126.205
-112.446
-102.091
-94.5151
-89.2466
-85.9216
-84.2354
-83.8968
-84.6006
-86.0137
-87.7725
-89.4855
-90.7369
-91.0968
-90.1483
-87.5493
-83.1371
-77.0521
-69.8022
-62.1786
-55.0123
-48.899
-44.06
-40.3926
-37.6226
-35.4447
-33.6005
-31.9092
-30.2731
-28.6656
-27.1026
-25.6087
-24.1953
-22.8564
-21.5763
-20.3384
-19.1298
-17.9446
-4732.37
-4317.64
-3740.77
-3051.68
-2232.08
-1407.57
-635.973
53.0167
653.279
1168.87
1605.23
1968.63
2266.37
2504.02
2683.42
2803.82
2861.87
2856.09
2789.11
2670.87
2516.16
2340.26
2155.02
1967.6
1779.85
1592.05
1404.18
1217.29
1033.85
857.135
690.475
536.81
398.376
276.704
172.366
85.0639
13.9441
-42.0824
-84.0849
-113.411
-131.934
-141.824
-145.281
-144.317
-140.634
-135.578
-130.15
-125.032
-120.625
-117.093
-114.421
-112.465
-111.001
-109.758
-108.435
-106.719
-104.298
-100.905
-96.3657
-90.7133
-84.1891
-77.2041
-70.2419
-63.7334
-57.9654
-53.0415
-48.9029
-45.3993
-42.367
-39.6774
-37.2471
-35.0251
-32.9766
-31.0724
-29.2859
-27.5932
-25.9746
-24.4152
-22.9041
-21.433
-10990.5
-10515.7
-9867.11
-9074.58
-8115.56
-7155.03
-6269.89
-5461.38
-4657.65
-3770.65
-2792.27
-1821.01
-983.611
-337.715
133.337
463.966
674.405
776.97
789.891
738.186
646.42
535.58
423.727
324.288
243.097
179.577
130.267
91.5034
60.4182
34.7189
12.9292
-6.09166
-22.9273
-38.0956
-51.881
-64.5673
-76.207
-86.7813
-96.2182
-104.403
-111.223
-116.623
-120.623
-123.319
-124.832
-125.313
-124.88
-123.587
-121.702
-119.336
-116.602
-113.6
-110.409
-107.094
-103.708
-100.29
-96.875
-93.4892
-90.1545
-86.8882
-83.7042
-80.6132
-77.623
-74.7392
-71.9651
-69.3022
-66.7505
-64.3088
-61.9751
-59.7463
-57.6192
-55.5899
-53.6546
-51.8096
-50.0512
-48.3757
-46.7791
-45.2561
-43.8067
-42.4358
10128.2
9919.17
9680.26
9370.01
8937.31
8363.16
7633.88
6771.02
5827.73
4861.22
3914.68
3010.31
2148.6
1319.94
529.556
-189.347
-782.652
-1199.73
-1423.55
-1484.4
-1441.49
-1347.78
-1230.84
-1100.08
-961.158
-821.452
-688.111
-566.429
-459.629
-369.021
-294.326
-234.225
-186.906
-150.544
-123.491
-104.094
-90.8887
-82.457
-77.5169
-75.0161
-74.1592
-74.3773
-75.2805
-76.6014
-78.1357
-79.6825
-81.078
-82.2592
-83.0315
-83.3608
-83.2525
-82.7383
-81.8666
-80.6928
-79.2721
-77.6565
-75.8927
-74.0215
-72.0775
-70.0898
-68.0824
-66.0747
-64.0822
-62.1169
-60.188
-58.3023
-56.4647
-54.6785
-52.9457
-51.267
-49.6426
-48.0719
-46.5541
-45.0877
-43.6713
-42.3032
-40.9806
-39.7004
-38.4638
-37.2918
4948.26
4848.65
4675.29
4361.06
3935.59
3475.42
3078.34
2770.28
2513.12
2275.69
2060.39
1880.07
1736.1
1618.77
1515.18
1414.83
1309.77
1194.92
1068.54
932.891
794.637
662.592
542.834
437.254
346.122
268.143
200.945
141.921
89.4443
43.4658
4.85018
-25.7414
-48.4911
-64.4561
-74.9884
-81.3828
-84.7059
-85.7799
-85.2434
-83.6097
-81.3
-78.6529
-75.9267
-73.3017
-70.8883
-68.7393
-66.8653
-65.251
-63.8603
-62.6507
-61.5787
-60.6036
-59.6893
-58.8052
-57.9266
-57.0347
-56.1168
-55.1654
-54.1779
-53.1551
-52.1007
-51.0197
-49.9182
-48.8022
-47.6777
-46.55
-45.424
-44.3032
-43.1909
-42.0894
-41.0004
-39.925
-38.8637
-37.8168
-36.7844
-35.766
-34.7598
-33.7651
-32.7832
-31.848
-12072.8
-11381
-10474.5
-9457.88
-8275.44
-7015.52
-5714.09
-4440.83
-3262.75
-2213.48
-1301.25
-528.7
102.32
595.548
961.724
1214.06
1366.42
1432.08
1423.54
1354.18
1239.4
1095.65
937.572
776.453
620.352
474.538
341.968
224.431
123.236
39.6478
-25.2259
-71.162
-99.5003
-113.485
-117.058
-113.887
-106.95
-98.3593
-89.5385
-81.3578
-74.2539
-68.3561
-63.596
-59.7984
-56.75
-54.2469
-52.1199
-50.2454
-48.5446
-46.9765
-45.5278
-44.2017
-43.0065
-41.9468
-41.0183
-40.2077
-39.4962
-38.8634
-38.29
-37.7594
-37.2576
-36.773
-36.2966
-35.8208
-35.3401
-34.8501
-34.3477
-33.8306
-33.2974
-32.7472
-32.1795
-31.5941
-30.9907
-30.3696
-29.7309
-29.0744
-28.3988
-27.706
-26.9964
-26.313
6052.86
5839.36
5575.05
5251.39
4817.03
4333.95
3817.53
3271.6
2702.23
2118.59
1531.28
948.791
379.292
-165.731
-669.638
-1110.2
-1462.27
-1706.53
-1840.84
-1882.77
-1857.7
-1782.74
-1664.53
-1507.07
-1319.97
-1118.81
-920.429
-738.497
-581.002
-450.326
-344.781
-260.893
-195.232
-144.659
-106.84
-79.9721
-62.2229
-51.6532
-46.4017
-44.827
-45.5019
-47.2466
-49.1501
-50.5678
-51.1014
-50.5837
-49.031
-46.5873
-43.4908
-40.0248
-36.4794
-33.119
-30.152
-27.7055
-25.8191
-24.4597
-23.5498
-22.9965
-22.7107
-22.6159
-22.6502
-22.765
-22.9229
-23.0959
-23.2633
-23.4102
-23.5261
-23.6036
-23.6379
-23.6259
-23.5656
-23.4561
-23.297
-23.0885
-22.8309
-22.5246
-22.1687
-21.7688
-21.3235
-20.8827
1845.2
1705.45
1528.42
1318.88
1049.42
767.027
499.947
261.127
52.8353
-125.562
-271.341
-379.581
-448.523
-481.769
-488.375
-476.716
-451.733
-413.75
-360.579
-291.445
-209.163
-120.429
-36.6231
26.6637
57.2409
55.0414
30.1762
-5.54506
-41.3543
-71.0585
-93.0753
-108.708
-120.415
-130.45
-140.018
-149.008
-156.336
-160.619
-160.8
-156.479
-147.947
-135.963
-121.541
-105.751
-89.5744
-73.8203
-59.1154
-45.9176
-34.5384
-25.1456
-17.767
-12.2985
-8.53205
-6.19352
-4.98269
-4.61345
-4.82079
-5.40334
-6.20702
-7.13073
-8.10632
-9.09103
-10.0563
-10.9821
-11.8545
-12.663
-13.4004
-14.0613
-14.6421
-15.1408
-15.5563
-15.8886
-16.1382
-16.3063
-16.3943
-16.4033
-16.334
-16.1955
-15.9847
-15.7576
-5041.81
-4385.01
-3584.68
-2885.86
-2228.74
-1623.38
-1060.17
-573.019
-186.951
99.6655
304.57
448.621
546.88
606.026
630.628
626.917
603.456
567.284
521.16
464.614
396.006
315.781
227.671
135.813
41.497
-55.7305
-152.98
-242.774
-316.673
-367.263
-390.442
-386.543
-360.087
-318.539
-270.394
-222.976
-180.912
-145.968
-117.931
-95.7207
-78.1419
-64.211
-53.1565
-44.3271
-37.1241
-30.9684
-25.3143
-19.732
-14.1242
-8.42172
-2.93807
1.90321
5.75789
8.45364
9.9954
10.5163
10.2305
9.3603
8.11154
6.52113
4.80828
3.06659
1.35413
-0.287534
-1.83196
-3.26374
-4.57482
-5.76189
-6.82465
-7.76455
-8.58409
-9.28625
-9.87429
-10.3516
-10.7215
-10.9867
-11.1491
-11.2215
-11.1994
-11.1423
4316.82
4237.69
4154.19
4035.99
3819.39
3510.9
3103.7
2580.59
1917.46
1104.81
209.328
-610.44
-1199.61
-1528.51
-1687.6
-1777.98
-1845.44
-1894
-1912.51
-1883.31
-1789.06
-1624.97
-1405.52
-1157.8
-909.465
-681.92
-488.131
-333.626
-218.242
-137.479
-83.5957
-47.5436
-21.8119
-2.18413
12.7212
23.206
29.9339
33.9933
36.2971
37.4067
37.6105
37.0591
35.8685
34.1818
32.1983
30.1667
28.3371
26.9282
26.2478
26.0408
26.1062
26.1966
26.088
25.6286
24.7449
23.4325
21.7403
19.7446
17.5392
15.3957
13.2446
11.1273
9.08224
7.13266
5.29374
3.57543
1.98403
0.523213
-0.805303
-2.00125
-3.06545
-3.99956
-4.80586
-5.48716
-6.04642
-6.48609
-6.80842
-7.02771
-7.13818
-7.19762
-7258.26
-7138.47
-7079.32
-7105.46
-7185.43
-7217.92
-7126.78
-6887.72
-6515.8
-6038.11
-5480.73
-4872.57
-4244.99
-3622.38
-3013.59
-2415.15
-1821.4
-1234.43
-673.004
-176.363
213.845
484.059
653.359
749.512
791.085
789.608
755.878
701.079
637.246
573.824
516.763
468.08
426.923
391.295
359.262
329.56
301.453
274.489
248.562
223.744
200.208
178.159
157.803
139.302
122.752
108.201
95.6453
84.9708
75.8795
68.1472
61.4836
55.5347
50.1884
45.3199
40.8441
36.706
32.8657
29.3027
25.9935
22.8792
19.9877
17.3041
14.815
12.5103
10.3816
8.42178
6.62463
4.98484
3.49764
2.15866
0.963778
-0.0909395
-1.00936
-1.79536
-2.45252
-2.9837
-3.39148
-3.69003
-3.87381
-3.9962
6497.64
6291.12
5960.78
5494.98
4885.74
4311.26
3857.96
3533.26
3299.94
3115.43
2948.36
2778.64
2594.34
2390.57
2168.23
1933.14
1696.19
1470.46
1264.9
1080.07
912.088
761.038
632.958
533.845
465.337
425.053
408.87
411.573
426.804
448.876
472.145
491.474
502.42
501.905
488.801
463.874
429.192
387.697
342.704
297.484
254.888
216.98
184.783
158.307
136.862
119.46
105.139
93.1326
82.8758
73.9897
66.232
59.4741
53.4713
48.1024
43.2829
38.9396
34.9997
31.388
28.0584
24.9782
22.1258
19.4842
17.0396
14.7804
12.6964
10.7791
9.02099
7.41579
5.95804
4.64299
3.46646
2.42467
1.51406
0.731126
0.072552
-0.464185
-0.881118
-1.19004
-1.38804
-1.52576
4454.2
4518.78
4592.69
4614.05
4565.63
4471.27
4361.6
4243.15
4110.26
3959.38
3793.83
3621.33
3443.76
3245.62
2995.02
2661
2239.83
1769.48
1311.51
915.383
600.924
364.165
189.767
60.6434
-37.7793
-114.992
-175.668
-221.068
-251.807
-268.099
-270.494
-260.783
-241.996
-217.652
-190.285
-160.382
-126.953
-89.8863
-50.8661
-12.8103
21.2165
48.8692
68.9866
81.6404
87.7668
88.7325
86.2473
81.701
76.0315
69.8286
63.4695
57.2723
51.423
46.0008
41.0645
36.6392
32.6896
29.1719
26.0356
23.2258
20.6782
18.3646
16.2512
14.3138
12.5328
10.8945
9.38929
8.01046
6.75347
5.6152
4.59347
3.6866
2.89302
2.21097
1.63854
1.1743
0.817638
0.560405
0.400226
0.285893
-12670.4
-12481.8
-12274.8
-12036.5
-11773.9
-11484
-11142.4
-10714.3
-10175.1
-9517.68
-8749.39
-7888.43
-6963.04
-6008.82
-5072.3
-4220.44
-3523.01
-3009.42
-2652.05
-2399.25
-2210.41
-2060.22
-1930.95
-1810.85
-1693
-1574.1
-1453.8
-1333.92
-1217.07
-1105.75
-1001.45
-904.822
-815.369
-732.146
-653.723
-578.585
-505.698
-434.61
-366.036
-301.47
-242.541
-190.331
-145.294
-107.496
-76.4945
-51.5877
-32.1476
-17.4128
-6.47659
1.5027
7.19429
11.2248
14.0978
16.0888
17.2657
17.7652
17.7464
17.3404
16.6511
15.7612
14.7499
13.6525
12.5075
11.3846
10.2702
9.18487
8.14466
7.16124
6.24355
5.39861
4.63193
3.94779
3.34931
2.83832
2.41554
2.08147
1.83719
1.67777
1.59391
1.53266
4543.69
4331.66
4099.36
3838.88
3430.13
2901.61
2255.46
1510.36
697.097
-146.127
-965.336
-1694.9
-2272.03
-2653.69
-2829.58
-2823.64
-2680.04
-2442.61
-2144.63
-1812.7
-1472.55
-1146.77
-852.51
-598.891
-389.142
-223.446
-100.22
-15.6274
36.6536
64.4489
75.6566
76.8166
73.1232
68.6666
66.0053
65.4914
66.4874
67.8408
67.7817
65.3615
60.7092
54.7043
48.2061
41.7502
35.7603
30.5329
26.1821
22.6736
19.929
17.8633
16.4035
15.3229
14.4004
13.5864
12.933
12.3836
11.8872
11.4077
10.9201
10.409
9.86841
9.30084
8.71359
8.07616
7.43491
6.79764
6.17205
5.56705
4.99146
4.45377
3.96191
3.52309
3.14348
2.82788
2.5795
2.4007
2.29382
2.25563
2.26973
2.28286
2262.23
2782.82
3486.36
4174.5
4851.79
5513.4
6192.13
6849.19
7431.02
7897.46
8216.45
8362.64
8321.04
8092.13
7694.09
7161.4
6540.94
5884.12
5235.78
4628.1
4079.33
3593.59
3165.09
2782.91
2433.96
2105.08
1784.15
1465.98
1156.96
870.248
616.457
400.61
223.854
85.9238
-15.2429
-82.5443
-120.43
-135.266
-133.776
-122.395
-106.452
-89.6947
-74.3157
-61.255
-50.6024
-42.0172
-34.9059
-28.8662
-23.6183
-18.99
-14.89
-11.2756
-8.12371
-5.41319
-3.11795
-1.20956
0.343972
1.57723
2.52611
3.22674
3.71426
4.0221
4.18101
4.21773
4.15861
4.02638
3.84111
3.62064
3.3811
3.13728
2.90275
2.68983
2.50951
2.37097
2.28133
2.24605
2.26951
2.35048
2.46849
2.56935
6005.21
5794.41
5518.95
5175.26
4744.12
4272.87
3784.96
3300.16
2834.42
2400.55
2006.52
1652
1331.38
1035.87
754.796
479.007
203.773
-71.1008
-341.94
-603.914
-848.188
-1061.38
-1227.49
-1331.95
-1365.06
-1320.98
-1196.5
-1007.14
-800.147
-627.367
-507.028
-426.21
-367.222
-320.456
-280.907
-245.465
-212.602
-181.825
-153.4
-127.94
-105.999
-87.8077
-73.1924
-61.6499
-52.5173
-45.1449
-39.0028
-33.7203
-29.0655
-24.9032
-21.1563
-17.7792
-14.7426
-12.0251
-9.60995
-7.48214
-5.6268
-4.0282
-2.66929
-1.53175
-0.596366
0.15647
0.746424
1.19328
1.51599
1.73315
1.86205
1.91993
1.92396
1.891
1.83752
1.77937
1.7314
1.70703
1.71767
1.77286
1.88081
2.04633
2.25253
2.43534
-4298.68
-4445.52
-4608.22
-4682.84
-4670.04
-4574.41
-4463.76
-4368.33
-4262.63
-4112.98
-3913.64
-3681.72
-3438.1
-3195.57
-2955.18
-2706.43
-2432
-2118.51
-1767.92
-1403.6
-1065.7
-794.488
-612.018
-514.772
-482.672
-489.004
-505.973
-511.083
-495.966
-466.027
-429.915
-392.113
-353.725
-315.328
-277.881
-242.402
-209.67
-180.157
-154.068
-131.389
-111.947
-95.4582
-81.5696
-69.9006
-60.082
-51.7824
-44.721
-38.6684
-33.4416
-28.8956
-24.9159
-21.4119
-18.3115
-15.5574
-13.104
-10.9155
-8.96363
-7.22622
-5.68633
-4.33078
-3.14918
-2.13267
-1.2728
-0.561386
0.0100154
0.451768
0.776963
1.00082
1.14037
1.21393
1.24041
1.23872
1.22717
1.22289
1.24134
1.29622
1.4008
1.57023
1.80396
2.01861
-4023.67
-3766.07
-3417.14
-2997.43
-2485.82
-2052.23
-1817.55
-1801.76
-1945.46
-2181.39
-2438.77
-2634.79
-2705.18
-2630.03
-2438.07
-2185.93
-1924.95
-1682.87
-1467.19
-1277.51
-1112.97
-972.376
-852.833
-751.105
-664.083
-589.375
-524.948
-468.994
-420.187
-377.493
-340.065
-306.907
-276.95
-249.279
-223.297
-198.734
-175.576
-153.956
-134.05
-115.979
-99.7872
-85.5582
-73.2313
-62.662
-53.6647
-46.0407
-39.5953
-34.1485
-29.5392
-25.6263
-22.2873
-19.4164
-16.9217
-14.7246
-12.7583
-10.9688
-9.31576
-7.77109
-6.31647
-4.95044
-3.67952
-2.51764
-1.48266
-0.590755
0.147798
0.729307
1.15834
1.44727
1.61466
1.68307
1.67684
1.62013
1.53552
1.44336
1.3617
1.30652
1.29289
1.34223
1.48299
1.62254
-2092.66
-2026.97
-1980.29
-1949.76
-1909.2
-1839.6
-1726.63
-1568.03
-1361.28
-1091.93
-736.272
-284.366
227.593
710.728
1077.21
1306.14
1431.91
1484.92
1474.39
1406.5
1294.4
1155
1003.9
853.179
710.731
581.187
466.71
367.697
283.517
212.869
154.305
106.416
67.883
37.498
14.1704
-3.0763
-15.1316
-22.8391
-27.029
-28.5441
-28.1949
-26.6025
-24.3444
-21.8827
-19.5042
-17.385
-15.6112
-14.2015
-13.1303
-12.3405
-11.7547
-11.2871
-10.8534
-10.378
-9.79758
-9.06439
-8.15969
-7.08583
-5.76196
-4.33173
-2.85128
-1.39216
-0.0259772
1.18258
2.18423
2.95122
3.4788
3.7827
3.89368
3.8508
3.69502
3.46422
3.19034
2.89861
2.60846
2.33539
2.09404
1.90823
1.81624
1.74324
9665.34
9434.13
9109.84
8659.08
8069.45
7430.4
6791.97
6168.01
5553.32
4939.41
4319.51
3685.54
3031.82
2368.98
1731.72
1164
695.57
334.575
72.2632
-109.224
-228.583
-300.301
-334.91
-342.352
-331.527
-309.578
-281.964
-253
-225.456
-200.892
-179.84
-161.979
-146.482
-132.292
-118.27
-103.465
-87.3962
-70.095
-52.1348
-34.5288
-18.4735
-5.0118
5.22778
12.184
16.1985
17.9726
17.8994
16.5325
14.3366
11.6684
8.80138
5.93992
3.24011
0.832675
-1.15746
-2.59906
-3.37013
-3.46824
-3.06467
-2.06321
-0.575913
1.2115
3.08926
4.85603
6.34902
7.46504
8.16826
8.48024
8.46206
8.193
7.75271
7.20958
6.61532
6.00458
5.39791
4.80655
4.23795
3.70611
3.25275
2.85025
-5112.22
-5026.18
-4906.82
-4736.04
-4500.55
-4210.43
-3878.19
-3520.79
-3158.26
-2813.85
-2510.55
-2264.53
-2081.45
-1954.12
-1865.12
-1793.33
-1719.37
-1629.38
-1519.38
-1395.87
-1269.96
-1150.34
-1040.37
-938.504
-842.993
-752.77
-667.217
-586.075
-509.735
-438.512
-372.502
-311.539
-255.746
-205.148
-159.535
-118.523
-81.7181
-48.8549
-19.8762
4.78532
24.7348
39.6838
49.6035
54.6065
55.4253
52.8667
48.1244
42.0739
35.3892
28.5342
21.7861
15.3196
9.28379
3.85275
-0.760066
-4.31732
-6.57833
-7.38244
-6.70387
-4.70797
-1.74845
1.80726
5.5196
8.95903
11.7921
13.828
15.0283
15.4777
15.3323
14.767
13.9394
12.9724
11.9506
10.9249
9.92017
8.94431
7.99604
7.07083
6.17644
5.22404
-39.9923
-36.9659
-34.4643
-32.3672
-30.5614
-28.8989
-27.1922
-25.2688
-23.0673
-20.6327
-18.1025
-15.6491
-13.4253
-11.4937
-9.87113
-8.53808
-7.46322
-6.61281
-5.9541
-5.45725
-5.0965
-4.85041
-4.70171
-4.63707
-4.64673
-4.72416
-4.86577
-5.07078
-5.34108
-5.68065
-6.094
-6.58318
-7.14382
-7.76159
-8.41141
-9.06144
-9.68129
-10.2511
-10.7662
-11.2349
-11.6713
-12.0877
-12.4906
-12.8792
-13.2467
-13.5838
-13.8798
-14.1037
-14.2478
-14.2952
-14.2509
-14.1066
-13.866
-13.5332
-13.1129
-12.6315
-12.0854
-11.4904
-10.8646
-10.2251
-9.58118
-8.94307
-8.31819
-7.71181
-7.12722
-6.56606
-6.02878
-5.51495
-5.02353
-4.55309
-4.10197
-3.66852
-3.25121
-2.84862
-2.45952
-2.083
-1.7185
-1.36587
-1.02531
-0.697458
-0.383515
-0.0852558
0.195077
0.45498
0.691921
0.9035
1.08766
1.24309
1.36819
1.46445
1.53217
1.5732
1.58987
1.58478
1.56065
1.52005
1.46528
1.3983
1.32074
1.23383
1.13841
1.03486
0.923267
0.803428
0.674871
0.536797
0.388047
0.227089
0.0520157
-0.139483
-0.350132
-0.583002
-0.841334
-1.12832
-1.44692
-1.79981
-2.18931
-2.61726
-3.08477
-3.59175
-4.13646
-4.71491
-5.32054
-5.94388
-6.57263
-7.19198
-7.7852
-8.3345
-8.82199
-9.23077
-9.5461
-9.75623
-9.8536
-9.83576
-9.70465
-9.46708
-9.13406
-8.7198
-8.24058
-7.71353
-7.15552
-6.58213
-6.00708
-5.44186
-4.89562
-4.37522
-3.88536
-3.42882
-3.0067
-2.61882
-2.26405
-1.94068
-1.64668
-1.37999
-1.13859
-0.92061
-0.724365
-0.548319
-0.391101
-0.251507
-0.128498
-0.0211811
0.0712322
0.149505
0.214446
0.266966
0.308099
0.338993
0.360876
0.375018
0.382677
0.385057
0.383267
0.378286
0.370946
0.361931
0.351783
0.340915
0.329609
0.31804
0.306286
0.294371
0.282291
0.27004
0.257625
0.245046
0.232317
0.219404
0.206342
0.193007
0.179515
0.165393
0.151042
0.134899
0.118693
0.0978066
0.079002
0.0485168
0.0299289
-0.0164921
-35.2148
-32.5607
-30.2593
-28.2219
-26.3684
-24.6041
-22.8157
-20.8916
-18.8108
-16.6254
-14.4212
-12.3415
-10.499
-8.91328
-7.60367
-6.55165
-5.72826
-5.10194
-4.64242
-4.32289
-4.12071
-4.0174
-3.99845
-4.0531
-4.17399
-4.35672
-4.59981
-4.90452
-5.2747
-5.71599
-6.23385
-6.83002
-7.49808
-8.22016
-8.96716
-9.70442
-10.4015
-11.0414
-11.6241
-12.1622
-12.672