/*--------------------------------*- C++ -*----------------------------------*\
| =========                 |                                                 |
| \\      /  F ield         | OpenFOAM: The Open Source CFD Toolbox           |
|  \\    /   O peration     | Version:  2012                                  |
|   \\  /    A nd           | Website:  www.openfoam.com                      |
|    \\/     M anipulation  |                                                 |
\*---------------------------------------------------------------------------*/
FoamFile
{
    version     2.0;
    format      ascii;
    class       volVectorField;
    location    "0.39";
    object      U;
}
// * * * * * * * * * * * * * * * * * * * * * * * * * * * * * * * * * * * * * //

dimensions      [0 1 -1 0 0 0 0];


internalField   nonuniform List<vector> 
42400
(
(-5.66881 10.5551 -1.74304e-16)
(-12.3471 35.0188 -2.4151e-16)
(-16.4466 44.61 2.47485e-16)
(-1.96483 46.3136 0)
(11.4487 42.4505 0)
(22.1965 42.8692 2.73188e-19)
(30.4706 45.5572 0)
(37.1954 48.6333 -2.97561e-19)
(42.7754 50.9237 0)
(47.2825 51.7645 -2.91314e-19)
(50.4228 51.2425 -2.82449e-19)
(51.5963 50.0269 2.71003e-19)
(50.351 48.9313 9.75311e-17)
(46.7562 48.5689 -9.94014e-17)
(41.3746 49.1487 2.22513e-19)
(34.9707 50.4485 0)
(28.2239 51.9457 0)
(21.6904 53.1003 0)
(15.7424 53.514 0)
(10.508 53.0689 0)
(5.89021 51.9599 0)
(1.90477 50.5156 1.14443e-19)
(-1.29418 48.6885 -7.11026e-18)
(-3.25191 45.91 -2.76054e-18)
(-3.39075 41.4531 1.0291e-17)
(-1.4436 34.9469 2.47089e-20)
(2.22323 26.8224 1.19686e-20)
(6.62393 18.1804 -3.96991e-21)
(10.665 10.1459 0)
(13.6491 3.49489 0)
(15.366 -1.46833 6.73187e-18)
(15.8715 -4.7986 -6.80177e-18)
(15.3429 -6.67972 -2.49117e-20)
(13.9992 -7.32081 -1.10119e-18)
(12.0411 -6.93723 1.18085e-18)
(9.64784 -5.75316 0)
(7.03678 -4.02724 0)
(4.42337 -2.00742 0)
(2.04014 0.0631456 0)
(0.0050686 1.92825 4.21464e-18)
(-1.59385 3.39289 -4.22769e-18)
(-2.72555 4.34445 4.24228e-18)
(-3.41244 4.75881 -3.52128e-19)
(-3.72391 4.68451 -7.91983e-18)
(-3.75588 4.21664 3.78318e-18)
(-3.59853 3.46882 -3.50725e-18)
(-3.31345 2.54873 7.10728e-18)
(-2.93785 1.54991 -3.38207e-18)
(-2.49211 0.546889 -2.04672e-19)
(-1.98946 -0.402116 3.29657e-18)
(-1.44624 -1.26233 -6.49273e-18)
(-0.883652 -2.02758 -3.30327e-19)
(-0.316195 -2.70302 3.49183e-18)
(0.255216 -3.29706 -3.73369e-19)
(0.831495 -3.82066 0)
(1.41324 -4.28606 0)
(2.00055 -4.70311 0)
(2.59247 -5.0782 3.24153e-19)
(3.18654 -5.41426 3.08767e-19)
(3.77847 -5.71121 0)
(4.36199 -5.96659 4.21716e-18)
(4.92898 -6.17612 -4.40375e-18)
(5.46976 -6.33459 -3.6636e-18)
(5.97376 -6.43671 3.5944e-18)
(6.43023 -6.47814 0)
(6.8293 -6.45645 0)
(7.16295 -6.37194 -2.62412e-18)
(7.42607 -6.22812 2.5648e-18)
(7.61714 -6.03193 2.84396e-19)
(7.73861 -5.79333 0)
(7.79684 -5.52449 0)
(7.80136 -5.23854 2.10726e-19)
(7.76382 -4.94816 1.90236e-19)
(7.69658 -4.66456 0)
(7.61147 -4.39689 1.54464e-19)
(7.51866 -4.15216 1.07938e-18)
(7.42603 -3.93538 -1.04705e-18)
(7.33904 -3.74941 -2.22139e-19)
(7.2571 -3.59966 -7.63864e-19)
(7.16172 -3.51336 -5.96984e-19)
(9.03987 -9.90771 0)
(6.2186 -19.8292 1.76254e-16)
(-6.22795 -11.1912 -1.80418e-16)
(-29.387 -5.85613 0)
(-44.4734 -0.524582 0)
(-54.0369 0.289216 1.25238e-16)
(-59.2654 -2.57172 -1.28248e-16)
(-62.2339 -7.28099 2.96665e-19)
(-64.1451 -12.2486 0)
(-65.3522 -16.4934 2.90676e-19)
(-66.0472 -19.6192 2.81895e-19)
(-66.4165 -21.4197 -4.56256e-17)
(-66.6821 -21.7323 1.25683e-17)
(-66.8808 -20.4219 3.49736e-17)
(-67.0646 -17.5444 1.36441e-17)
(-66.9424 -13.4181 -1.37159e-17)
(-66.4304 -8.71547 0)
(-65.2925 -4.31121 2.76678e-19)
(-62.901 -1.3783 0)
(-58.3362 -1.2372 0)
(-51.0118 -4.6662 0)
(-41.587 -10.8326 1.52103e-17)
(-32.2455 -17.2075 3.97185e-19)
(-25.0982 -21.1881 -1.64664e-17)
(-20.6013 -22.2313 0)
(-17.8554 -21.7747 4.94286e-20)
(-15.8457 -20.9558 -1.21297e-20)
(-14.1162 -20.1352 4.02514e-21)
(-12.5857 -19.3604 9.60925e-18)
(-11.2959 -18.5353 -9.72715e-18)
(-10.3105 -17.6128 1.53551e-19)
(-9.6865 -16.644 1.37941e-19)
(-9.38495 -15.6612 5.18042e-18)
(-9.32018 -14.6953 -5.32914e-18)
(-9.41234 -13.7394 -4.87334e-18)
(-9.59747 -12.7549 4.94597e-18)
(-9.78883 -11.7035 0)
(-9.95483 -10.5801 -1.08389e-19)
(-10.0283 -9.42276 0)
(-9.96071 -8.26583 -2.14952e-19)
(-9.70903 -7.1471 3.76435e-18)
(-9.28571 -6.13325 -3.98161e-18)
(-8.71727 -5.26435 2.47851e-19)
(-8.02903 -4.55394 -2.38337e-19)
(-7.24663 -4.0057 2.69233e-20)
(-6.40053 -3.6176 -2.2163e-19)
(-5.51463 -3.37846 2.15197e-19)
(-4.60556 -3.26816 2.94858e-18)
(-3.68737 -3.26395 -2.93796e-18)
(-2.77679 -3.34776 0)
(-1.89072 -3.50513 1.99849e-19)
(-1.03086 -3.71085 3.90563e-19)
(-0.195257 -3.94116 2.64485e-18)
(0.613181 -4.18861 -2.62589e-18)
(1.39489 -4.44629 -3.73037e-19)
(2.15137 -4.70882 5.25003e-18)
(2.88441 -4.97176 -5.89293e-18)
(3.59536 -5.23111 -3.24129e-19)
(4.28445 -5.48246 -3.08704e-19)
(4.95015 -5.72029 4.6695e-18)
(5.58865 -5.93746 -4.59477e-18)
(6.19353 -6.12536 2.57909e-19)
(6.756 -6.27438 2.47651e-19)
(7.2656 -6.37493 0)
(7.71127 -6.41861 -2.81561e-18)
(8.08283 -6.39946 2.10473e-19)
(8.37246 -6.3149 3.24301e-18)
(8.57597 -6.16651 0)
(8.69378 -5.96047 -5.6961e-19)
(8.7314 -5.70729 2.57042e-19)
(8.69923 -5.42091 1.80164e-18)
(8.61151 -5.11694 -1.96548e-18)
(8.48464 -4.81054 -1.65204e-18)
(8.33505 -4.51453 1.58921e-18)
(8.17735 -4.23817 -3.04939e-19)
(8.02303 -3.98695 1.05843e-18)
(7.88004 -3.76302 -7.85734e-19)
(7.75333 -3.56572 2.22124e-19)
(7.64209 -3.39735 -9.37817e-19)
(7.52747 -3.28643 7.33561e-19)
(-9.87863 9.78316 8.73691e-18)
(-16.3044 16.6285 -1.56441e-19)
(-14.9834 18.7487 2.98138e-19)
(-11.8808 19.2318 -1.53923e-19)
(-7.89663 19.4065 0)
(-2.09234 17.9759 7.29937e-18)
(5.59079 15.0414 -8.36125e-18)
(14.5926 10.863 9.32039e-19)
(24.4426 5.76476 1.29627e-17)
(34.6728 -0.0775518 6.52016e-18)
(44.7288 -6.25625 -2.02471e-17)
(53.802 -12.0811 -3.16263e-19)
(60.7973 -16.8544 -2.92562e-19)
(64.7561 -19.8869 4.08576e-17)
(64.7327 -20.4522 -4.17226e-17)
(60.2323 -17.8068 -3.4784e-19)
(50.9077 -11.441 -4.15231e-17)
(37.2778 -1.42395 3.90866e-18)
(21.2774 10.9587 3.85938e-17)
(5.79472 23.1197 1.31468e-19)
(-6.58773 32.2487 -1.24286e-19)
(-14.6778 36.8025 -1.16255e-19)
(-18.7449 37.027 0)
(-19.663 34.1949 1.02023e-19)
(-18.0643 29.4885 8.03332e-18)
(-14.2684 23.3537 -1.27786e-17)
(-8.69606 16.1822 4.65475e-18)
(-2.23535 8.69378 1.97649e-19)
(3.8773 1.84881 -2.00243e-19)
(8.47703 -3.52829 -2.32085e-18)
(10.9512 -7.08641 4.60855e-18)
(11.4122 -9.01538 -4.0045e-20)
(10.4643 -9.77539 -2.54128e-18)
(8.78582 -9.8703 0)
(6.85899 -9.65294 0)
(4.9358 -9.28632 -1.07868e-19)
(3.1481 -8.83798 0)
(1.57516 -8.33398 -4.79218e-20)
(0.261973 -7.78618 2.4816e-18)
(-0.775976 -7.20522 -5.19012e-18)
(-1.54093 -6.60863 2.83611e-18)
(-2.04273 -6.01461 0)
(-2.30133 -5.44286 0)
(-2.34794 -4.92169 3.06364e-18)
(-2.21049 -4.47378 -2.85971e-18)
(-1.91464 -4.10688 -2.46853e-19)
(-1.48822 -3.82218 0)
(-0.961982 -3.61945 0)
(-0.364099 -3.49495 3.30802e-18)
(0.284212 -3.43805 -3.28997e-18)
(0.963268 -3.4362 -1.99492e-19)
(1.65507 -3.4786 0)
(2.34774 -3.5584 -3.59091e-18)
(3.03298 -3.67037 3.14678e-18)
(3.7055 -3.81052 -5.6542e-18)
(4.36266 -3.97565 5.94752e-18)
(5.00379 -4.16295 -5.24755e-18)
(5.62924 -4.36912 1.08701e-17)
(6.23899 -4.58955 -1.03512e-17)
(6.8313 -4.81744 2.08409e-19)
(7.40146 -5.04347 4.71818e-18)
(7.94118 -5.25599 4.19045e-18)
(8.43886 -5.44196 -4.36301e-18)
(8.88081 -5.58826 0)
(9.25303 -5.6832 2.8426e-18)
(9.54323 -5.71775 -2.28e-19)
(9.74258 -5.68651 -3.59327e-18)
(9.84705 -5.58847 0)
(9.8583 -5.42762 5.61662e-19)
(9.78417 -5.21311 1.70173e-18)
(9.63841 -4.95879 -1.68727e-18)
(9.43936 -4.68159 0)
(9.20769 -4.39903 0)
(8.96344 -4.12641 -1.67706e-19)
(8.72343 -3.87473 1.50458e-19)
(8.49959 -3.65001 7.59545e-19)
(8.29874 -3.45373 -1.22566e-18)
(8.12363 -3.28408 0)
(7.97151 -3.14193 1.90717e-19)
(7.8258 -3.04884 6.32176e-19)
(5.02879 -1.78128 3.70622e-17)
(6.63935 -1.75417 -5.56868e-17)
(0.553587 7.42971 2.86544e-17)
(-8.93088 16.5587 3.01273e-17)
(-14.4368 23.0568 -3.06136e-17)
(-14.8196 24.7229 0)
(-11.1041 22.8267 5.76105e-17)
(-6.08273 19.6229 -5.90888e-17)
(-2.23636 16.6889 4.88679e-17)
(-0.752585 14.6956 -4.99939e-17)
(-1.60838 13.7055 4.01132e-17)
(-4.07839 13.3614 -7.7113e-17)
(-7.23047 13.0373 7.05203e-17)
(-10.2172 12.0586 -6.45972e-17)
(-12.3726 10.1135 5.93245e-17)
(-13.3659 7.42405 -2.87419e-17)
(-13.4693 4.7336 -2.29841e-17)
(-13.3977 3.01642 4.38598e-17)
(-13.7928 3.00992 -2.04899e-17)
(-14.5481 4.70706 -1.3487e-19)
(-14.9551 7.37498 2.11167e-20)
(-14.3188 10.0409 -6.46637e-18)
(-12.3917 12.0017 6.77828e-18)
(-9.38306 13.0173 -8.55635e-20)
(-5.78053 13.1871 0)
(-2.20307 12.7437 -3.39755e-20)
(0.711 11.9438 0)
(2.46497 10.966 2.51993e-18)
(2.90247 9.82912 6.50737e-19)
(2.26137 8.45459 -3.1756e-18)
(1.0374 6.82444 -5.01636e-18)
(-0.279619 5.01416 4.94263e-18)
(-1.38714 3.15452 -1.22918e-19)
(-2.15112 1.35027 -2.8111e-19)
(-2.55809 -0.323246 -7.72259e-18)
(-2.66266 -1.77247 8.06633e-18)
(-2.53788 -2.93607 0)
(-2.25671 -3.77789 7.57799e-18)
(-1.88399 -4.28947 -7.45715e-18)
(-1.4686 -4.49334 2.93316e-19)
(-1.04082 -4.4408 -4.21068e-19)
(-0.612898 -4.20343 0)
(-0.181844 -3.85668 0)
(0.262027 -3.46488 0)
(0.729079 -3.075 -3.20972e-19)
(1.22732 -2.71676 4.83346e-18)
(1.75933 -2.40692 -4.57619e-18)
(2.32151 -2.15382 0)
(2.90519 -1.96017 0)
(3.49927 -1.82579 3.81504e-18)
(4.09308 -1.74917 -3.55612e-18)
(4.67747 -1.72806 3.51737e-18)
(5.2455 -1.7595 -2.64851e-18)
(5.79315 -1.84011 4.0662e-19)
(6.31947 -1.96625 -2.71653e-18)
(6.82646 -2.13411 3.44182e-18)
(7.31835 -2.33956 -5.64488e-18)
(7.80025 -2.5777 5.24262e-18)
(8.27609 -2.84211 0)
(8.74633 -3.12418 -2.91018e-19)
(9.20611 -3.41282 -4.42453e-18)
(9.64457 -3.69479 4.99832e-19)
(10.0459 -3.95593 8.04071e-18)
(10.3918 -4.18259 -6.95477e-18)
(10.6647 -4.36313 3.00384e-18)
(10.8507 -4.48866 2.8485e-18)
(10.9411 -4.55336 -2.12961e-18)
(10.9332 -4.5546 -2.84545e-19)
(10.8308 -4.49341 -2.0879e-18)
(10.644 -4.37516 2.01692e-18)
(10.389 -4.21012 -4.2669e-19)
(10.0871 -4.01286 -1.66545e-18)
(9.76195 -3.8002 1.44276e-18)
(9.43628 -3.58827 0)
(9.12838 -3.38973 -1.06194e-18)
(8.85018 -3.21213 3.38227e-19)
(8.60706 -3.05786 1.97416e-18)
(8.39924 -2.92532 -8.19049e-19)
(8.2214 -2.81492 6.64616e-19)
(8.05751 -2.7446 -6.51279e-19)
(9.51667 -6.769 -2.7907e-17)
(15.2387 -13.071 0)
(9.95213 -6.84973 0)
(-5.44504 7.40321 -3.46243e-19)
(-19.8957 24.1986 0)
(-27.4191 35.5769 0)
(-28.7663 41.2217 0)
(-27.9818 43.8788 -2.39469e-19)
(-27.2586 44.9075 0)
(-27.0765 44.6076 2.76679e-19)
(-27.4732 43.3942 -7.67136e-17)
(-28.3934 41.8096 1.4826e-16)
(-29.6447 40.2065 -7.13898e-17)
(-30.928 38.5799 0)
(-31.8977 36.8071 9.73924e-20)
(-32.2561 34.7676 6.91277e-21)
(-31.8269 32.3942 0)
(-30.5844 29.7627 -3.44283e-17)
(-28.6431 27.0625 6.4962e-17)
(-26.1049 24.5019 -4.44344e-18)
(-23.1319 22.2534 -2.60928e-17)
(-19.9504 20.4026 -9.75098e-20)
(-16.766 18.9654 0)
(-13.7311 17.9024 1.07478e-17)
(-10.9694 17.1313 -1.10047e-17)
(-8.55668 16.5697 3.67631e-18)
(-6.56084 16.1602 -3.74139e-18)
(-5.03946 15.8765 2.31276e-18)
(-3.9208 15.7381 -2.31671e-18)
(-3.01974 15.713 0)
(-2.14037 15.6843 -8.32622e-18)
(-1.13407 15.5273 8.42422e-18)
(0.0527371 15.1403 2.54407e-19)
(1.39435 14.4863 -1.02475e-17)
(2.82487 13.5619 1.06292e-17)
(4.26504 12.3874 -1.04813e-19)
(5.64157 11.0193 -1.7592e-19)
(6.88291 9.53575 -8.75825e-18)
(7.89086 8.03734 8.81938e-18)
(8.56342 6.61312 7.15076e-18)
(8.85495 5.35315 -2.35801e-19)
(8.82061 4.29089 -7.0192e-18)
(8.59009 3.43021 0)
(8.30772 2.75673 2.85918e-19)
(8.07431 2.24073 -4.53202e-18)
(7.93825 1.85739 1.02552e-17)
(7.90806 1.58987 -9.45866e-18)
(7.96747 1.4204 4.34437e-18)
(8.09044 1.32612 0)
(8.25078 1.27898 2.24327e-19)
(8.42741 1.24855 -3.71716e-18)
(8.60608 1.20622 3.66938e-18)
(8.77952 1.1288 -5.02439e-20)
(8.94702 1.00071 -3.18121e-18)
(9.11387 0.814482 2.38131e-18)
(9.29002 0.569809 -2.7924e-18)
(9.48774 0.27189 -2.79682e-18)
(9.71803 -0.0702989 5.52506e-18)
(9.98656 -0.445259 -4.63256e-18)
(10.2902 -0.839727 4.85527e-18)
(10.6156 -1.23924 0)
(10.9402 -1.62901 -2.5122e-19)
(11.2364 -1.99514 -3.43297e-18)
(11.4769 -2.32609 2.94212e-18)
(11.6395 -2.61348 7.17375e-19)
(11.7107 -2.85203 0)
(11.6853 -3.03862 2.25073e-18)
(11.5657 -3.17131 -1.95932e-18)
(11.3601 -3.24916 -2.54976e-19)
(11.0816 -3.27316 -1.99202e-19)
(10.7479 -3.24773 3.83512e-19)
(10.3807 -3.18148 2.22717e-20)
(10.0035 -3.08652 -1.33871e-18)
(9.63823 -2.97632 1.16157e-18)
(9.30206 -2.86308 -1.16069e-19)
(9.00514 -2.75564 0)
(8.75061 -2.65867 -9.70225e-19)
(8.53628 -2.57311 7.37684e-19)
(8.35485 -2.50114 0)
(8.19153 -2.4567 -5.25481e-19)
(-1.79016 0.247825 6.76746e-19)
(14.4691 -16.1856 3.87495e-17)
(50.8317 -41.0782 -3.29803e-17)
(79.5805 -64.7692 6.2409e-17)
(92.6022 -73.2929 -2.87753e-17)
(92.5355 -71.7735 4.68569e-19)
(84.3633 -63.833 -6.28015e-18)
(70.8693 -52.0367 6.30884e-18)
(53.8575 -38.2428 -4.89739e-19)
(36.2813 -24.9426 -7.5545e-19)
(22.0367 -14.4755 -1.13131e-17)
(13.3089 -7.61885 -1.31268e-17)
(9.56452 -3.60244 2.48885e-17)
(9.06579 -1.15142 -2.60531e-17)
(10.3268 0.684757 5.07951e-17)
(12.417 2.30655 -2.60043e-17)
(14.861 3.81742 0)
(17.3831 5.25955 0)
(19.7562 6.6443 1.80475e-17)
(21.7423 8.01136 -3.18166e-18)
(23.0886 9.43418 -1.49852e-17)
(23.5831 10.9896 8.89771e-18)
(23.1593 12.7089 -1.52168e-17)
(21.9127 14.5539 6.33607e-18)
(20.0563 16.4266 1.92637e-18)
(17.8827 18.2115 -1.47043e-18)
(15.641 19.8163 -4.19964e-19)
(13.5027 21.1868 2.02574e-19)
(11.567 22.2992 -1.77594e-19)
(9.87495 23.1508 3.1443e-19)
(8.4223 23.7474 0)
(7.17712 24.1022 -8.69618e-19)
(6.09739 24.2322 1.03836e-18)
(5.13576 24.1478 -1.86588e-19)
(4.2555 23.8539 0)
(3.44113 23.362 -1.36403e-18)
(2.70296 22.6874 1.37031e-18)
(2.0753 21.8325 0)
(1.60712 20.8204 0)
(1.36973 19.6662 -2.59121e-18)
(1.43119 18.3982 2.76079e-18)
(1.84594 17.0371 2.82568e-20)
(2.61578 15.6231 0)
(3.67001 14.1841 3.28825e-18)
(4.89759 12.7724 -2.33142e-19)
(6.1655 11.4493 -3.88044e-18)
(7.34402 10.2606 -2.10529e-19)
(8.33017 9.22965 4.45767e-19)
(9.06193 8.35632 0)
(9.52186 7.62123 -3.29511e-18)
(9.73227 6.99119 5.89802e-18)
(9.74595 6.42681 -3.02327e-18)
(9.63502 5.88959 -3.7303e-19)
(9.47878 5.34749 -2.71146e-18)
(9.35129 4.77869 4.5738e-19)
(9.31028 4.17363 4.26856e-18)
(9.38935 3.53483 -1.54338e-18)
(9.59521 2.87446 0)
(9.90997 2.21048 0)
(10.2972 1.56249 1.85116e-19)
(10.7103 0.948342 1.74599e-19)
(11.1008 0.381864 0)
(11.4265 -0.128263 2.49857e-18)
(11.6572 -0.578712 -2.46491e-18)
(11.7779 -0.970702 -2.61559e-18)
(11.7874 -1.30826 -8.97478e-20)
(11.6949 -1.59597 1.77113e-18)
(11.5147 -1.83708 -1.72116e-18)
(11.2634 -2.03277 1.68167e-18)
(10.9581 -2.18303 3.39026e-20)
(10.617 -2.28842 1.08887e-18)
(10.2595 -2.35181 -1.07457e-18)
(9.90465 -2.37894 -8.83633e-19)
(9.56941 -2.37779 1.10932e-18)
(9.26594 -2.35705 -7.11343e-19)
(9.00048 -2.32449 8.03407e-19)
(8.77363 -2.28586 -6.57326e-19)
(8.58193 -2.2446 1.21924e-18)
(8.41801 -2.20568 -5.14157e-20)
(8.26975 -2.18199 -5.26181e-20)
(-1.42362 3.64515 7.14932e-17)
(5.86499 11.4307 2.48798e-19)
(17.1293 4.92122 -9.29058e-17)
(31.7076 2.7945 1.81571e-16)
(38.0163 -2.18293 -8.87076e-17)
(36.7342 -2.50138 7.34454e-17)
(27.5846 1.25901 -7.09715e-18)
(13.0884 7.74329 -6.87633e-17)
(-2.71639 14.6944 5.68552e-17)
(-15.3345 19.7988 -5.65104e-17)
(-21.6124 21.7733 4.75527e-17)
(-21.6749 20.6152 -4.83217e-17)
(-18.1838 17.3096 4.15716e-17)
(-13.8139 13.2895 -4.19737e-17)
(-9.95149 9.6287 4.00387e-19)
(-6.98587 6.68715 3.79952e-19)
(-4.84775 4.41741 6.55489e-17)
(-3.3301 2.68671 -6.67071e-17)
(-2.2239 1.3736 -6.20732e-19)
(-1.35292 0.380078 3.26059e-19)
(-0.584492 -0.367967 5.0559e-17)
(0.175861 -0.931858 -5.07198e-17)
(0.997968 -1.35807 0)
(1.92059 -1.67153 -2.87063e-19)
(2.92472 -1.87305 0)
(3.91886 -1.94692 0)
(4.76452 -1.8767 -2.46357e-19)
(5.32334 -1.65256 -2.55808e-17)
(5.49209 -1.28986 2.60975e-17)
(5.25988 -0.832649 2.01636e-17)
(4.69185 -0.324911 -2.07e-17)
(3.8845 0.17979 2.58426e-19)
(2.95592 0.63319 -2.36497e-19)
(2.03282 1.00714 0)
(1.23059 1.2898 -3.69308e-19)
(0.639838 1.47948 0)
(0.320006 1.58251 0)
(0.298577 1.61428 -2.94943e-19)
(0.575771 1.59758 0)
(1.12907 1.53904 0)
(1.90767 1.46308 5.85305e-18)
(2.83701 1.39024 -5.59332e-18)
(3.83306 1.34634 0)
(4.81154 1.35005 0)
(5.6866 1.40858 0)
(6.38162 1.51915 -1.67871e-19)
(6.84757 1.67324 2.12051e-19)
(7.07275 1.85581 2.61013e-18)
(7.08436 2.04476 -2.79979e-18)
(6.94227 2.21503 2.39776e-18)
(6.72995 2.34317 -2.64237e-18)
(6.53618 2.41296 2.41405e-19)
(6.43797 2.41613 8.28466e-20)
(6.48997 2.35141 0)
(6.71811 2.22315 0)
(7.11883 2.03971 -1.41963e-18)
(7.66302 1.81186 -1.48193e-19)
(8.30325 1.55142 1.45621e-18)
(8.98232 1.27011 -1.3211e-18)
(9.64184 0.97875 1.24288e-18)
(10.2298 0.68653 2.18759e-18)
(10.7066 0.400501 -1.01165e-19)
(11.0488 0.125225 -4.1516e-18)
(11.2501 -0.13722 2.04084e-18)
(11.3196 -0.386731 9.7726e-20)
(11.2762 -0.624117 2.41387e-19)
(11.1434 -0.849762 1.51198e-18)
(10.944 -1.06253 -2.85996e-18)
(10.6982 -1.25945 1.34962e-18)
(10.4233 -1.43628 1.65214e-19)
(10.135 -1.58869 1.0367e-18)
(9.84719 -1.71354 -1.11784e-18)
(9.57208 -1.8097 0)
(9.31852 -1.87833 -1.09423e-19)
(9.09163 -1.92243 0)
(8.89272 -1.94606 6.07835e-19)
(8.72012 -1.95345 -5.08399e-20)
(8.57035 -1.94835 -5.22402e-19)
(8.43763 -1.93702 3.19543e-19)
(8.31372 -1.93051 3.69981e-20)
(31.1118 -16.0176 1.11972e-17)
(57.3882 -30.3797 -1.68203e-17)
(51.9042 -23.7532 -3.98411e-19)
(33.6171 -12.2507 -1.75077e-17)
(20.4027 -2.53633 1.78747e-17)
(10.1337 5.40864 -1.81859e-17)
(1.2649 12.0627 3.5892e-17)
(-7.10964 18.3957 -1.88181e-17)
(-15.4985 24.823 1.81687e-17)
(-23.6333 31.4518 -1.90908e-17)
(-30.5094 37.7241 0)
(-34.7847 42.6771 -7.22282e-19)
(-35.6838 45.5544 4.70677e-19)
(-33.6491 46.2628 0)
(-29.797 45.3213 0)
(-25.1318 43.4225 0)
(-20.2889 41.0084 0)
(-15.6416 38.3034 -3.05598e-19)
(-11.4492 35.474 0)
(-7.89838 32.6699 6.01671e-18)
(-5.11833 30.0043 -6.73801e-18)
(-3.18728 27.5532 -7.73507e-18)
(-2.13721 25.3651 7.54486e-18)
(-1.95235 23.4623 3.42461e-18)
(-2.56594 21.8385 -3.46652e-18)
(-3.83076 20.4922 -3.44203e-19)
(-5.53166 19.4119 5.86781e-19)
(-7.42028 18.5065 -3.90518e-18)
(-9.24506 17.7071 -1.49149e-18)
(-10.7562 17.0171 5.10287e-18)
(-11.7491 16.4161 0)
(-12.1151 15.8677 -1.38889e-19)
(-11.8282 15.3696 -9.15662e-20)
(-10.9471 14.9279 0)
(-9.57935 14.5524 3.61698e-19)
(-7.86827 14.2407 0)
(-5.96403 13.977 0)
(-4.0008 13.7338 9.68884e-18)
(-2.08836 13.4727 -1.78012e-17)
(-0.293617 13.1313 8.43119e-18)
(1.34722 12.6514 6.03439e-18)
(2.81322 11.9968 -6.09362e-18)
(4.08098 11.1452 -2.10745e-20)
(5.11887 10.1095 0)
(5.89529 8.95588 2.20366e-18)
(6.38516 7.77909 -2.02172e-18)
(6.58912 6.66693 0)
(6.55383 5.68045 0)
(6.37211 4.84806 -7.77522e-19)
(6.15318 4.15769 7.80412e-19)
(5.99579 3.58018 7.77536e-19)
(5.97679 3.0971 -7.58647e-19)
(6.13508 2.6904 -7.68791e-19)
(6.47133 2.3418 1.38267e-18)
(6.95881 2.0367 -6.95924e-19)
(7.55298 1.76319 -2.0144e-19)
(8.20036 1.51154 0)
(8.84626 1.27426 6.52847e-20)
(9.44102 1.0462 -6.87563e-19)
(9.94502 0.82443 1.36907e-18)
(10.3321 0.607833 -7.38972e-19)
(10.5911 0.396485 0)
(10.7253 0.190911 -1.10537e-19)
(10.7494 -0.00848238 0)
(10.6849 -0.201641 -9.77755e-20)
(10.555 -0.388709 -6.36182e-20)
(10.3807 -0.569627 -1.20175e-19)
(10.1794 -0.743735 -1.02978e-18)
(9.96537 -0.909554 9.01569e-19)
(9.75024 -1.06479 -9.6472e-20)
(9.54344 -1.20656 -7.97582e-19)
(9.35163 -1.33185 9.65379e-19)
(9.17825 -1.43812 -6.55614e-19)
(9.02371 -1.52387 6.37673e-19)
(8.88624 -1.589 -5.84816e-19)
(8.763 -1.63474 4.59433e-19)
(8.65093 -1.66321 4.10371e-19)
(8.54728 -1.67704 -3.97818e-19)
(8.44839 -1.68199 9.54447e-20)
(8.34979 -1.68599 -8.32636e-20)
(27.1433 -12.5882 -5.92331e-17)
(64.2397 -37.2852 -8.51595e-17)
(89.5837 -43.0074 1.69796e-16)
(97.1447 -50.2427 -1.64187e-16)
(97.6131 -48.7937 8.14876e-17)
(87.6033 -44.085 3.60636e-19)
(70.267 -36.9169 -6.75015e-17)
(52.8033 -30.3917 1.32761e-16)
(39.7343 -25.4353 -5.23293e-18)
(31.1915 -21.3653 -6.08382e-17)
(25.785 -17.6379 3.00323e-19)
(22.2742 -13.9982 4.77052e-17)
(19.7969 -10.3493 -4.86756e-17)
(17.8039 -6.73597 4.00381e-17)
(15.8865 -3.26645 -4.08446e-17)
(13.7735 -0.00381644 -3.40797e-17)
(11.4152 3.03505 3.47221e-17)
(8.8342 5.82933 3.20852e-19)
(6.12216 8.38632 0)
(3.39442 10.6943 2.52558e-17)
(0.761023 12.7213 -2.53975e-17)
(-1.65775 14.4266 -4.97314e-19)
(-3.74207 15.7595 -1.9568e-17)
(-5.39627 16.6745 2.02956e-17)
(-6.55429 17.1278 -1.2785e-19)
(-7.18317 17.1089 0)
(-7.2877 16.7071 3.61043e-19)
(-6.92839 16.0774 5.2333e-19)
(-6.2154 15.3492 2.31668e-17)
(-5.26153 14.6184 -2.37187e-17)
(-4.16394 13.9376 -1.92255e-17)
(-3.00807 13.3103 1.92947e-17)
(-1.873 12.7111 -3.39904e-19)
(-0.834991 12.1106 1.36123e-17)
(0.0487939 11.4994 -2.47385e-17)
(0.726616 10.876 1.14944e-17)
(1.16422 10.2439 8.02942e-18)
(1.34088 9.61552 -8.32744e-18)
(1.26584 9.01674 -2.32208e-19)
(0.979249 8.46202 1.61185e-19)
(0.538668 7.94033 3.65391e-20)
(0.0368022 7.42723 3.35799e-18)
(-0.423073 6.88342 -5.56256e-19)
(-0.735805 6.28071 -2.78775e-18)
(-0.82589 5.6072 1.86369e-18)
(-0.665204 4.87604 -1.87653e-18)
(-0.272394 4.12426 0)
(0.305086 3.39756 -9.95918e-19)
(1.01567 2.72871 9.10233e-19)
(1.82177 2.15076 -4.92899e-19)
(2.69487 1.67432 1.52668e-19)
(3.60815 1.29036 1.37691e-19)
(4.53631 0.982697 1.1831e-19)
(5.454 0.735187 1.02554e-19)
(6.33368 0.531995 -3.88457e-20)
(7.14822 0.35967 5.37636e-20)
(7.87345 0.207847 0)
(8.49088 0.0694008 -3.88551e-19)
(8.9896 -0.0598725 2.50053e-19)
(9.36721 -0.18186 0)
(9.62947 -0.296906 -4.59089e-19)
(9.78858 -0.404622 3.73204e-19)
(9.86059 -0.504605 0)
(9.86258 -0.596923 -4.28043e-20)
(9.81055 -0.682336 0)
(9.71867 -0.762248 -7.50897e-19)
(9.59972 -0.838442 1.65202e-18)
(9.46585 -0.912657 -7.57045e-19)
(9.32865 -0.986085 1.04629e-19)
(9.19802 -1.05895 9.65263e-20)
(9.08062 -1.13034 -5.72266e-19)
(8.9789 -1.19839 4.76962e-19)
(8.89149 -1.26075 -4.87418e-20)
(8.81459 -1.31524 -4.32673e-20)
(8.74374 -1.36025 9.63682e-20)
(8.67504 -1.39505 5.16845e-20)
(8.60586 -1.41964 3.03849e-19)
(8.53469 -1.4347 -3.37067e-20)
(8.45969 -1.44416 -2.45237e-19)
(8.37916 -1.45173 -2.92218e-20)
(16.683 -6.6427 0)
(60.8413 -36.4571 4.52767e-19)
(91.8264 -52.0651 -1.87192e-19)
(71.1182 -52.05 1.78851e-17)
(29.9814 -39.1875 -3.08126e-17)
(-1.733 -32.7745 1.92365e-17)
(-16.3302 -33.3926 -6.83086e-18)
(-17.4887 -37.8995 0)
(-10.7485 -44.0218 -4.23286e-19)
(-1.33698 -49.9006 -1.40858e-17)
(6.90315 -53.749 1.41158e-17)
(11.9058 -54.5946 1.48557e-17)
(13.2382 -52.6578 -2.80028e-17)
(11.6425 -48.8577 3.47127e-18)
(8.4034 -44.1981 4.05294e-18)
(4.75212 -39.4893 5.54693e-18)
(1.60969 -35.203 -1.06066e-20)
(-0.589028 -31.5895 4.78623e-18)
(-1.8972 -28.5898 -4.80711e-18)
(-2.68303 -25.9947 -2.68552e-19)
(-3.34859 -23.5275 -7.59418e-20)
(-4.19932 -20.978 3.48824e-19)
(-5.39163 -18.1974 9.71639e-18)
(-6.9371 -15.1543 -9.27656e-19)
(-8.63523 -12.0467 -9.08256e-18)
(-10.124 -9.23477 -1.01726e-19)
(-11.0567 -7.027 7.94514e-18)
(-11.2628 -5.54743 -1.64583e-17)
(-10.827 -4.73515 1.56172e-17)
(-10.0346 -4.38661 -7.43094e-18)
(-9.20111 -4.25798 0)
(-8.5323 -4.16641 1.24398e-17)
(-8.09161 -4.02455 -2.3045e-17)
(-7.84849 -3.82923 1.08778e-17)
(-7.73177 -3.61704 -8.98151e-18)
(-7.66185 -3.41842 9.22509e-18)
(-7.56427 -3.24903 2.60752e-19)
(-7.40167 -3.11764 0)
(-7.15359 -3.0105 1.202e-19)
(-6.79909 -2.91294 4.50601e-18)
(-6.32685 -2.80766 -4.74795e-18)
(-5.72536 -2.68273 5.6671e-20)
(-4.99318 -2.54197 -5.21257e-20)
(-4.13409 -2.38908 0)
(-3.16257 -2.23082 0)
(-2.10468 -2.07727 -1.93221e-18)
(-0.99535 -1.93472 2.07093e-18)
(0.130721 -1.8047 8.10481e-20)
(1.24733 -1.69525 1.16343e-18)
(2.33555 -1.59844 -2.13152e-18)
(3.38245 -1.51363 8.9539e-19)
(4.37504 -1.4402 0)
(5.30036 -1.37812 -4.17938e-19)
(6.14667 -1.32739 3.95439e-19)
(6.90423 -1.28694 0)
(7.56529 -1.25667 -5.43544e-20)
(8.1256 -1.23575 5.58511e-20)
(8.58468 -1.2227 8.9998e-20)
(8.94568 -1.21546 -7.69418e-20)
(9.21449 -1.21165 0)
(9.39878 -1.20888 5.72498e-20)
(9.50712 -1.20512 4.08164e-20)
(9.54861 -1.19908 -2.49578e-19)
(9.53315 -1.19039 3.25689e-20)
(9.47203 -1.17968 2.50221e-19)
(9.37833 -1.16834 0)
(9.26646 -1.15816 3.97751e-20)
(9.15069 -1.15089 0)
(9.0429 -1.14785 0)
(8.95067 -1.14968 -3.88638e-19)
(8.87635 -1.15622 3.78942e-19)
(8.81781 -1.16663 2.87353e-19)
(8.77012 -1.17956 2.01385e-20)
(8.72758 -1.19348 -2.28289e-19)
(8.68523 -1.20688 -2.44286e-19)
(8.63963 -1.21853 2.0035e-19)
(8.58887 -1.22742 -2.78186e-20)
(8.53221 -1.23306 -1.05907e-19)
(8.46867 -1.23784 2.00191e-19)
(8.39798 -1.24198 -4.468e-20)
(-19.505 10.2586 1.00151e-16)
(-34.0859 18.1838 -7.48537e-17)
(-22.3408 12.8245 -7.05178e-17)
(-8.57516 8.1233 7.21433e-17)
(-7.19728 9.61149 1.99877e-19)
(-13.4797 15.9402 1.99093e-19)
(-20.3318 23.014 0)
(-23.3597 28.1446 4.01896e-17)
(-20.1538 29.3727 -4.11082e-17)
(-10.5743 25.7491 0)
(2.80725 18.1681 -1.52508e-17)
(15.8419 8.85379 2.49305e-17)
(24.9959 -0.10658 -4.34878e-18)
(28.8502 -7.60964 -7.17165e-18)
(28.0839 -13.4857 2.18169e-18)
(24.4537 -17.9732 2.36797e-20)
(19.5558 -21.351 -2.21459e-20)
(14.1782 -23.9372 0)
(8.56672 -26.0579 -1.23012e-18)
(3.15086 -28.0357 1.19541e-18)
(-1.0426 -30.1024 2.01903e-19)
(-3.29237 -32.394 2.54817e-19)
(-3.79757 -34.4257 7.14625e-20)
(-3.94823 -35.3424 1.48684e-18)
(-5.09527 -34.6358 -1.49204e-18)
(-7.40276 -32.5451 1.01136e-19)
(-10.1453 -29.7489 3.05102e-18)
(-12.5314 -26.863 1.65869e-19)
(-14.0543 -24.3035 -6.43225e-18)
(-14.5197 -22.2699 -9.91546e-20)
(-14.0384 -20.7144 2.97235e-18)
(-12.9413 -19.4154 2.60173e-18)
(-11.5922 -18.1873 -2.78885e-18)
(-10.2459 -16.9418 0)
(-9.00849 -15.6667 -9.39635e-20)
(-7.89216 -14.3764 -8.79354e-20)
(-6.87546 -13.0874 0)
(-5.93312 -11.8276 1.50313e-18)
(-5.03785 -10.6188 -1.4383e-18)
(-4.17001 -9.47391 6.62735e-20)
(-3.31478 -8.40073 0)
(-2.46222 -7.41119 -5.66101e-20)
(-1.60373 -6.51012 5.06619e-21)
(-0.731045 -5.70089 8.19508e-20)
(0.155719 -4.98532 0)
(1.05336 -4.36279 2.44513e-19)
(1.95516 -3.82759 -3.75474e-19)
(2.84984 -3.37036 0)
(3.72843 -2.98197 0)
(4.57991 -2.65377 4.05513e-20)
(5.39311 -2.37839 3.25777e-20)
(6.15633 -2.1493 0)
(6.85855 -1.96073 -9.40704e-20)
(7.48965 -1.80751 1.11814e-19)
(8.04179 -1.68523 3.314e-20)
(8.50961 -1.59004 -3.14132e-20)
(8.89077 -1.51831 3.34312e-20)
(9.18606 -1.4664 -8.97226e-20)
(9.39913 -1.43042 -3.44531e-20)
(9.53592 -1.40615 7.00484e-20)
(9.60414 -1.38919 -1.90962e-20)
(9.61295 -1.37531 0)
(9.57297 -1.3609 0)
(9.49622 -1.34339 1.2754e-19)
(9.39586 -1.32141 -1.34293e-19)
(9.28509 -1.29479 0)
(9.17572 -1.26436 7.95472e-21)
(9.07658 -1.23167 0)
(8.99252 -1.19868 9.67298e-20)
(8.92435 -1.16734 -9.43957e-20)
(8.86969 -1.13933 7.29731e-21)
(8.82436 -1.11578 1.50715e-19)
(8.78376 -1.09714 -1.1852e-19)
(8.74386 -1.08321 -3.60459e-22)
(8.7017 -1.07332 0)
(8.65545 -1.06646 0)
(8.6042 -1.06148 0)
(8.54763 -1.05751 3.44881e-20)
(8.485 -1.05608 1.8683e-20)
(8.41661 -1.05509 -1.13092e-19)
(9.23873 -3.1901 -2.2318e-17)
(13.5167 -6.11387 -3.20376e-17)
(16.5068 -2.53069 3.26207e-17)
(16.4842 -4.84715 -3.06267e-17)
(16.3599 -5.74801 3.13343e-17)
(14.24 -8.58122 1.4005e-19)
(8.5995 -11.729 1.35634e-19)
(-1.24091 -12.9312 0)
(-14.7505 -12.246 3.25427e-20)
(-30.3976 -11.0412 0)
(-46.3711 -10.6054 1.1036e-19)
(-60.9192 -11.1709 2.0012e-17)
(-72.5381 -12.7096 -2.03249e-17)
(-80.029 -15.2976 -1.34811e-17)
(-82.7286 -19.0477 1.36415e-17)
(-80.8107 -23.8264 -5.27439e-18)
(-75.4098 -28.9313 5.56759e-18)
(-68.2655 -33.2895 0)
(-61.1875 -36.2641 0)
(-54.9499 -38.1128 0)
(-47.6352 -39.2429 -1.81951e-17)
(-36.2408 -40.0966 3.92673e-17)
(-21.0302 -41.1833 3.01355e-19)
(-6.91567 -42.5188 -4.3322e-17)
(1.52313 -43.0196 2.19796e-17)
(4.224 -41.6934 0)
(3.93271 -38.9523 4.00146e-19)
(2.90384 -35.8032 0)
(2.08416 -32.7388 -1.33602e-17)
(1.69518 -29.8228 1.31858e-17)
(1.67783 -27.0812 -5.61162e-20)
(1.89168 -24.5242 0)
(2.1901 -22.1434 7.5174e-18)
(2.47092 -19.9043 -1.38358e-17)
(2.70108 -17.7776 6.43978e-18)
(2.87588 -15.7609 -4.3901e-18)
(3.0059 -13.8557 8.0497e-18)
(3.10842 -12.0713 -3.65229e-18)
(3.20607 -10.4203 0)
(3.32122 -8.91449 0)
(3.47317 -7.56025 0)
(3.67621 -6.35897 1.26467e-18)
(3.93856 -5.30563 -3.31295e-18)
(4.26709 -4.39244 2.01238e-18)
(4.65935 -3.61179 0)
(5.10753 -2.95381 -1.00237e-18)
(5.601 -2.40634 9.87176e-19)
(6.12611 -1.95608 6.09075e-19)
(6.66712 -1.59014 -1.63098e-19)
(7.20655 -1.29692 -1.00201e-19)
(7.72626 -1.06647 -7.75832e-20)
(8.20861 -0.890611 -2.92651e-19)
(8.63787 -0.762806 0)
(9.00159 -0.677907 0)
(9.29196 -0.631704 -1.09166e-19)
(9.50662 -0.62035 1.21334e-19)
(9.64888 -0.63969 0)
(9.7269 -0.684623 0)
(9.75207 -0.748694 2.25657e-21)
(9.73675 -0.824133 8.76137e-21)
(9.69236 -0.902442 0)
(9.62821 -0.975419 0)
(9.55155 -1.03629 1.72547e-21)
(9.46808 -1.08057 2.72098e-21)
(9.38252 -1.10643 2.81117e-20)
(9.29878 -1.11455 -3.11183e-20)
(9.21978 -1.10749 -1.54299e-21)
(9.14713 -1.089 4.65867e-21)
(9.08111 -1.06325 1.66845e-20)
(9.02089 -1.03415 -2.49264e-20)
(8.96493 -1.00489 -7.26405e-21)
(8.91146 -0.977753 2.38215e-20)
(8.85882 -0.954062 -8.12412e-20)
(8.80564 -0.93431 -3.92265e-20)
(8.75089 -0.918379 2.07225e-19)
(8.69386 -0.905751 -1.33655e-19)
(8.63412 -0.895658 0)
(8.57135 -0.887535 -3.66307e-20)
(8.50477 -0.882906 0)
(8.4348 -0.878388 1.83585e-19)
(26.3663 -8.91554 0)
(65.1769 -16.087 8.29156e-20)
(66.8132 -20.3916 -7.85436e-20)
(33.1424 -6.62595 4.52382e-18)
(-9.51744 6.47596 -1.06279e-17)
(-40.7085 16.2921 5.70505e-18)
(-58.6818 22.2755 -1.40584e-19)
(-66.965 26.2359 0)
(-68.9733 28.7078 0)
(-67.3357 30.0528 0)
(-63.4036 31.1856 -1.15402e-19)
(-57.4453 32.4913 -2.48871e-19)
(-49.5926 33.6674 0)
(-40.2832 34.3584 1.30576e-19)
(-30.2106 34.4005 3.8059e-19)
(-20.1704 33.6588 -3.92676e-18)
(-10.7512 32.0705 3.86394e-18)
(-2.0824 29.6507 -2.02452e-19)
(5.86487 26.5515 0)
(12.921 23.0825 1.81254e-19)
(18.4768 19.5381 -1.46757e-19)
(21.7566 16.0942 4.21342e-18)
(22.4943 12.7838 1.48129e-18)
(21.2795 9.58572 -5.49033e-18)
(19.3073 6.5383 -4.35839e-19)
(17.6014 3.72566 1.23426e-19)
(16.5696 1.26501 -8.60594e-18)
(16.1393 -0.703985 7.9044e-18)
(16.0392 -2.16952 1.57939e-19)
(16.0087 -3.15883 3.0233e-19)
(15.8994 -3.73685 2.68168e-19)
(15.6839 -3.98615 -5.49467e-18)
(15.3778 -3.9893 5.54552e-18)