/*--------------------------------*- C++ -*----------------------------------*\
| =========                 |                                                 |
| \\      /  F ield         | OpenFOAM: The Open Source CFD Toolbox           |
|  \\    /   O peration     | Version:  2012                                  |
|   \\  /    A nd           | Website:  www.openfoam.com                      |
|    \\/     M anipulation  |                                                 |
\*---------------------------------------------------------------------------*/
FoamFile
{
    version     2.0;
    format      ascii;
    class       surfaceScalarField;
    location    "0.98";
    object      phi;
}
// * * * * * * * * * * * * * * * * * * * * * * * * * * * * * * * * * * * * * //

dimensions      [0 3 -1 0 0 0 0];
oriented        oriented;


internalField   nonuniform List<scalar> 
84340
(
-4.00127e-05
-0.000235443
0.000275456
9.16605e-05
-0.000438016
0.000306343
0.000329305
-0.000521544
0.000283899
0.000553343
-0.000649551
0.000425513
0.000705045
-0.000794205
0.000642503
0.000756864
-0.000873068
0.000821248
0.000725708
-0.000857034
0.00088819
0.000667962
-0.000745778
0.000803524
0.000640788
-0.000528767
0.000555941
0.000706621
-0.000230644
0.000164811
0.00088313
0.000134891
-0.0003114
0.00115499
0.000525772
-0.000797631
0.00149397
0.000874337
-0.00121332
0.00187419
0.0011126
-0.00149281
0.00227668
0.0012085
-0.00161099
0.00268551
0.00118146
-0.00159028
0.0030814
0.0010798
-0.0014757
0.0034401
0.00095323
-0.00131193
0.00373182
0.000833578
-0.0011253
0.00392544
0.000730649
-0.00092427
0.00399445
0.000638899
-0.00070791
0.00392836
0.000546482
-0.000480389
0.00373137
0.00044396
-0.000246973
0.00341454
0.000330618
-1.37851e-05
0.00299575
0.000217456
0.000201328
0.00249921
0.000121905
0.000374633
0.00194923
5.37471e-05
0.000496237
0.00136585
1.96446e-05
0.000563738
0.000774435
8.27828e-06
0.000583134
0.000211757
-4.53018e-06
0.000567209
-0.000295023
-2.34765e-05
0.000530256
-0.000720589
-5.87738e-05
0.00048434
-0.00104812
-0.000109885
0.000437416
-0.00127314
-0.00016834
0.000393358
-0.00140343
-0.000223112
0.000353397
-0.00145477
-0.000266213
0.000317556
-0.00144641
-0.000294287
0.000285933
-0.00139703
-0.000308578
0.000259195
-0.00132243
-0.000313147
0.000238547
-0.00123483
-0.000313
0.000225395
-0.00114286
-0.000312963
0.000220992
-0.00105197
-0.000317224
0.000226337
-0.00096417
-0.000329021
0.000241222
-0.000879446
-0.00035011
0.000265386
-0.000796312
-0.000380984
0.000297851
-0.0007127
-0.000420747
0.000337134
-0.000626661
-0.000467462
0.000381423
-0.00053682
-0.000518588
0.000428746
-0.000442566
-0.000571405
0.000477151
-0.000344045
-0.000623385
0.000524865
-0.000242004
-0.00067244
0.000570398
-0.000137586
-0.000717061
0.000612643
-3.21286e-05
-0.000756349
0.000650891
7.30147e-05
-0.000789965
0.000684821
0.000176599
-0.000818042
0.000714458
0.000277572
-0.00084107
0.000740097
0.000375115
-0.000859761
0.000762218
0.000468632
-0.000874926
0.000781408
0.00055771
-0.000887352
0.000798274
0.000642045
-0.000897729
0.000813394
0.000721365
-0.000906597
0.000827276
0.000795369
-0.000914353
0.000840349
0.000863676
-0.000921283
0.000852976
0.000925812
-0.000927615
0.000865478
0.000981226
-0.000933586
0.000878173
0.00102932
-0.0009395
0.000891404
0.00106952
-0.000945766
0.000905567
0.00110133
-0.00095292
0.000921112
0.00112442
-0.000961617
0.00093853
0.0011387
-0.000972597
0.000958314
0.00114441
-0.000986613
0.000980904
0.00114213
-0.00100435
0.00100662
0.00113283
-0.0010263
0.0010356
0.00111779
-0.00105269
0.00106774
0.00109848
-0.00108335
0.00110265
0.00107644
-0.00111765
0.00113968
0.00105301
-0.00115454
0.00117797
0.00102909
-0.00119261
0.00121652
0.00100502
-0.0012303
0.00125437
-0.00126557
0.00129223
0.000978365
-0.000499196
0.000263753
-0.00129116
0.000353945
-0.00219076
0.000378054
-0.00326621
0.000425903
-0.00451009
0.000449678
-0.0058252
0.000442038
-0.0071014
0.00041917
-0.00823838
0.000391198
-0.00912364
0.000356493
-0.00967234
0.000318055
-0.00980131
0.000263862
-0.00950304
0.000227508
-0.00884396
0.000215257
-0.00795379
0.00022242
-0.00698138
0.00023609
-0.0060593
0.000259381
-0.0052723
0.000292803
-0.00465162
0.000332549
-0.00419244
0.000374396
-0.00387535
0.000413558
-0.00368153
0.000445083
-0.0035999
0.000464849
-0.00362562
0.000469685
-0.00375192
0.00045692
-0.0039581
0.000423636
-0.00420203
0.000365834
-0.00442923
0.000280948
-0.00458133
0.00017174
-0.00462058
4.75298e-05
-0.00454326
-8.18546e-05
-0.00435589
-0.000210844
-0.00408094
-0.000333719
-0.00374452
-0.000446304
-0.0033737
-0.000539166
-0.00299829
-0.000598519
-0.00262981
-0.000634694
-0.00227542
-0.000648673
-0.00194692
-0.000637078
-0.00164887
-0.000611206
-0.00138277
-0.000579097
-0.00114851
-0.000547217
-0.000944829
-0.000520909
-0.000769665
-0.000504185
-0.000619168
-0.000500607
-0.000489118
-0.000511033
-0.000374968
-0.000534897
-0.000272556
-0.000569874
-0.000178438
-0.000612705
-8.99779e-05
-0.000659866
-5.27964e-06
-0.000708083
7.69185e-05
-0.000754638
0.000157368
-0.000797511
0.000236414
-0.000835395
0.000314105
-0.000867656
0.000390312
-0.000894249
0.000464845
-0.000915603
0.00053755
-0.000932467
0.000608357
-0.000945733
0.000677262
-0.000956257
0.000744263
-0.00096473
0.00080928
-0.000971614
0.000872071
-0.000977144
0.000932193
-0.000981405
0.000988997
-0.00098442
0.00104167
-0.000986257
0.00108928
-0.000987112
0.00113088
-0.000987365
0.00116557
-0.00098761
0.0011926
-0.000988649
0.00121146
-0.000991454
0.00122194
-0.000997099
0.00122425
-0.00100665
0.00121898
-0.00102104
0.00120719
-0.00104089
0.00119026
-0.00106642
0.00116986
-0.00109725
0.00114781
-0.00113249
0.00112596
-0.00117075
0.00110598
-0.00121033
-0.00124886
0.00108927
0.000560789
-0.000297036
0.00128699
-0.000372259
0.00181393
-0.000148883
0.00225436
-1.45261e-05
0.00271146
-7.42586e-06
0.00317655
-2.30493e-05
0.00362275
-2.70273e-05
0.00405256
-3.86171e-05
0.00449729
-8.82393e-05
0.00500587
-0.00019052
0.00558983
-0.0003201
0.00624632
-0.000428979
0.00694132
-0.000479749
0.00764114
-0.000477396
0.00830423
-0.000427005
0.00890331
-0.000339699
0.00942806
-0.000231938
0.00987228
-0.000111679
0.0102327
1.40287e-05
0.0105064
0.00013977
0.0106897
0.000261852
0.0107765
0.000378013
0.0107598
0.000486395
0.0106336
0.000583128
0.0103972
0.000660067
0.0100576
0.000705395
0.00963081
0.000707727
0.00913932
0.000663239
0.00860717
0.000579676
0.00805351
0.000471807
0.00749043
0.000352233
0.00692088
0.000235828
0.0063427
0.000131874
0.0057575
4.60341e-05
0.00517821
-1.92202e-05
0.00460924
-6.57326e-05
0.00405702
-9.64491e-05
0.0035367
-0.000116758
0.00305737
-0.000131878
0.00262435
-0.000146071
0.00224045
-0.000163325
0.00191
-0.000190453
0.0016258
-0.00021999
0.00137903
-0.000253833
0.00117222
-0.000304226
0.00100309
-0.000365772
0.000868441
-0.00043522
0.000764926
-0.000509189
0.000689282
-0.000584222
0.00063833
-0.000657131
0.000608927
-0.000725236
0.000597886
-0.00078647
0.000601952
-0.000839461
0.00061787
-0.000883575
0.000642552
-0.000918931
0.00067328
-0.000946331
0.000707892
-0.00096708
0.000744865
-0.000982705
0.000783263
-0.000994655
0.000822583
-0.00100405
0.000862539
-0.00101157
0.000902874
-0.00101748
0.00094323
-0.00102176
0.000983091
-0.00102428
0.00102179
-0.00102495
0.00105854
-0.00102386
0.00109249
-0.00102132
0.00112278
-0.00101791
0.00114861
-0.00101448
0.00116926
-0.00101211
0.00118421
-0.00101204
0.00119314
-0.00101559
0.00119606
-0.00102395
0.00119326
-0.0010381
0.00118537
-0.00105852
0.00117322
-0.00108511
0.00115783
-0.0011171
0.00114024
-0.00115316
0.0011214
-0.00119148
-0.00122954
0.00110208
-0.000208796
-8.82409e-05
-0.000458923
-0.00012213
-0.000501658
-0.000106147
-0.000279598
-0.000236587
0.00014722
-0.000434244
0.000652253
-0.000528083
0.00110566
-0.000480432
0.00141277
-0.000345731
0.00154011
-0.000215577
0.00149668
-0.00014709
0.00130299
-0.000126407
0.000995592
-0.000121585
0.00063327
-0.000117426
0.00026829
-0.000112416
-5.7287e-05
-0.000101427
-0.0003144
-8.25865e-05
-0.000492764
-5.35736e-05
-0.000589467
-1.49756e-05
-0.000605602
3.01636e-05
-0.000543973
7.81414e-05
-0.000408913
0.000126792
-0.000207535
0.000176635
4.86028e-05
0.000230258
0.000341995
0.000289735
0.000652025
0.000350038
0.0009566
0.00040082
0.00124015
0.00042418
0.00149366
0.000409726
0.00171086
0.000362474
0.00188637
0.000296301
0.00201404
0.000224564
0.00209375
0.000156116
0.00212733
9.83001e-05
0.00211812
5.52359e-05
0.00206973
2.91719e-05
0.0019856
1.83996e-05
0.00187261
1.65427e-05
0.00173976
1.60872e-05
0.00159685
1.10307e-05
0.00145396
-3.18049e-06
0.00131964
-2.89984e-05
0.00119314
-6.39567e-05
0.0010792
-0.000106052
0.000992058
-0.000166688
0.000925375
-0.000237543
0.000875673
-0.000316071
0.000840221
-0.000399768
0.000816849
-0.000485816
0.000803976
-0.000571349
0.000800396
-0.000653551
0.000804918
-0.000729758
0.000816088
-0.00079764
0.000832049
-0.000855422
0.000850628
-0.000902153
0.000869606
-0.000937909
0.000887112
-0.000963836
0.000901965
-0.000981933
0.000913851
-0.000994591
0.000923234
-0.00100404
0.000931083
-0.0010119
0.000938513
-0.001019
0.000946498
-0.00102547
0.000955709
-0.00103097
0.000966478
-0.00103505
0.000978841
-0.00103732
0.000992613
-0.00103763
0.00100744
-0.00103615
0.00102287
-0.00103333
0.00103834
-0.00102995
0.00105327
-0.00102704
0.00106705
-0.00102582
0.0010791
-0.00102764
0.00108893
-0.00103378
0.00109614
-0.00104531
0.0011005
-0.00106288
0.00110197
-0.00108657
0.00110065
-0.00111579
0.00109685
-0.00114936
0.00109099
-0.00118562
-0.00122231
0.00108375
-0.000245083
0.000156842
-0.000459806
9.25929e-05
-0.000399339
-0.000166615
-0.000193002
-0.000442924
6.98297e-05
-0.000697076
0.00042555
-0.000883803
0.000890022
-0.000944903
0.00141214
-0.000867852
0.00191264
-0.000716075
0.00231442
-0.000548872
0.00256613
-0.000378115
0.00266579
-0.00022124
0.00266185
-0.000113492
0.00262368
-7.4241e-05
0.00260658
-8.43329e-05
0.00261925
-9.52587e-05
0.0026362
-7.05204e-05
0.00262751
-6.28448e-06
0.00257795
7.97227e-05
0.00248517
0.000170918
0.0023494
0.000262562
0.00217561
0.000350432
0.00197358
0.000432282
0.00175544
0.000507882
0.00153344
0.000572038
0.00132037
0.000613887
0.00112214
0.000622414
0.000936203
0.000595658
0.00076047
0.000538207
0.000597836
0.000458935
0.000455054
0.000367345
0.00033299
0.00027818
0.000250831
0.000180458
0.000218171
8.78963e-05
0.000238807
8.53573e-06
0.000313406
-5.61988e-05
0.000427425
-9.74762e-05
0.000563842
-0.000120331
0.000705945
-0.000131072
0.000839762
-0.000136998
0.000955741
-0.000144977
0.00105283
-0.000161051
0.00113328
-0.000186494
0.00118869
-0.000222104
0.00122263
-0.000271483
0.00124037
-0.00033381
0.00124683
-0.000406228
0.00124649
-0.00048548
0.00124294
-0.000567792
0.00123856
-0.00064917
0.00123446
-0.000725663
0.00123048
-0.00079366
0.00122537
-0.000850312
0.00121722
-0.000894
0.00120405
-0.000924744
0.00118453
-0.000944312
0.00115844
-0.000955844
0.00112686
-0.00096301
0.00109183
-0.000969005
0.00105576
-0.000975834
0.0010209
-0.000984134
0.000988935
-0.000993504
0.00096099
-0.00100303
0.000937689
-0.00101175
0.000919335
-0.00101896
0.000906026
-0.00102432
0.000897727
-0.00102785
0.000894287
-0.00102989
0.000895427
-0.00103109
0.000900722
-0.00103233
0.000909594
-0.00103469
0.0009213
-0.00103934
0.000934948
-0.00104742
0.00094953
-0.00105989
0.000963985
-0.00107734
0.000977286
-0.00109987
0.000988551
-0.00112706
0.000997154
-0.00115796
0.00100282
-0.00119128
-0.00122536
0.00100587
0.000301739
-0.000144897
0.000701583
-0.000307251
0.0010239
-0.000488931
0.00123652
-0.00065554
0.00130065
-0.000761212
0.0012405
-0.000823653
0.00112671
-0.000831109
0.00103085
-0.000771994
0.000970392
-0.000655617
0.00092827
-0.000506751
0.000915593
-0.000365437
0.000980946
-0.000286593
0.00117642
-0.000308971
0.00150361
-0.000401423
0.00187824
-0.000458962
0.00216898
-0.000386001
0.00229067
-0.000192215
0.00225342
3.09654e-05
0.00211932
0.000213825
0.00194132
0.000348921
0.00175017
0.000453712
0.00156026
0.000540336
0.00137755
0.000614998
0.00120869
0.000676739
0.00105194
0.000728787
0.000929018
0.000736811
0.000837292
0.000714139
0.000773332
0.000659618
0.000736167
0.000575373
0.000728688
0.000466414
0.000755463
0.000340571
0.000825946
0.000207697
0.000928219
7.81853e-05
0.0010542
-3.80871e-05
0.00119652
-0.000133783
0.00134572
-0.000205399
0.00150104
-0.000252791
0.00165858
-0.000277876
0.00181493
-0.000287417
0.00196062
-0.000282695
0.00208578
-0.000270137
0.00218368
-0.000258945
0.00225778
-0.00026059
0.00230738
-0.000271708
0.0023337
-0.000297803
0.00233908
-0.000339196
0.00232673
-0.000393873
0.00229954
-0.000458295
0.00225974
-0.000527987
0.0022086
-0.000598025
0.00214648
-0.000663543
0.00207312
-0.000720303
0.0019881
-0.000765288
0.0018914
-0.000797304
0.00178407
-0.000817412
0.00166863
-0.000828876
0.0015491
-0.00083631
0.0014303
-0.000844211
0.00131685
-0.000855558
0.00121224
-0.000871226
0.00111847
-0.000890361
0.00103623
-0.000911262
0.000965397
-0.000932197
0.000905516
-0.000951867
0.000856074
-0.00096952
0.000816627
-0.000984877
0.000786798
-0.000998022
0.000766215
-0.00100931
0.000754434
-0.00101931
0.000750875
-0.00102877
0.000754762
-0.00103858
0.000765087
-0.00104967
0.0007806
-0.00106294
0.000799843
-0.00107913
0.000821221
-0.00109872
0.000843134
-0.00112179
0.000864126
-0.00114805
0.000883047
-0.00117688
0.000899201
-0.00120744
-0.00123883
0.000912679
-0.000355272
0.000210375
-0.000969913
0.000307389
-0.00173059
0.000271745
-0.00262338
0.000237256
-0.00360437
0.00021977
-0.00463539
0.000207374
-0.00566061
0.000194109
-0.00660798
0.000175374
-0.00740643
0.000142838
-0.00799216
7.89759e-05
-0.00831261
-4.49846e-05
-0.00834095
-0.000258255
-0.00809025
-0.000559669
-0.00761004
-0.000881635
-0.00696975
-0.00109925
-0.00625199
-0.00110377
-0.00551319
-0.000931014
-0.00478255
-0.000699678
-0.00407141
-0.000497311
-0.00338294
-0.000339551
-0.00271615
-0.000213079
-0.00206705
-0.000108756
-0.00142771
-2.43443e-05
-0.000790962
3.99894e-05
-0.000144699
8.25248e-05
0.000491653
0.000100459
0.00111693
8.8863e-05
0.00173197
4.45802e-05
0.00233322
-2.58757e-05
0.00290814
-0.00010851
0.00343664
-0.000187929
0.00389585
-0.000251512
0.00426506
-0.000291031
0.00453121
-0.000304229
0.00469236
-0.00029494
0.00475772
-0.000270758
0.00474473
-0.000239796
0.00467518
-0.00020833
0.00456781
-0.000180044
0.00444144
-0.00015633
0.00431233
-0.000141022
0.00419101
-0.000137622
0.00407707
-0.000146653
0.00397277
-0.000167415
0.00387399
-0.000199014
0.00377445
-0.000239662
0.00366729
-0.000286715
0.00354597
-0.00033697
0.00340499
-0.000387012
0.00324061
-0.000433638
0.00305135
-0.000474284
0.00283848
-0.000507436
0.00260622
-0.000533029
0.00236172
-0.000552798
0.00211455
-0.000570243
0.00187542
-0.000589752
0.0016541
-0.000614991
0.00145738
-0.000647485
0.00128808
-0.000686261
0.00114553
-0.000728678
0.00102689
-0.000771714
0.000928572
-0.000812949
0.000847315
-0.000850939
0.000780559
-0.000885112
0.000726511
-0.000915472
0.00068397
-0.000942337
0.000652128
-0.000966179
0.000630373
-0.000987553
0.000618142
-0.00100708
0.000614798
-0.00102543
0.000619541
-0.00104332
0.000631347
-0.00106147
0.000648948
-0.00108054
0.000670861
-0.00110105
0.000695472
-0.00112333
0.000721165
-0.00114748
0.000746479
-0.00117336
0.000770261
-0.00120066
0.00079181
-0.00122899
-0.00125811
0.000811085
0.000364918
-0.000154543
0.000784912
-0.000112605
0.000993545
6.31116e-05
0.00103708
0.000193718
0.00103537
0.000221479
0.0010996
0.000143145
0.00131418
-2.04663e-05
0.00172917
-0.000239622
0.00235805
-0.000486042
0.00317146
-0.000734426
0.00408493
-0.000958462
0.00496072
-0.00113405
0.00565147
-0.00125042
0.00608212
-0.00131228
0.00630878
-0.00132592
0.00649279
-0.00128777
0.00675743
-0.00119566
0.0071206
-0.00106284
0.00753099
-0.000907704
0.00793717
-0.000745732
0.00830812
-0.000584023
0.00862437
-0.000425012
0.00886724
-0.000267215
0.00902149
-0.000114254
0.00907475
2.92577e-05
0.00901407
0.000161143
0.00883211
0.000270822
0.00853399
0.000342699
0.0081423
0.000365812
0.00769017
0.00034362
0.00720696
0.000295284
0.00670972
0.000245722
0.00620535
0.000213339
0.00569797
0.000203155
0.00519615
0.000206883
0.00471587
0.00020952
0.00427644
0.000199637
0.00389349
0.000174617
0.00357601
0.000137436
0.00332637
9.3306e-05
0.00313955
4.58006e-05
0.00300512
-3.19605e-06
0.00291071
-5.22386e-05
0.00284341
-0.000100116
0.00279
-0.000145602
0.00273772
-0.000187385
0.00267502
-0.000224015
0.0025922
-0.00025415
0.00248221
-0.000277021
0.00234157
-0.000293001
0.00217134
-0.000304047
0.00197762
-0.000313715
0.00177113
-0.000326538
0.00156526
-0.000346935
0.00137307
-0.000378053
0.00120415
-0.000420825
0.00106282
-0.000473668
0.00094832
-0.000532983
0.000856524
-0.000594466
0.000782259
-0.000654413
0.00072098
-0.000710435
0.000669504
-0.000761473
0.000625986
-0.000807421
0.000589543
-0.00084867
0.000559862
-0.000885791
0.000536895
-0.000919371
0.000520681
-0.000949966
0.000511229
-0.000978102
0.000508445
-0.00100429
0.000512071
-0.00102906
0.000521646
-0.0010529
0.000536478
-0.00107631
0.000555655
-0.00109972
0.000578083
-0.00112348
0.000602575
-0.00114782
0.000627951
-0.00117286
0.000653167
-0.00119858
0.000677411
-0.00122491
0.000700199
-0.00125177
-0.00127935
0.000721442
-0.000209499
5.49561e-05
-0.000642208
0.000320104
-0.00107184
0.000492746
-0.00141962
0.000541492
-0.00171192
0.000513787
-0.00193583
0.000367051
-0.00204652
9.02188e-05
-0.00198143
-0.000304703
-0.00168697
-0.000780509
-0.00117112
-0.00125027
-0.000561722
-0.00156786
-9.08988e-05
-0.00160487
3.72957e-05
-0.00137862
-0.00021299
-0.00106199
-0.000711737
-0.000827169
-0.00128239
-0.000717125
-0.00179632
-0.000681717
-0.00219056
-0.00066861
-0.00244564
-0.00065262
-0.00256756
-0.000623811
-0.0025743
-0.000577289
-0.00248879
-0.000510521
-0.00233259
-0.000423414
-0.00212887
-0.00031797
-0.00190005
-0.00019957
-0.00166602
-7.28791e-05
-0.00144468
4.94753e-05
-0.0012561
0.00015412
-0.00111439
0.000224104
-0.0010224
0.000251634
-0.0009714
0.00024428
-0.000945251
0.000219573
-0.000923847
0.000191935
-0.000896804
0.000176113
-0.000853102
0.000163181
-0.000788963
0.00014538
-0.000706742
0.000117416
-0.000611072
7.89477e-05
-0.000510749
3.71135e-05
-0.000411401
-6.0412e-06
-0.000320441
-4.51595e-05
-0.000242949
-8.06884e-05
-0.000182699
-0.000112488
-0.0001417
-0.000141115
-0.000119759
-0.000167542
-0.000114633
-0.00019251
-0.000122343
-0.000216306
-0.000137624
-0.000238869
-0.000154456
-0.00026019
-0.00016664
-0.000280817
-0.000168448
-0.000302239
-0.000155373
-0.00032679
-0.000125007
-0.000356905
-7.78382e-05
-0.000394103
-1.75946e-05
-0.000438297
4.94596e-05
-0.000487878
0.000116157
-0.000540365
0.000176491
-0.000593317
0.000226895
-0.00064487
0.000266415
-0.000693934
0.000296046
-0.000740065
0.000317796
-0.000783224
0.000333933
-0.000823558
0.000346535
-0.000861271
0.000357325
-0.000896581
0.000367662
-0.000929707
0.00037858
-0.000960884
0.00039084
-0.000990361
0.00040495
-0.0010184
0.000421188
-0.00104529
0.000439606
-0.00107131
0.000460044
-0.00109674
0.000482161
-0.00112183
0.000505484
-0.0011468
0.000529465
-0.0011718
0.00055356
-0.00119695
0.000577289
-0.00122231
0.000600295
-0.00124791
0.000622368
-0.00127385
-0.0013004
0.000643416
-0.00064516
0.000700116
-0.00141292
0.00108787
-0.00188568
0.00096551
-0.00212939
0.000785193
-0.00223276
0.000617166
-0.00225907
0.000393361
-0.0022563
8.74438e-05
-0.00226835
-0.000292649
-0.00233494
-0.000713922
-0.00248196
-0.00110324
-0.00271404
-0.00133579
-0.00301683
-0.00130208
-0.0033663
-0.00102914
-0.00373668
-0.000691616
-0.00410521
-0.000458638
-0.00445631
-0.000366027
-0.00477973
-0.000358299
-0.00507029
-0.000378051
-0.00532978
-0.000393124
-0.00555876
-0.000394836
-0.00575631
-0.000379737
-0.00591962
-0.000347207
-0.00604285
-0.000300192
-0.0061162
-0.000244618
-0.00612761
-0.00018816
-0.0060606
-0.000139882
-0.00590527
-0.00010586
-0.00565943
-9.17148e-05
-0.00533676
-9.85742e-05
-0.00496694
-0.000118186
-0.00458315
-0.0001395
-0.00420751
-0.000156072
-0.00384986
-0.000165714
-0.00350471
-0.000169038
-0.00317494
-0.000166594
-0.0028667
-0.000162855
-0.00258898
-0.000160306
-0.00234923
-0.000160805
-0.00214757
-0.000164546
-0.00198219
-0.000171421
-0.00184643
-0.000180913
-0.00173441
-0.000192712
-0.00164013
-0.000206765
-0.00155792
-0.000223331
-0.00148259
-0.000242864
-0.00140937
-0.000265738
-0.00133369
-0.000291987
-0.00125134
-0.000321212
-0.00115882
-0.000352711
-0.00105388
-0.000385758
-0.000936269
-0.000419852
-0.000808219
-0.00045484
-0.000674311
-0.000490812
-0.000540555
-0.00052786
-0.000412985
-0.000565867
-0.000296378
-0.000604486
-0.000193467
-0.000643277
-0.000104951
-0.000681832
-2.99816e-05
-0.000719839
3.31445e-05
-0.00075706
8.63848e-05
-0.000793305
0.000131593
-0.000828432
0.000170383
-0.000862348
0.00020413
-0.000895018
0.000234014
-0.000926465
0.000261056
-0.00095675
0.000286131
-0.00098596
0.000309966
-0.0010142
0.000333128
-0.00104157
0.000356022
-0.00106819
0.000378898
-0.00109419
0.000401858
-0.0011197
0.00042489
-0.00114487
0.000447899
-0.00116981
0.000470742
-0.00119464
0.000493263
-0.00121947
0.000515324
-0.00124437
0.000536818
-0.00126941
0.000557672
-0.0012947
-0.0013205
0.000577775
0.0011753
-0.000475189
0.00295701
-0.000693835
0.00441185
-0.000489339
0.00536983
-0.000172784
0.00590355
8.34409e-05
0.00609017
0.000206741
0.0059938
0.000183821
0.00563342
6.77251e-05
0.00497521
-5.57112e-05
0.00400416
-0.000132188
0.00281982
-0.000151458
0.00164679
-0.000129041
0.000710229
-9.25832e-05
8.52838e-05
-6.66713e-05
-0.000308409
-6.49446e-05
-0.00059566
-7.87765e-05
-0.000851577
-0.000102381
-0.00110442
-0.000125213
-0.0013595
-0.000138037
-0.00162328
-0.000131061
-0.00189177
-0.000111244
-0.0021568
-8.21781e-05
-0.00240596
-5.10352e-05
-0.00262283
-2.77457e-05
-0.00278947
-2.15185e-05
-0.00289138
-3.79768e-05
-0.00292067
-7.65668e-05
-0.0028821
-0.000130282
-0.00279088
-0.000189795
-0.00266518
-0.00024389
-0.00251798
-0.000286693
-0.00235856
-0.000315497
-0.002196
-0.000328272
-0.0020409
-0.000324141
-0.001904
-0.000303494
-0.00179677
-0.000270087
-0.00172506
-0.000232011
-0.00168604
-0.000199831
-0.00166862
-0.000181967
-0.0016584
-0.000181633
-0.0016425
-0.000196814
-0.00161284
-0.000222378
-0.00156633
-0.000253269
-0.00150375
-0.000285914
-0.00142804
-0.00031857
-0.00134298
-0.000350796
-0.0012522
-0.000382766
-0.00115861
-0.000414808
-0.00106414
-0.000447184
-0.000969843
-0.00048005
-0.000876209
-0.000513486
-0.000783535
-0.000547514
-0.000692238
-0.00058211
-0.000602914
-0.000617183
-0.000516221
-0.000652559
-0.000432724
-0.000687983
-0.000352864
-0.000723137
-0.000277016
-0.00075768
-0.000205548
-0.000791308
-0.000138807
-0.0008238
-7.70557e-05
-0.000855056
-2.04009e-05
-0.000885087
3.12512e-05
-0.000913999
7.81903e-05
-0.000941957
0.000120858
-0.000969132
0.000159789
-0.00099568
0.000195547
-0.00102172
0.000228673
-0.00104732
0.000259642
-0.00107254
0.000288842
-0.00109739
0.000316571
-0.00112192
0.000343039
-0.00114617
0.000368395
-0.00117022
0.000392736
-0.00119415
0.000416132
-0.00121804
0.000438638
-0.00124198
0.0004603
-0.00126603
0.000481155
-0.00129026
0.000501218
-0.00131476
-0.00133971
0.000520427
-0.000358613
-0.000116576
-0.00093745
-0.000114998
-0.00152492
9.81266e-05
-0.00205145
0.000353756
-0.00250688
0.000538868
-0.00292498
0.000624842
-0.0033346
0.000593443
-0.00373187
0.000464996
-0.00407966
0.000292078
-0.00433593
0.00012408
-0.00447251
-1.48841e-05
-0.00447871
-0.000122833
-0.00436457
-0.00020673
-0.00415666
-0.000274582
-0.00388704
-0.000334564
-0.00357392
-0.000391895
-0.00322731
-0.000448991
-0.00285154
-0.000500982
-0.00245234
-0.000537241
-0.00203628
-0.000547121
-0.00162328
-0.000524243
-0.0012394
-0.000466056
-0.000912805
-0.000377629
-0.00066389
-0.000276661
-0.000495472
-0.000189937
-0.000391779
-0.00014167
-0.000326764
-0.000141582
-0.000275697
-0.000181349
-0.000226542
-0.00023895
-0.000176358
-0.000294074
-0.000131355
-0.000331695
-0.000100964
-0.000345888
-9.23101e-05
-0.000336926
-0.000109191
-0.00030726
-0.000151017
-0.000261668
-0.000220537
-0.000200567
-0.000315121
-0.000137427
-0.000427504
-8.7448e-05
-0.000548765
-6.07057e-05
-0.00066996
-6.0439e-05
-0.000785322
-8.14525e-05
-0.000892659
-0.000115041
-0.000983797
-0.00016213
-0.00105478
-0.000214933
-0.00110398
-0.00026937
-0.00113127
-0.000323499
-0.00113752
-0.000376516
-0.0011242
-0.000428135
-0.00109312
-0.000478264
-0.00104632
-0.000526844
-0.000986014
-0.000573795
-0.000914525
-0.000619003
-0.000834318
-0.000662318
-0.000747928
-0.000703573
-0.000657891
-0.000742597
-0.000566633
-0.000779241
-0.000476364
-0.000813406
-0.000388972
-0.000845072
-0.000305957
-0.000874323
-0.000228401
-0.000901356
-0.000156978
-0.000926478
-9.19787e-05
-0.000950086
-3.33522e-05
-0.000972626
1.92309e-05
-0.00099454
6.63165e-05
-0.00101622
0.000108587
-0.00103795
0.000146779
-0.00105991
0.000181606
-0.00108215
0.0002137
-0.00110463
0.000243576
-0.00112727
0.000271627
-0.00114997
0.00029813
-0.00117268
0.000323277
-0.00119537
0.0003472
-0.00121807
0.000369997
-0.00124084
0.000391748
-0.00126373
0.000412523
-0.0012868
0.000432377
-0.00131012
0.000451342
-0.00133373
-0.00135775
0.000469381
-0.000533895
0.000417319
-0.00125987
0.000610973
-0.00175506
0.000593325
-0.00195578
0.000554472
-0.00192245
0.000505541
-0.00175969
0.000462077
-0.00159607
0.00042982
-0.00152966
0.000398588
-0.00159259
0.000355008
-0.00176544
0.000296931
-0.00200928
0.000228958
-0.00228588
0.000153764
-0.00257226
7.96521e-05
-0.00285402
7.17771e-06
-0.00312354
-6.50458e-05
-0.00337321
-0.000142223
-0.00358987
-0.000232334
-0.00374358
-0.00034727
-0.00380566
-0.000475158
-0.00375801
-0.000594777
-0.00359185
-0.000690396
-0.00331837
-0.000739542
-0.00296752
-0.000728475
-0.00259127
-0.000652913
-0.00224815
-0.000533051
-0.00198868
-0.000401146
-0.00184511
-0.000285152
-0.00182513
-0.000201323
-0.00191343
-0.000150651
-0.00208511
-0.000122396
-0.00230918
-0.000107629
-0.0025514
-0.000103666
-0.0027815
-0.00010683
-0.00297609
-0.000112662
-0.00311836
-0.000119398
-0.00319006
-0.000128875
-0.00318406
-0.000143427
-0.00310774
-0.000163765
-0.00297533
-0.000193117
-0.00281027
-0.000225502
-0.00263021
-0.000261504
-0.00244468
-0.000300572
-0.002265
-0.000341811
-0.00209537
-0.000384566
-0.00193648
-0.000428255
-0.00178751
-0.000472471
-0.00164711
-0.000516922
-0.00151387
-0.000561371
-0.00138656
-0.000605578
-0.00126413
-0.00064927
-0.0011458
-0.000692128
-0.00103101
-0.000733788
-0.000919478
-0.00077385
-0.000811149
-0.000811901
-0.000706211
-0.000847534
-0.000605057
-0.000880395
-0.000508244
-0.000910218
-0.000416439
-0.000936878
-0.000330338
-0.000960424
-0.000250581
-0.000981112
-0.000177657
-0.000999402
-0.000111817
-0.00101593
-5.30242e-05
-0.00103142
-9.33568e-07
-0.00104663
4.50685e-05
-0.00106222
8.57898e-05
-0.00107867
0.000122128
-0.00109625
0.000154964
-0.00111498
0.000185068
-0.00113473
0.000213049
-0.00115525
0.000239339
-0.00117626
0.000264213
-0.00119755
0.000287829
-0.00121899
0.000310277
-0.00124052
0.00033161
-0.00126217
0.000351877
-0.001284
0.000371126
-0.00130605
0.00038941
-0.0013284
0.000406765
-0.00135108
-0.00137417
0.000423185
0.000879862
-0.000462543
0.00212125
-0.000630415
0.00309149
-0.000376912
0.00365793
-1.19709e-05
0.00386425
0.000299223
0.00390564
0.000420686
0.0040342
0.000301255
0.00438326
4.9531e-05
0.00489386
-0.000155594
0.00541576
-0.000224967
0.00583144
-0.000186724
0.00608684
-0.000101629
0.00617509
-8.6067e-06
0.0061056
7.66684e-05
0.00589134
0.000149221
0.00554466
0.000204449
0.00507925
0.000233081
0.00450558
0.000226395
0.00384067
0.000189757
0.00311691
0.000128976
0.0023615
6.50218e-05
0.00160491
1.70394e-05
0.000877791
-1.35117e-06
0.000218726
6.15203e-06
-0.000341923
2.75986e-05
-0.000796758
5.36882e-05
-0.00115667
7.47594e-05
-0.00144207
8.40808e-05
-0.00167386
8.11307e-05
-0.00186476
6.85067e-05
-0.00202241
5.00254e-05
-0.00215174
2.56618e-05
-0.00225503
-3.5369e-06
-0.00232979
-3.79062e-05
-0.00237096
-7.82284e-05
-0.0023818
-0.000118029
-0.00236364
-0.000161587
-0.00232037
-0.000207039
-0.00225994
-0.000253546
-0.00218498
-0.000300463
-0.00209926
-0.000347227
-0.00200621
-0.000393619
-0.00190846
-0.000439557
-0.00180792
-0.000485108
-0.0017058
-0.000530375
-0.00160282
-0.000575451
-0.00149936
-0.000620384
-0.00139558
-0.000665156
-0.0012915
-0.000709651
-0.00118713
-0.000753643
-0.00108248
-0.000796784
-0.000977652
-0.000838611
-0.000872936
-0.000878567
-0.000768796
-0.00091604
-0.000665923
-0.000950408
-0.000565217
-0.000981101
-0.000467762
-0.00100767
-0.000374757
-0.00102988
-0.000287421
-0.00104776
-0.000206876
-0.00106166
-0.000134017
-0.00107226
-6.93998e-05
-0.00108054
-1.31478e-05
-0.00108767
3.50686e-05
-0.00109485
7.59992e-05
-0.00110315
0.00011071
-0.00111338
0.000140431
-0.00112597
0.000166396
-0.00114095
0.000189693
-0.00115803
0.000211178
-0.00117673
0.000231439
-0.00119652
0.000250822
-0.00121693
0.000269494
-0.00123766
0.000287506
-0.00125853
0.000304861
-0.00127953
0.000321544
-0.00130068
0.000337551
-0.00132206
0.000352888
-0.00134374
0.000367559
-0.00136575
-0.00138815
0.000381537
-0.000617916
0.000155374
-0.00160975
0.00036142
-0.00256142
0.00057476
-0.00347333
0.000899934
-0.00441689
0.00124279
-0.0053939
0.00139769
-0.00634485
0.00125221
-0.00719561
0.000900291
-0.00789341
0.000542211
-0.0084063
0.000287913
-0.00871131
0.000118289
-0.00879159
-2.13441e-05
-0.00864205
-0.000158153
-0.00825807
-0.000307312
-0.00765436
-0.000454481
-0.00687128
-0.000578638
-0.00597349
-0.000664706
-0.00503728
-0.000709819
-0.00412715
-0.000720373
-0.00329467
-0.0007035
-0.00256774
-0.000661908
-0.00195773
-0.000592974
-0.00146883
-0.000490245
-0.00111036
-0.000352317
-0.000894827
-0.000187936
-0.00083356
-7.57941e-06
-0.000923804
0.000165003
-0.00114162
0.000301899
-0.00143982
0.000379324
-0.00176197
0.000390658
-0.0020572
0.000345258
-0.00229321
0.000261679
-0.00245472
0.000157968
-0.00254316
5.05364e-05
-0.00256655
-5.48452e-05
-0.00253725
-0.000147328
-0.00246978
-0.000229051
-0.00237515
-0.000301671
-0.00226263
-0.000366067
-0.00213962
-0.000423474
-0.00201158
-0.00047526
-0.00188239
-0.000522812
-0.00175455
-0.000567394
-0.00162962
-0.000610041
-0.00150847
-0.000651523