/*--------------------------------*- C++ -*----------------------------------*\
| =========                 |                                                 |
| \\      /  F ield         | OpenFOAM: The Open Source CFD Toolbox           |
|  \\    /   O peration     | Version:  2012                                  |
|   \\  /    A nd           | Website:  www.openfoam.com                      |
|    \\/     M anipulation  |                                                 |
\*---------------------------------------------------------------------------*/
FoamFile
{
    version     2.0;
    format      ascii;
    class       volVectorField;
    location    "0.98";
    object      U;
}
// * * * * * * * * * * * * * * * * * * * * * * * * * * * * * * * * * * * * * //

dimensions      [0 1 -1 0 0 0 0];


internalField   nonuniform List<vector> 
42400
(
(8.40301 -8.28411 -1.44735e-17)
(7.91233 -7.04677 -2.40863e-17)
(-3.19913 3.85173 2.47934e-17)
(-11.1238 12.7794 0)
(-13.96 16.835 0)
(-17.383 21.3037 -2.64293e-19)
(-24.3622 28.5434 0)
(-35.8773 39.4796 2.51385e-19)
(-51.599 54.3304 0)
(-70.6122 72.7198 2.67515e-19)
(-91.2068 93.3401 2.76171e-19)
(-110.462 113.446 -2.80067e-19)
(-124.394 129.071 6.94883e-17)
(-129.463 136.546 -7.09578e-17)
(-124.64 134.592 -2.52323e-19)
(-112.004 125.027 0)
(-95.0977 111.217 0)
(-77.2449 96.2932 0)
(-60.4968 82.1015 0)
(-45.5806 69.1549 0)
(-32.3972 57.1601 0)
(-20.5498 45.5957 -1.14495e-19)
(-9.74419 34.1497 1.72145e-17)
(-0.0444339 22.9489 -2.76945e-18)
(8.08856 12.5574 -1.49983e-17)
(14.0305 3.73759 1.09137e-19)
(17.3704 -2.9368 1.55998e-19)
(18.1548 -7.36714 -3.97417e-19)
(16.9066 -9.90378 0)
(14.3975 -11.1099 0)
(11.4096 -11.5377 -1.14968e-17)
(8.53072 -11.5918 1.16176e-17)
(6.0999 -11.4823 -5.93231e-19)
(4.23352 -11.2721 1.15882e-17)
(2.89605 -10.9553 -1.11196e-17)
(1.98464 -10.5195 0)
(1.3899 -9.9759 0)
(1.02629 -9.36194 0)
(0.839434 -8.73251 0)
(0.799678 -8.14345 9.87088e-18)
(0.890608 -7.64172 -9.90435e-18)
(1.10174 -7.2585 9.06444e-18)
(1.4225 -7.00542 -1.09623e-18)
(1.84205 -6.87648 -1.61822e-17)
(2.34596 -6.85203 7.60461e-18)
(2.91563 -6.9033 -6.64166e-18)
(3.52923 -6.99766 1.32887e-17)
(4.16301 -7.10308 -6.18764e-18)
(4.79313 -7.19172 -3.76766e-19)
(5.39784 -7.24216 5.13706e-18)
(5.95923 -7.24044 -9.79339e-18)
(6.4645 -7.17996 -1.81637e-19)
(6.90617 -7.06057 4.75073e-18)
(7.28176 -6.88708 -4.71862e-19)
(7.59289 -6.66775 0)
(7.84427 -6.41272 0)
(8.04251 -6.13264 0)
(8.19502 -5.83761 3.27367e-19)
(8.30913 -5.53648 2.9996e-19)
(8.39137 -5.23651 0)
(8.44706 -4.94342 3.711e-18)
(8.48025 -4.66161 -3.88206e-18)
(8.49381 -4.39458 -3.15117e-18)
(8.4898 -4.14535 3.09217e-18)
(8.46983 -3.91681 0)
(8.43548 -3.71197 0)
(8.38855 -3.53397 -2.33412e-18)
(8.33125 -3.38598 2.28194e-18)
(8.26622 -3.27095 2.78229e-19)
(8.19645 -3.19117 0)
(8.12502 -3.1478 0)
(8.05479 -3.14042 2.26769e-19)
(7.98804 -3.16665 2.11959e-19)
(7.92612 -3.22199 0)
(7.86909 -3.29991 1.85106e-19)
(7.81553 -3.3923 1.25955e-18)
(7.76276 -3.48999 -1.22203e-18)
(7.70717 -3.58366 -3.01149e-19)
(7.63992 -3.67041 -1.0204e-18)
(7.54331 -3.76132 -9.34914e-19)
(3.58578 -5.46004 0)
(14.4979 -20.5976 1.05942e-16)
(29.5324 -37.6327 -1.08286e-16)
(41.8225 -56.7251 0)
(49.3683 -70.7847 0)
(50.3345 -80.0819 1.17758e-16)
(46.2769 -84.9684 -1.19761e-16)
(39.3462 -86.5155 -2.49888e-19)
(31.0203 -85.7837 0)
(22.2694 -82.8726 -2.64011e-19)
(13.9228 -77.7741 -2.71314e-19)
(6.76027 -70.8358 -1.38939e-16)
(1.30651 -62.7035 7.31343e-18)
(-2.39905 -54.0957 1.37221e-16)
(-4.74802 -45.5696 1.17217e-16)
(-6.36278 -37.5151 -1.18364e-16)
(-7.81984 -30.2092 0)
(-9.47109 -23.8164 4.8898e-19)
(-11.4046 -18.372 0)
(-13.519 -13.8216 0)
(-15.6475 -10.1246 0)
(-17.6339 -7.29162 -2.99243e-17)
(-19.3631 -5.33836 1.09208e-17)
(-20.7766 -4.26524 2.00814e-17)
(-21.8904 -4.04785 0)
(-22.7152 -4.57633 -6.17733e-20)
(-23.1295 -5.62754 -1.51443e-19)
(-22.8603 -6.94045 3.86994e-19)
(-21.6304 -8.37562 2.01821e-17)
(-19.379 -9.96069 -2.04894e-17)
(-16.1941 -11.7012 3.87374e-19)
(-12.3591 -13.503 4.23903e-19)
(-8.26308 -15.1361 2.56328e-17)
(-4.38534 -16.3366 -2.57705e-17)
(-1.14606 -16.9162 -2.38595e-17)
(1.24816 -16.8131 2.39337e-17)
(2.81963 -16.0929 0)
(3.726 -14.9274 -3.76006e-19)
(4.16261 -13.5252 0)
(4.31723 -12.0639 -6.42131e-19)
(4.34481 -10.6785 1.26879e-17)
(4.36006 -9.4657 -1.33198e-17)
(4.43898 -8.48374 6.31078e-19)
(4.62593 -7.75279 -5.8193e-19)
(4.93642 -7.26585 1.0185e-19)
(5.36098 -6.98712 -4.91824e-19)
(5.87055 -6.86574 4.50702e-19)
(6.4272 -6.84635 6.13409e-18)
(6.99189 -6.87742 -6.14481e-18)
(7.53053 -6.9165 0)
(8.01734 -6.93249 2.83399e-19)
(8.43592 -6.90574 5.69002e-19)
(8.7786 -6.82676 3.56177e-18)
(9.04492 -6.69428 -3.57186e-18)
(9.2398 -6.51296 -4.22855e-19)
(9.37175 -6.29117 5.86003e-18)
(9.45115 -6.03889 -6.54205e-18)
(9.48869 -5.76595 -3.27194e-19)
(9.49408 -5.48091 -2.99818e-19)
(9.47516 -5.19045 4.4857e-18)
(9.43752 -4.89938 -4.41465e-18)
(9.38459 -4.61116 2.33461e-19)
(9.31808 -4.32851 2.34469e-19)
(9.23868 -4.05406 0)
(9.14676 -3.79087 -2.66606e-18)
(9.043 -3.54268 1.47995e-19)
(8.92881 -3.31398 3.15699e-18)
(8.80657 -3.10984 0)
(8.6796 -2.93555 -5.89502e-19)
(8.55199 -2.79611 2.91442e-19)
(8.42822 -2.69563 2.03342e-18)
(8.31266 -2.63663 -2.20769e-18)
(8.20898 -2.61941 -1.99074e-18)
(8.11957 -2.64156 1.95399e-18)
(8.045 -2.69777 -3.94626e-19)
(7.98381 -2.77994 1.45474e-18)
(7.93263 -2.87768 -1.04455e-18)
(7.88664 -2.97952 3.01069e-19)
(7.83712 -3.07773 -1.50964e-18)
(7.76075 -3.17732 1.16712e-18)
(2.17668 1.02617 4.89405e-17)
(-1.4772 8.91329 -2.1916e-19)
(-17.3474 24.9689 -6.35328e-20)
(-34.3258 42.6282 -2.13345e-19)
(-44.4307 53.683 0)
(-45.4641 57.7282 1.17222e-16)
(-40.4766 56.3407 -2.27278e-16)
(-31.9012 51.775 1.09754e-16)
(-20.7543 45.1742 -8.71727e-17)
(-7.61905 37.2616 1.17949e-17)
(5.87348 29.4922 7.83046e-17)
(17.551 23.5598 -3.22765e-19)
(26.3445 20.3356 -3.45289e-19)
(32.206 19.7019 -4.35794e-17)
(35.5049 21.0585 4.43929e-17)
(36.7709 23.7102 -9.19127e-19)
(36.5663 27.0574 2.71621e-17)
(35.4146 30.6385 -4.7068e-18)
(33.7426 34.0977 -2.27344e-17)
(31.8704 37.1732 -4.49971e-19)
(30.0197 39.6861 4.20215e-19)
(28.3051 41.512 3.89576e-19)
(26.777 42.5749 0)
(25.489 42.8351 -3.72491e-19)
(24.5546 42.2905 -5.14419e-18)
(24.0765 40.864 7.93365e-18)
(23.9947 38.3953 -3.02794e-18)
(24.1304 34.949 -2.32684e-19)
(24.357 31.0026 2.35886e-19)
(24.6089 27.1266 -1.44977e-20)
(24.6955 23.6228 3.97708e-19)
(24.44 20.4889 7.43098e-19)
(23.7886 17.6311 -1.62941e-18)
(22.7581 15.0251 0)
(21.3969 12.6888 0)
(19.7876 10.6304 -4.24761e-19)
(18.0368 8.80646 0)
(16.2556 7.17565 3.08624e-19)
(14.5455 5.72186 5.04726e-18)
(12.9725 4.43039 -9.55872e-18)
(11.5845 3.28072 5.58697e-18)
(10.4298 2.24592 0)
(9.5471 1.2811 0)
(8.94667 0.333666 4.64937e-18)
(8.61856 -0.618297 -4.21806e-18)
(8.53739 -1.55661 -2.1916e-19)
(8.65162 -2.455 0)
(8.89784 -3.28402 0)
(9.21558 -4.0157 4.17838e-18)
(9.55426 -4.62889 -4.15856e-18)
(9.87583 -5.11139 -2.83217e-19)
(10.1542 -5.4603 0)
(10.3738 -5.68087 -3.94427e-18)
(10.5275 -5.78512 3.49124e-18)
(10.6156 -5.78994 -5.87292e-18)
(10.6439 -5.71497 6.25394e-18)
(10.6218 -5.58018 -5.20067e-18)
(10.5605 -5.40361 1.07117e-17)
(10.4708 -5.19975 -1.00359e-17)
(10.3612 -4.97886 2.38336e-19)
(10.2374 -4.74732 4.50637e-18)
(10.1024 -4.50867 4.01376e-18)
(9.95717 -4.26496 -4.17706e-18)
(9.80148 -4.01795 0)
(9.63525 -3.77 2.89298e-18)
(9.45917 -3.52455 -1.38061e-19)
(9.27512 -3.28623 -3.76301e-18)
(9.08633 -3.06076 0)
(8.89727 -2.85461 6.46748e-19)
(8.7133 -2.67453 2.10574e-18)
(8.54023 -2.52692 -2.04071e-18)
(8.38368 -2.41711 0)
(8.24834 -2.34858 0)
(8.13719 -2.3222 -2.23911e-19)
(8.05079 -2.33571 2.09565e-19)
(7.98681 -2.38358 1.19453e-18)
(7.94016 -2.45737 -1.94579e-18)
(7.9036 -2.54695 0)
(7.86685 -2.64372 3.20834e-19)
(7.81021 -2.74537 1.26282e-18)
(7.72176 -5.48133 -2.07811e-17)
(7.78938 -8.72901 3.10897e-17)
(2.58355 -5.0892 -1.55465e-17)
(8.60922 -10.1236 -1.25386e-17)
(21.2468 -16.9756 1.33134e-17)
(27.5953 -18.6006 0)
(26.9721 -15.2845 -1.03432e-17)
(23.4845 -10.3361 1.03311e-17)
(20.4158 -6.24339 3.55694e-18)
(18.7395 -4.43723 -3.63768e-18)
(17.6157 -4.50469 1.75335e-17)
(16.1312 -5.12355 -4.06768e-17)
(13.9222 -5.51091 5.26597e-17)
(11.0368 -5.48698 -6.28455e-17)
(7.78361 -5.07229 7.1077e-17)
(4.46547 -4.27045 -3.74165e-17)
(1.27425 -3.11711 -4.16009e-17)
(-1.69524 -1.66711 8.29789e-17)
(-4.40841 0.0574694 -4.24493e-17)
(-6.86437 2.05843 4.65566e-19)
(-9.11014 4.32886 -3.28944e-19)
(-11.209 6.85325 -3.82241e-17)
(-13.1649 9.628 3.82817e-17)
(-14.8887 12.5998 3.31672e-19)
(-16.1495 15.5432 0)
(-16.6948 17.927 2.32035e-19)
(-16.2596 19.2223 0)
(-14.7433 19.2795 1.34041e-17)
(-12.285 18.4093 -4.0766e-18)
(-9.23741 17.0273 -9.46584e-18)
(-6.10295 15.4004 -3.86811e-18)
(-3.21875 13.728 3.83528e-18)
(-0.844106 12.1731 1.53602e-19)
(0.904479 10.8357 9.10365e-20)
(2.03268 9.73443 6.41618e-19)
(2.64592 8.82144 -7.22818e-19)
(2.90363 8.00959 0)
(2.96092 7.2257 -6.74967e-19)
(2.9512 6.42437 7.45191e-19)
(2.97724 5.58612 1.50801e-19)
(3.10937 4.7055 -1.98252e-21)
(3.38488 3.77373 0)
(3.81835 2.78868 0)
(4.41868 1.78645 0)
(5.16826 0.800329 -1.3573e-19)
(6.01591 -0.157986 2.84898e-18)
(6.91135 -1.07354 -2.6235e-18)
(7.80666 -1.92406 0)
(8.65911 -2.68766 0)
(9.43366 -3.34553 3.246e-18)
(10.1035 -3.88398 -3.02599e-18)
(10.6502 -4.29601 3.19738e-18)
(11.0633 -4.58239 -2.36589e-18)
(11.3414 -4.75202 3.71015e-19)
(11.492 -4.82113 -2.53597e-18)
(11.5307 -4.81105 3.22613e-18)
(11.4793 -4.74481 -5.26328e-18)
(11.3618 -4.64333 4.88657e-18)
(11.2004 -4.52248 0)
(11.013 -4.39174 -2.80101e-19)
(10.8108 -4.25482 -4.25571e-18)
(10.5997 -4.11145 4.10156e-19)
(10.3816 -3.9596 8.00825e-18)
(10.1563 -3.7974 -7.11597e-18)
(9.92363 -3.62427 3.09977e-18)
(9.68453 -3.44144 3.22301e-18)
(9.44133 -3.25203 -2.38381e-18)
(9.19793 -3.06079 -3.71055e-19)
(8.95962 -2.87381 -2.70047e-18)
(8.7326 -2.69801 2.65102e-18)
(8.52351 -2.54064 -6.11237e-19)
(8.3387 -2.40858 -2.57277e-18)
(8.18341 -2.30753 2.2151e-18)
(8.06084 -2.24114 0)
(7.97133 -2.21033 -1.89355e-18)
(7.91183 -2.21275 4.92895e-19)
(7.87604 -2.24295 3.83487e-18)
(7.85514 -2.29306 -1.61855e-18)
(7.83792 -2.35515 1.46901e-18)
(7.80581 -2.42628 -1.43926e-18)
(-2.32774 2.41257 -3.53755e-17)
(-5.32999 -2.30469 0)
(1.85429 -1.4547 0)
(7.21338 -9.50644 -4.24705e-19)
(15.793 -13.2623 0)
(20.5892 -13.976 0)
(19.4083 -9.37622 0)
(12.7896 -1.21392 -1.78446e-19)
(5.58245 6.83897 0)
(1.32542 12.2259 4.91985e-19)
(-0.837792 15.1423 -4.97496e-17)
(-2.10029 16.8554 9.87585e-17)
(-2.83438 17.7731 -4.86465e-17)
(-3.33219 17.9343 0)
(-3.6529 17.829 2.61245e-20)
(-3.9728 17.9483 4.50956e-19)
(-4.57725 18.3794 0)
(-5.50561 18.9717 -3.33941e-17)
(-6.56573 19.4768 6.53758e-17)
(-7.49756 19.6511 -2.56287e-18)
(-8.12474 19.3475 -2.8594e-17)
(-8.42096 18.5861 1.12943e-19)
(-8.49914 17.5062 0)
(-8.52127 16.2624 1.84441e-17)
(-8.48562 14.9711 -1.94689e-17)
(-8.18902 13.5388 1.54971e-17)
(-7.3724 11.8242 -1.59642e-17)
(-5.98314 9.7648 -1.28392e-17)
(-4.28187 7.55099 1.29989e-17)
(-2.63402 5.44835 0)
(-1.27928 3.64276 9.11051e-18)
(-0.292128 2.21076 -9.19683e-18)
(0.370845 1.19117 -9.28578e-20)
(0.804302 0.586459 5.44382e-18)
(1.08197 0.370167 -5.5752e-18)
(1.28012 0.490932 4.81037e-20)
(1.46753 0.853231 1.62177e-21)
(1.70443 1.32616 2.05401e-18)
(2.0435 1.78385 -2.06265e-18)
(2.51925 2.12557 -5.8384e-19)
(3.14471 2.28637 7.27017e-19)
(3.91507 2.24683 -3.58133e-19)
(4.80115 2.02668 0)
(5.76306 1.64272 1.93635e-19)
(6.76101 1.11769 -2.07274e-18)
(7.75639 0.496898 5.362e-18)
(8.72066 -0.172743 -5.71038e-18)
(9.63035 -0.847692 2.75089e-18)
(10.462 -1.49209 0)
(11.1926 -2.07561 2.06514e-19)
(11.8001 -2.57439 -3.14167e-18)
(12.2646 -2.97263 3.1191e-18)
(12.5721 -3.26416 -1.93209e-20)
(12.7189 -3.45346 -2.85601e-18)
(12.7138 -3.55526 2.11857e-18)
(12.5797 -3.59197 -2.58922e-18)
(12.3492 -3.58882 -2.68801e-18)
(12.0592 -3.56819 5.19296e-18)
(11.7426 -3.54518 -4.51738e-18)
(11.4229 -3.52597 4.73131e-18)
(11.1129 -3.50917 0)
(10.8156 -3.489 -2.53251e-19)
(10.5285 -3.45855 -3.77746e-18)
(10.2474 -3.41208 3.24744e-18)
(9.96906 -3.34621 8.67594e-19)
(9.69215 -3.26008 0)
(9.4179 -3.15516 3.12938e-18)
(9.14958 -3.03482 -2.68294e-18)
(8.89208 -2.904 -3.51656e-19)
(8.65131 -2.76883 -3.44792e-19)
(8.43356 -2.63617 6.42471e-19)
(8.24475 -2.51309 -1.40243e-20)
(8.08952 -2.40619 -2.56892e-18)
(7.97029 -2.32082 2.2115e-18)
(7.88652 -2.26031 -2.63643e-19)
(7.83427 -2.22545 0)
(7.80645 -2.21435 -2.2346e-18)
(7.79376 -2.22271 1.73982e-18)
(7.78539 -2.24501 0)
(7.76537 -2.27938 -1.50371e-18)
(3.32186 -1.55776 -1.38321e-18)
(20.4087 -5.75385 -8.98098e-18)
(38.6261 -19.8059 -1.41175e-18)
(56.0627 -27.8896 8.50955e-18)
(67.0514 -35.3615 -7.13303e-18)
(74.3226 -39.9125 -2.7768e-19)
(76.0553 -41.6492 -2.32768e-17)
(71.9175 -39.3046 2.46476e-17)
(62.745 -33.7211 3.51479e-19)
(49.7391 -26.3392 -1.46133e-19)
(34.9889 -17.7747 3.95785e-17)
(21.5559 -9.30699 4.1683e-17)
(12.4587 -2.64432 -8.43722e-17)
(9.04934 1.39417 8.24048e-17)
(9.80915 3.15778 -1.62964e-16)
(11.3548 3.9191 8.04665e-17)
(11.1498 4.91826 0)
(8.88766 6.48824 0)
(5.47657 8.26567 -5.60866e-17)
(1.66389 9.91277 6.68629e-18)
(-2.24123 11.406 4.93297e-17)
(-6.1464 12.8246 -3.72639e-17)
(-9.91685 14.248 7.01513e-17)
(-13.4052 15.5163 -3.24257e-17)
(-16.3313 16.4785 -2.38351e-17)
(-18.3418 16.9872 3.86972e-18)
(-19.2143 16.9446 2.10701e-17)
(-18.8782 16.2636 -1.90581e-20)
(-17.3683 14.9888 1.4503e-20)
(-14.7981 13.2186 -1.59051e-20)
(-11.3858 11.0907 0)
(-7.42438 8.8035 -3.28471e-18)
(-3.27079 6.58684 4.65724e-18)
(0.6907 4.6371 -1.33599e-18)
(4.13266 3.11063 0)
(6.84922 2.08642 -2.60249e-18)
(8.77405 1.58075 2.64794e-18)
(9.94741 1.56686 0)
(10.488 1.94646 0)
(10.575 2.57172 -4.43947e-18)
(10.4032 3.27234 4.51308e-18)
(10.1525 3.89417 -6.20658e-20)
(9.9631 4.3319 0)
(9.93275 4.53942 4.15827e-18)
(10.1062 4.49856 -3.44583e-19)
(10.4767 4.2281 -4.417e-18)
(11.0009 3.77132 -2.03804e-19)
(11.6167 3.18131 4.11058e-19)
(12.2561 2.51592 0)
(12.8507 1.82828 -3.52107e-18)
(13.3384 1.16267 6.39163e-18)
(13.6687 0.552364 -3.26446e-18)
(13.8083 0.0181246 -3.63647e-19)
(13.7472 -0.432775 -2.95196e-18)
(13.5013 -0.806214 4.39753e-19)
(13.1113 -1.1185 4.80033e-18)
(12.6352 -1.3907 -1.76417e-18)
(12.1332 -1.64145 0)
(11.6536 -1.88144 0)
(11.2235 -2.11188 2.44987e-19)
(10.8488 -2.32694 2.39327e-19)
(10.5212 -2.51796 0)
(10.2268 -2.67706 3.43365e-18)
(9.95268 -2.79909 -3.37543e-18)
(9.6901 -2.88197 -3.84985e-18)
(9.43476 -2.92627 -3.5717e-19)
(9.18608 -2.93453 2.82185e-18)
(8.94616 -2.91079 -3.0304e-18)
(8.71882 -2.86028 2.96019e-18)
(8.50883 -2.78915 -9.77233e-21)
(8.32127 -2.70424 2.31073e-18)
(8.16073 -2.61274 -2.25922e-18)
(8.03052 -2.52163 -2.08744e-18)
(7.93192 -2.43715 2.60884e-18)
(7.86355 -2.36415 -1.87256e-18)
(7.82125 -2.30563 2.07408e-18)
(7.79839 -2.26251 -1.90424e-18)
(7.78697 -2.23363 3.64013e-18)
(7.77844 -2.2164 -4.91412e-20)
(7.76073 -2.21344 -4.96357e-20)
(-5.3747 1.99144 -1.53379e-17)
(-11.6532 1.93384 -6.00775e-20)
(-12.7015 0.475429 2.16641e-17)
(-14.4572 -4.4984 -4.307e-17)
(-17.0603 -8.39492 2.14754e-17)
(-19.9799 -12.5029 -1.81362e-17)
(-22.5559 -16.8783 2.35723e-18)
(-24.362 -21.2184 1.69434e-17)
(-25.0602 -25.6081 -1.05785e-17)
(-23.6912 -30.3884 1.06041e-17)
(-18.4888 -36.2871 -8.89641e-19)
(-7.77594 -43.9201 1.21267e-18)
(8.03094 -52.6951 1.14506e-17)
(24.4629 -59.4987 -1.19044e-17)
(33.946 -60.126 -1.60822e-19)
(31.635 -53.632 -1.31528e-19)
(20.7579 -43.4476 4.30286e-17)
(9.32726 -33.4379 -4.39494e-17)
(2.04288 -25.2335 1.22786e-19)
(-1.63201 -18.8981 4.10312e-19)
(-3.48371 -13.9434 3.72368e-17)
(-4.32575 -9.85759 -3.72514e-17)
(-4.33902 -6.32851 0)
(-3.6413 -3.30689 -1.81822e-19)
(-2.31471 -0.699362 0)
(-0.464763 1.52871 0)
(1.79272 3.43382 -4.95338e-20)
(4.31197 5.11919 -1.19909e-17)
(6.90975 6.66099 1.21294e-17)
(9.39235 8.13441 7.70294e-18)
(11.5713 9.56948 -7.74785e-18)
(13.2848 10.953 1.82931e-20)
(14.4197 12.2422 -3.69384e-20)
(14.9458 13.3777 0)
(14.9245 14.2977 -2.62025e-20)
(14.477 14.9389 0)
(13.762 15.2864 0)
(12.9248 15.372 -4.98939e-20)
(12.0785 15.24 0)
(11.3125 14.9335 0)
(10.6989 14.4968 2.5387e-18)
(10.2923 13.9686 -2.32216e-18)
(10.1197 13.3513 0)
(10.1806 12.6484 0)
(10.4526 11.8669 0)
(10.8891 11.0106 -1.39486e-19)
(11.4241 10.0827 2.02883e-19)
(11.9841 9.09718 2.29996e-18)
(12.4939 8.07205 -2.48759e-18)
(12.8847 7.02843 2.3663e-18)
(13.1021 5.98893 -2.66106e-18)
(13.1125 4.97573 2.94698e-19)
(12.9086 4.00856 1.27212e-19)
(12.5141 3.10218 0)
(11.9839 2.26401 0)
(11.3967 1.49378 -1.72846e-18)
(10.8359 0.786662 -2.58251e-19)
(10.3644 0.138684 1.91639e-18)
(10.0084 -0.449654 -1.89923e-18)
(9.75801 -0.973775 1.86028e-18)
(9.58269 -1.42838 3.46909e-18)
(9.44828 -1.81074 1.864e-21)
(9.32829 -2.12198 -6.94124e-18)
(9.20699 -2.36636 3.51427e-18)
(9.07766 -2.54988 2.15917e-19)
(8.93948 -2.6791 4.15381e-19)
(8.79485 -2.76045 3.20326e-18)
(8.64786 -2.80022 -6.22248e-18)
(8.5033 -2.80462 3.01886e-18)
(8.36623 -2.77999 3.54872e-19)
(8.24142 -2.73284 2.72901e-18)
(8.1329 -2.66982 -2.99366e-18)
(8.04341 -2.5974 0)
(7.97389 -2.52161 -2.92074e-19)
(7.92321 -2.44754 0)
(7.88822 -2.37906 2.11856e-18)
(7.86419 -2.31855 -5.23234e-20)
(7.84578 -2.26672 -1.94142e-18)
(7.82765 -2.2232 1.31967e-18)
(7.80203 -2.19401 3.9141e-19)
(5.27938 -0.949222 -3.31644e-17)
(12.5043 -2.6221 4.98765e-17)
(17.6946 -3.73718 8.61376e-20)
(21.2171 -4.86495 4.83429e-17)
(23.4302 -6.03779 -4.93656e-17)
(24.835 -6.65029 4.59357e-17)
(25.6224 -6.33812 -9.11538e-17)
(26.1732 -5.02595 4.47889e-17)
(27.0453 -2.81427 -4.07979e-17)
(28.7538 0.0593634 4.10857e-17)
(31.5417 3.31784 0)
(35.277 6.47537 -2.35565e-19)
(39.4368 8.91577 -6.16286e-20)
(42.9989 10.3606 0)
(44.5014 11.2659 0)
(42.8015 12.7208 0)
(38.0202 15.7243 0)
(31.4628 20.3822 -1.36389e-20)
(24.648 25.8632 0)
(18.5154 31.2169 -4.69135e-18)
(13.3555 35.9197 4.03042e-18)
(9.14307 39.8203 1.77788e-19)
(5.80917 42.8522 -4.70551e-19)
(3.31942 44.9613 5.73792e-18)
(1.72042 46.0355 -5.73673e-18)
(1.12729 46.0423 9.18555e-18)
(1.73599 44.829 -9.27642e-18)
(3.59509 42.3138 1.00842e-17)
(6.3918 38.6994 -6.45099e-19)
(9.54868 34.509 -9.80517e-18)
(12.4653 30.3214 0)
(14.6667 26.5108 -6.98398e-20)
(15.8785 23.2265 -2.32348e-20)
(16.0724 20.4768 0)
(15.4481 18.1873 2.61216e-20)
(14.3084 16.2481 0)
(12.9501 14.5808 0)
(11.6115 13.159 6.43814e-19)
(10.4363 11.9694 -1.43606e-18)
(9.50188 10.9964 9.21711e-19)
(8.83681 10.213 1.2948e-18)
(8.43421 9.57846 -1.37259e-18)
(8.2628 9.04537 -7.08715e-20)
(8.27525 8.57324 0)
(8.41519 8.1289 2.012e-18)
(8.62165 7.68385 -1.73253e-18)
(8.83233 7.21687 0)
(8.98959 6.71309 0)
(9.04613 6.16325 -1.8922e-18)
(8.97139 5.56356 2.15464e-18)
(8.75733 4.91532 2.25561e-18)
(8.42319 4.22503 -2.10632e-18)
(8.01786 3.50449 -2.04173e-18)
(7.61641 2.76924 3.78515e-18)
(7.30382 2.0355 -1.86912e-18)
(7.14603 1.31865 -4.86337e-19)
(7.16351 0.63447 0)
(7.32598 0.000123968 2.43923e-19)
(7.57208 -0.568785 -1.62713e-18)
(7.83772 -1.06232 3.47624e-18)
(8.07607 -1.47803 -1.83776e-18)
(8.26307 -1.81972 0)
(8.39284 -2.09457 -2.25317e-19)
(8.46999 -2.31061 0)
(8.50337 -2.47524 -2.1603e-19)
(8.50247 -2.59482 -2.17836e-19)
(8.476 -2.67474 -4.2296e-19)
(8.43158 -2.71982 -3.18398e-18)
(8.37586 -2.73464 2.71523e-18)
(8.31462 -2.72377 -3.79862e-19)
(8.25271 -2.69189 -2.83002e-18)
(8.19396 -2.64383 3.44091e-18)
(8.14095 -2.58436 -2.58239e-18)
(8.09487 -2.51804 2.51124e-18)
(8.05548 -2.44894 -2.63748e-18)
(8.02134 -2.38039 1.98149e-18)
(7.99018 -2.31482 2.0965e-18)
(7.95963 -2.2535 -2.03217e-18)
(7.92751 -2.19741 4.62466e-19)
(7.88984 -2.15447 -4.4164e-19)
(-3.65464 1.04151 -1.8192e-17)
(-24.5746 9.29976 -2.73424e-17)
(-50.2743 19.4863 5.50037e-17)
(-69.0425 26.3103 -5.64234e-17)
(-75.4335 27.734 2.89195e-17)
(-70.3003 23.8139 -6.82411e-20)
(-56.41 16.1215 -3.08461e-17)
(-37.3488 6.70808 6.28805e-17)
(-16.374 -2.52046 -6.52925e-20)
(3.88485 -10.1636 -3.20131e-17)
(21.1798 -15.4736 4.32619e-19)
(33.7487 -18.5051 2.68712e-17)
(41.0201 -20.1933 -2.73662e-17)
(43.9676 -21.8173 2.16506e-17)
(44.3525 -24.0618 -2.20263e-17)
(43.5528 -26.6658 -1.66374e-17)
(42.1515 -28.9541 1.69128e-17)
(40.2669 -30.4354 1.36903e-20)
(37.8985 -30.9266 0)
(35.0416 -30.4298 8.12687e-18)
(31.7042 -29.0412 -8.18972e-18)
(27.9274 -26.8744 -3.44179e-20)
(23.7658 -24.0964 -3.35541e-18)
(19.2704 -20.8448 3.37266e-18)
(14.513 -17.3277 1.35465e-19)
(9.56984 -13.5862 0)
(4.48075 -9.71988 -6.90333e-20)
(-0.402048 -6.15733 2.62399e-20)
(-4.46397 -3.43086 9.55357e-19)
(-7.20779 -1.74648 -9.09007e-19)
(-8.70915 -0.823144 1.11186e-18)
(-9.51668 -0.226786 -1.00038e-18)
(-10.1721 0.321643 1.42696e-19)
(-10.8449 0.882931 -4.56155e-18)
(-11.2998 1.36782 9.375e-18)
(-11.1888 1.63701 -4.93607e-18)
(-10.36 1.61352 -4.69024e-18)
(-8.92093 1.34111 4.83732e-18)
(-7.14113 0.934073 2.04071e-20)
(-5.26408 0.484596 -9.37163e-20)
(-3.45925 0.0488166 7.51879e-20)
(-1.83086 -0.353986 -3.07665e-18)
(-0.429675 -0.71891 3.02806e-19)
(0.725466 -1.04987 2.85364e-18)
(1.63299 -1.34987 -2.69278e-18)
(2.30023 -1.61559 2.55135e-18)
(2.74111 -1.83792 0)
(2.97907 -2.00558 2.52629e-18)
(3.05297 -2.11073 -2.49858e-18)
(3.02276 -2.15497 2.1786e-18)
(2.96932 -2.15261 -1.51646e-19)
(2.98311 -2.12831 -2.00973e-20)
(3.14146 -2.1081 -2.17244e-20)
(3.48375 -2.10948 -1.98842e-20)
(3.9989 -2.13714 -2.14923e-18)
(4.63274 -2.18705 1.08731e-19)
(5.31112 -2.25158 0)
(5.96499 -2.32357 -2.30206e-18)
(6.5463 -2.39859 1.78552e-18)
(7.03254 -2.47346 0)
(7.42157 -2.54525 -2.24527e-18)
(7.7229 -2.611 1.69979e-18)
(7.9502 -2.66785 0)
(8.11692 -2.71334 -2.42598e-19)
(8.23463 -2.74561 0)
(8.31286 -2.76354 -3.33593e-18)
(8.35951 -2.76672 7.1219e-18)
(8.38127 -2.75535 -3.3662e-18)
(8.38389 -2.73025 3.94995e-19)
(8.37234 -2.69275 3.79968e-19)
(8.35076 -2.64461 -2.95167e-18)
(8.32251 -2.58795 2.52637e-18)
(8.29007 -2.52508 -3.47558e-19)
(8.25506 -2.45837 -3.31035e-19)
(8.21826 -2.39001 6.16381e-19)
(8.17982 -2.3219 2.86282e-19)
(8.13946 -2.25549 2.47154e-18)
(8.09694 -2.19153 -5.29606e-20)
(8.05204 -2.13127 -2.25593e-18)
(8.00288 -2.08262 -4.82194e-19)
(-24.5714 8.02412 0)
(-44.8788 13.069 3.95256e-19)
(-37.9215 6.72262 -1.67668e-19)
(-22.8998 -2.49503 6.9011e-17)
(-10.4802 -8.50863 -1.35292e-16)
(2.97602 -14.3526 1.25667e-16)
(20.1995 -21.7866 -6.08689e-17)
(42.6838 -31.6651 0)
(69.3682 -43.7831 -5.77699e-19)
(94.3891 -55.5852 2.90786e-17)
(107.053 -61.9185 -3.01752e-17)
(98.6798 -58.5848 -1.51535e-17)
(72.0877 -47.5837 2.62041e-17)
(41.2419 -35.9356 -3.34991e-18)
(18.9376 -28.6928 -2.48919e-18)
(7.61894 -25.8446 -5.75264e-18)
(2.85367 -25.3237 8.38565e-20)
(0.505323 -25.6861 4.77496e-19)
(-1.20798 -26.2453 -5.57483e-19)
(-2.8829 -26.6709 -6.30491e-20)
(-4.78152 -26.8084 6.55105e-20)
(-7.02194 -26.6131 1.68016e-19)
(-9.58991 -26.1106 -4.59476e-18)
(-12.3281 -25.3043 -3.83731e-19)
(-14.9197 -24.1633 5.09583e-18)
(-16.9249 -22.7985 1.43257e-19)
(-18.0571 -21.4214 -5.36622e-18)
(-18.0662 -20.2305 1.02404e-17)
(-16.9474 -19.2634 -9.14728e-18)
(-15.0026 -18.3731 4.16153e-18)
(-12.6941 -17.4341 0)
(-10.4052 -16.4549 -5.19211e-18)
(-8.33864 -15.4688 9.31784e-18)
(-6.55917 -14.459 -4.16812e-18)
(-5.05668 -13.415 2.82506e-18)
(-3.78931 -12.3753 -3.09401e-18)
(-2.7278 -11.3895 -1.15944e-19)
(-1.85844 -10.4955 0)
(-1.18339 -9.70125 6.54389e-21)
(-0.685893 -9.01226 -1.96078e-18)
(-0.340011 -8.41581 2.16783e-18)
(-0.105095 -7.89916 -1.04593e-19)
(0.0697817 -7.45515 1.03533e-19)
(0.238491 -7.08054 0)
(0.448138 -6.77139 0)
(0.730851 -6.51949 2.40892e-18)
(1.10015 -6.3101 -2.79654e-18)
(1.55244 -6.12259 -1.57311e-19)
(2.07237 -5.93398 -2.63139e-18)
(2.63959 -5.72421 5.40629e-18)
(3.23423 -5.48137 -2.41011e-18)
(3.8395 -5.20468 0)
(4.44092 -4.90373 2.64779e-18)
(5.02396 -4.59458 -2.45456e-18)
(5.57342 -4.29477 0)
(6.07579 -4.01929 2.48856e-18)
(6.52261 -3.77813 -2.32044e-18)
(6.91219 -3.57569 2.27235e-18)
(7.24782 -3.41114 -1.94495e-18)
(7.5349 -3.27985 0)
(7.77851 -3.1753 5.40448e-19)
(7.98252 -3.09077 2.53916e-19)
(8.14993 -3.02021 -2.04848e-18)
(8.28347 -2.95861 2.59079e-19)
(8.38604 -2.90207 1.95459e-18)
(8.46084 -2.84765 0)
(8.51125 -2.79317 2.22189e-19)
(8.54069 -2.73712 0)
(8.55245 -2.67858 0)
(8.54956 -2.61718 -3.22329e-18)
(8.53475 -2.55302 3.14255e-18)
(8.51037 -2.48655 2.56787e-18)
(8.47837 -2.41853 2.89408e-19)
(8.4403 -2.34982 -2.40311e-18)
(8.39732 -2.28132 -2.85624e-18)
(8.35025 -2.21384 2.46741e-18)
(8.29969 -2.14798 -2.82781e-19)
(8.24626 -2.08403 -2.15451e-18)
(8.19045 -2.02316 4.63383e-18)
(8.13121 -1.97262 -1.51298e-18)
(-0.357638 3.14856 1.70626e-16)
(10.1883 14.0074 -1.26762e-16)
(18.8015 11.9858 -1.12024e-16)
(26.6059 19.2682 1.14704e-16)
(30.541 19.8226 1.28575e-19)
(36.7228 19.3444 1.10432e-19)
(43.9308 16.7634 0)
(49.4065 13.1835 6.59344e-17)
(50.8676 9.5159 -6.76666e-17)
(47.8423 5.87022 0)
(41.4851 2.09219 -3.97447e-17)
(33.7823 -1.59121 7.3532e-17)
(26.7731 -4.67615 -6.40901e-18)
(21.869 -6.90628 -4.96999e-17)
(19.3522 -8.47344 2.26253e-17)
(18.4531 -9.73307 9.30171e-20)
(18.1334 -10.8983 1.14292e-19)
(17.6875 -11.9719 0)
(16.7741 -12.8845 8.03576e-18)
(15.2858 -13.6117 -8.11215e-18)
(13.2756 -14.1669 7.25136e-20)
(10.9029 -14.5867 4.58482e-18)
(8.41339 -14.893 -4.6708e-18)
(6.11297 -15.0776 3.70045e-18)
(4.26765 -15.1433 -3.75592e-18)
(3.0245 -15.1676 -1.43509e-19)
(2.39987 -15.1808 3.36754e-18)
(2.3107 -15.0746 -1.23635e-19)
(2.57227 -14.7603 -6.03871e-18)
(2.93325 -14.2484 1.27487e-20)
(3.20787 -13.5811 2.82426e-18)
(3.31886 -12.7966 2.78002e-18)
(3.26917 -11.9365 -2.97449e-18)
(3.10052 -11.0517 0)
(2.86356 -10.2113 1.29209e-19)
(2.61775 -9.48669 1.19582e-19)
(2.41007 -8.93433 0)
(2.27593 -8.57088 4.77258e-18)
(2.22878 -8.36764 -4.90251e-18)
(2.2711 -8.26618 -1.06194e-19)
(2.39896 -8.20185 0)
(2.60122 -8.12343 1.04499e-19)
(2.8621 -8.00134 4.20599e-18)
(3.16403 -7.82554 -4.16867e-18)
(3.49176 -7.60059 0)
(3.83354 -7.3384 -3.37555e-18)
(4.18003 -7.05241 3.88552e-18)
(4.52345 -6.75414 0)
(4.85812 -6.45183 0)
(5.18136 -6.15076 -1.83247e-19)
(5.49398 -5.8544 -1.78873e-19)
(5.79933 -5.5657 0)
(6.10142 -5.28769 2.75252e-18)
(6.4029 -5.0234 -2.89581e-18)
(6.70374 -4.77512 -2.76034e-18)
(7.00099 -4.54374 2.23275e-19)
(7.28924 -4.32865 5.26774e-18)
(7.56176 -4.12834 -5.12553e-18)
(7.81187 -3.94116 -2.63509e-19)
(8.03422 -3.76592 2.12305e-18)
(8.2256 -3.60206 -2.81912e-19)
(8.38512 -3.44937 0)
(8.5138 -3.30766 0)
(8.61397 -3.17652 2.13469e-18)
(8.68858 -3.0552 -2.36094e-18)
(8.74072 -2.94262 0)
(8.77326 -2.83753 2.48561e-19)
(8.78876 -2.73861 0)
(8.78944 -2.64468 1.76703e-18)
(8.77726 -2.55481 -1.72426e-18)
(8.754 -2.46833 4.1801e-19)
(8.72127 -2.38489 3.46552e-18)
(8.68058 -2.30436 -3.00205e-18)
(8.6333 -2.22674 3.60354e-19)
(8.58061 -2.15212 0)
(8.5235 -2.08057 0)
(8.46281 -2.01207 0)
(8.39931 -1.94648 -2.5273e-18)
(8.33354 -1.88465 -2.04056e-19)
(8.26469 -1.83276 4.08519e-18)
(14.2214 -6.10982 -1.05741e-17)
(10.5451 -6.78446 -1.44221e-17)
(-22.8307 1.33667 1.47538e-17)
(-62.0478 11.2539 -9.79405e-18)
(-89.7551 17.7568 1.02521e-17)
(-103.033 20.2265 2.03497e-19)
(-101.627 18.1769 1.71717e-19)
(-89.8227 12.5927 0)
(-74.2515 5.57525 2.67152e-19)
(-59.9968 -0.895578 0)
(-49.0211 -5.77607 6.19557e-20)
(-41.098 -8.90716 -1.07067e-17)
(-35.2588 -10.5858 1.09549e-17)
(-30.5888 -11.2518 1.14661e-17)
(-26.4399 -11.3195 -1.16616e-17)
(-22.4511 -11.0757 1.16187e-17)
(-18.5747 -10.6394 -1.2124e-17)
(-15.0187 -9.98357 0)
(-12.0579 -9.01721 0)
(-9.82168 -7.70122 0)
(-8.23051 -6.12384 -1.12558e-17)
(-7.058 -4.48694 2.2492e-17)
(-5.98035 -3.04937 -3.32875e-19)
(-4.62044 -2.06869 -2.24602e-17)
(-2.67903 -1.71686 1.16113e-17)
(-0.0810249 -1.99553 0)
(2.97676 -2.6983 2.9325e-19)
(6.10391 -3.52822 0)
(8.90668 -4.2366 -1.05024e-17)
(11.0904 -4.70248 1.0382e-17)
(12.4963 -4.92046 -3.3157e-20)
(13.0846 -4.9264 0)
(12.8495 -4.7532 7.75152e-18)
(11.7974 -4.42171 -1.45615e-17)
(10.0006 -3.95424 6.94949e-18)
(7.67254 -3.42583 -5.07308e-18)
(5.19791 -2.96816 9.49904e-18)
(3.03851 -2.70435 -4.41643e-18)
(1.53502 -2.70891 0)
(0.788576 -2.98189 0)
(0.685649 -3.44798 0)
(1.00489 -4.01618 2.52267e-18)
(1.53825 -4.59273 -7.4147e-18)
(2.14798 -5.10781 4.74984e-18)
(2.76335 -5.52796 0)
(3.35773 -5.84472 -4.30021e-18)
(3.9268 -6.0614 4.16726e-18)
(4.47355 -6.18658 3.91004e-18)
(5.00113 -6.23042 -3.6875e-19)
(5.51039 -6.20308 -1.00994e-19)
(5.99974 -6.1143 -9.56724e-20)
(6.46573 -5.97349 -3.52424e-18)
(6.90392 -5.78987 0)
(7.30944 -5.57259 0)
(7.67771 -5.33064 -2.89852e-18)
(8.00493 -5.07269 3.09129e-18)
(8.28859 -4.80686 0)
(8.5278 -4.54049 0)
(8.72344 -4.27988 1.78966e-19)
(8.87796 -4.03013 3.17335e-19)
(8.99509 -3.79505 0)
(9.07938 -3.57718 0)
(9.13573 -3.37786 -3.08795e-19)
(9.16895 -3.19725 -2.97108e-19)
(9.18343 -3.03453 2.46393e-18)
(9.18278 -2.88811 -4.2608e-18)
(9.16977 -2.75591 -2.0938e-19)
(9.14639 -2.63562 3.92189e-18)
(9.11397 -2.52506 -3.99455e-18)
(9.07348 -2.42233 3.58746e-18)
(9.0257 -2.326 -6.74562e-19)
(8.97143 -2.23507 -1.64864e-18)
(8.91152 -2.14892 3.06349e-18)
(8.84687 -2.0672 -5.70916e-20)
(8.77834 -1.98972 -5.57877e-18)
(8.70672 -1.91635 3.00976e-18)
(8.63266 -1.84686 0)
(8.55674 -1.78101 5.87603e-19)
(8.47928 -1.7195 0)
(8.39953 -1.66748 -2.0818e-18)
(-8.77264 0.468664 0)
(-11.5283 -2.07673 5.45939e-20)
(-5.26078 -6.86508 -4.87624e-20)
(3.49149 -11.8822 5.17328e-17)
(10.3401 -14.1319 -1.02472e-16)
(14.5469 -14.769 5.01918e-17)
(16.8803 -14.5574 -1.70732e-19)
(18.6556 -14.3786 0)
(20.6838 -14.8559 0)
(23.1293 -16.0738 0)
(25.8158 -17.8312 -6.131e-20)
(28.4985 -19.8459 7.37613e-21)
(30.9583 -21.9115 0)
(32.9972 -23.8623 -6.07308e-20)
(34.5939 -25.6108 -1.42764e-19)
(35.8813 -27.1435 -5.07229e-18)
(36.9759 -28.4828 5.26249e-18)
(37.7682 -29.6294 1.09099e-19)
(37.9591 -30.3389 0)
(37.1817 -30.2024 -7.17302e-20)
(35.0361 -28.9597 -1.37296e-19)
(31.1165 -26.5048 8.84246e-18)
(25.3322 -22.8997 7.45761e-19)
(18.2612 -18.6223 -9.76547e-18)
(11.088 -14.4374 -3.27905e-19)
(5.08547 -11.0755 2.39178e-20)
(1.02592 -8.92818 -7.66946e-18)
(-1.08757 -8.01273 7.37422e-18)
(-1.87208 -8.0402 5.73523e-20)
(-2.12521 -8.62351 2.45951e-19)
(-2.38776 -9.45671 2.31526e-19)
(-2.8138 -10.3591 -4.85344e-18)
(-3.32815 -11.2158 4.90549e-18)
(-3.81078 -11.9452 2.85842e-19)
(-4.17101 -12.4863 -1.74664e-19)