/*--------------------------------*- C++ -*----------------------------------*\
| =========                 |                                                 |
| \\      /  F ield         | OpenFOAM: The Open Source CFD Toolbox           |
|  \\    /   O peration     | Version:  2012                                  |
|   \\  /    A nd           | Website:  www.openfoam.com                      |
|    \\/     M anipulation  |                                                 |
\*---------------------------------------------------------------------------*/
FoamFile
{
    version     2.0;
    format      ascii;
    class       surfaceScalarField;
    location    "1.4";
    object      phi;
}
// * * * * * * * * * * * * * * * * * * * * * * * * * * * * * * * * * * * * * //

dimensions      [0 3 -1 0 0 0 0];
oriented        oriented;


internalField   nonuniform List<scalar> 
84340
(
0.000223439
0.000111886
-0.000335326
0.000466764
0.00039792
-0.000641244
0.000565145
0.00062091
-0.000719291
0.000539677
0.000715119
-0.000689651
0.000413887
0.000700321
-0.000574531
0.000162373
0.000581702
-0.000330187
-0.000244659
0.000349275
5.77571e-05
-0.000769712
1.26126e-05
0.000512441
-0.00129297
-0.000315653
0.000838913
-0.00170908
-0.000423821
0.00083993
-0.00201796
-0.000191725
0.000500607
-0.002285
0.000254772
1.22644e-05
-0.00255665
0.000674296
-0.000402642
-0.00284635
0.00093634
-0.000646639
-0.00315651
0.00105882
-0.000748658
-0.00348256
0.00110142
-0.000775374
-0.00381699
0.00110111
-0.000766678
-0.00415148
0.00107453
-0.000740029
-0.00448673
0.00103327
-0.000698024
-0.00481837
0.000981788
-0.000650149
-0.005162
0.000918068
-0.000574442
-0.00553688
0.000846778
-0.000471889
-0.00595719
0.000782085
-0.000361777
-0.00640341
0.000715237
-0.000269018
-0.00682197
0.000612465
-0.00019391
-0.00715677
0.000451273
-0.000116471
-0.00736228
0.000232709
-2.72009e-05
-0.00739816
-3.2148e-05
6.80315e-05
-0.00723365
-0.000330019
0.000165502
-0.00685336
-0.000638456
0.00025817
-0.00627365
-0.000926792
0.000347084
-0.00554227
-0.00116132
0.000429942
-0.00472632
-0.00131677
0.00050082
-0.0038934
-0.00138319
0.000550266
-0.00310149
-0.00136475
0.000572843
-0.00239574
-0.00127446
0.000568712
-0.00180772
-0.00113197
0.00054395
-0.00135334
-0.000961891
0.000507512
-0.00103105
-0.000790207
0.000467918
-0.00082318
-0.000639016
0.000431149
-0.000701777
-0.000521742
0.000400338
-0.000636802
-0.000441413
0.000376438
-0.000602703
-0.00039317
0.000359071
-0.000581571
-0.000368494
0.000347362
-0.000562926
-0.000358802
0.000340157
-0.000541588
-0.00035772
0.000336382
-0.000515597
-0.000361153
0.000335162
-0.000484608
-0.000366763
0.000335774
-0.000448945
-0.000373256
0.000337593
-0.000409115
-0.00037989
0.00034006
-0.00036557
-0.000386227
0.000342683
-0.000318615
-0.000392019
0.000345064
-0.000268392
-0.000397149
0.000346925
-0.000214903
-0.000401602
0.000348114
-0.000158065
-0.000405442
0.000348604
-9.77527e-05
-0.000408788
0.000348475
-3.38495e-05
-0.000411799
0.000347896
3.37185e-05
-0.000414666
0.000347098
0.000104954
-0.000417585
0.000346349
0.00017977
-0.000420743
0.000345928
0.000257968
-0.0004243
0.000346101
0.000339243
-0.000428367
0.000347092
0.000423173
-0.000433
0.000349069
0.000509244
-0.000438191
0.000352119
0.000596869
-0.000443862
0.000356237
0.000685421
-0.000449864
0.000361313
0.000774277
-0.00045598
0.000367124
0.000862869
-0.000461923
0.00037333
0.000950739
-0.000467338
0.000379468
0.0010376
-0.000471808
0.000384947
0.0011234
-0.000474853
0.000389055
0.00120838
-0.000475939
0.000390958
0.00129312
-0.00047448
0.000389738
0.00137859
-0.000469864
0.000384394
0.00146605
-0.000461485
0.000374026
0.00155704
-0.00044878
0.00035779
0.00165306
-0.000431314
0.00033529
0.00175507
-0.000408732
0.000306728
0.00186536
-0.000381699
0.000271408
-0.000345205
0.000242653
0.00196791
3.20004e-05
7.98859e-05
0.000144633
0.000285287
0.000327048
0.000438495
0.000622127
0.00042004
0.00100644
0.000316008
0.00135533
0.000232814
0.00154662
0.000157978
0.00150409
5.51494e-05
0.00125335
-6.49183e-05
0.000983204
-0.000153672
0.000965886
-0.000174407
0.00135239
-0.000131734
0.00208911
-6.24241e-05
0.00302759
-2.1392e-06
0.00405115
3.5263e-05
0.00509861
5.39582e-05
0.00613124
6.84788e-05
0.00710574
0.000100026
0.00797494
0.000164071
0.00869615
0.000260575
0.00923439
0.000379828
0.00956668
0.000514486
0.00969641
0.000652356
0.00965215
0.000759494
0.00944691
0.00081771
0.00910262
0.000795564
0.00863604
0.000699284
0.0080484
0.000555497
0.00737184
0.000346544
0.00663694
9.64425e-05
0.00587932
-0.000169178
0.00513902
-0.000421026
0.00445406
-0.00063181
0.00385095
-0.000780073
0.00333811
-0.000851916
0.00290627
-0.000842618
0.00253528
-0.000760986
0.00220389
-0.000630496
0.00189731
-0.00048363
0.00160952
-0.000351229
0.00134137
-0.000253587
0.00109692
-0.000196963
0.000879406
-0.000175657
0.000688961
-0.000178049
0.000526035
-0.000195876
0.000388816
-0.000220502
0.000274784
-0.000247121
0.000181231
-0.000273211
0.000105623
-0.000297648
4.58024e-05
-0.000320069
5.37524e-08
-0.000340479
-3.29299e-05
-0.000359035
-5.41337e-05
-0.000375945
-6.43309e-05
-0.000391405
-6.41863e-05
-0.000405587
-5.43307e-05
-0.000418643
-3.53966e-05
-0.000430733
-8.02482e-06
-0.000442038
2.7142e-05
-0.000452752
6.9463e-05
-0.000463064
0.000118298
-0.000473134
0.000173
-0.000483069
0.000232916
-0.000492916
0.000297382
-0.000502657
0.000365738
-0.000512217
0.000437337
-0.000521463
0.000511571
-0.000530215
0.000587896
-0.000538248
0.000665862
-0.000545304
0.00074515
-0.000551097
0.000825619
-0.000555322
0.000907346
-0.000557666
0.00099068
-0.000557814
0.00107628
-0.000555463
0.00116513
-0.000550339
0.00125857
-0.000542218
0.00135822
-0.000530964
0.00146605
-0.000516559
0.00158393
-0.000499577
-0.000477538
0.00171626
6.50668e-05
1.48191e-05
0.000261276
8.90781e-05
0.000660666
3.91052e-05
0.00128941
-0.000208704
0.00214269
-0.000537275
0.00323048
-0.000854975
0.00440521
-0.00101675
0.00533347
-0.000873105
0.00575794
-0.000489392
0.00572643
-0.000122163
0.00546187
9.01562e-05
0.00517731
0.00015283
0.00500127
0.000113613
0.00498145
1.76757e-05
0.00511342
-9.67008e-05
0.00535657
-0.000189199
0.0056688
-0.00024375
0.00599323
-0.000224403
0.00629157
-0.000134267
0.00655476
-2.61355e-06
0.00679161
0.000142978
0.00703118
0.000274911
0.00731808
0.000365463
0.00766387
0.000413698
0.00805692
0.000424658
0.00844111
0.000411378
0.00875102
0.000389373
0.00893553
0.000370988
0.0089212
0.000360871
0.0086625
0.00035514
0.00815011
0.000343217
0.00741538
0.000313707
0.00652299
0.000260581
0.00555562
0.000187288
0.00459569
0.000108019
0.00370654
4.65328e-05
0.00293682
8.73259e-06
0.0023093
-2.97408e-06
0.00182576
-8.72171e-08
0.00146919
5.34138e-06
0.00121363
1.96893e-06
0.00103175
-1.50804e-05
0.000896554
-4.04656e-05
0.000789028
-7.05225e-05
0.000695331
-0.000102179
0.000608282
-0.000133453
0.000524103
-0.000162941
0.000441307
-0.000190414
0.000359989
-0.00021633
0.000281354
-0.000241434
0.000207309
-0.000266434
0.000140038
-0.000291765
8.15888e-05
-0.000317496
3.35335e-05
-0.00034335
-3.20135e-06
-0.000368852
-2.83346e-05
-0.00039351
-4.21059e-05
-0.000416962
-4.50988e-05
-0.000439045
-3.80788e-05
-0.000459772
-2.18805e-05
-0.000479263
2.65893e-06
-0.000497674
3.47332e-05
-0.000515144
7.35837e-05
-0.000531766
0.000118508
-0.000547582
0.00016887
-0.000562578
0.000224099
-0.000576693
0.000283707
-0.000589823
0.000347284
-0.000601825
0.00041451
-0.000612529
0.000485159
-0.000621745
0.000559111
-0.000629274
0.000636364
-0.000634919
0.000717046
-0.000638496
0.000801431
-0.000639848
0.000889947
-0.000638854
0.000983165
-0.000635437
0.00108178
-0.000629574
0.00118655
-0.000621334
0.00129795
-0.000610975
-0.000599855
0.00142027
-0.000353284
0.000368104
-0.00079555
0.000531344
-0.0010482
0.000291752
-0.00110263
-0.000154274
-0.00093856
-0.000701342
-0.000676601
-0.00111694
-0.000604981
-0.00108837
-0.000902669
-0.000575417
-0.00146453
7.24715e-05
-0.00205346
0.000466762
-0.00248106
0.000517755
-0.00265448
0.000326248
-0.00256404
2.31775e-05
-0.0022569
-0.000289466
-0.00181273
-0.000540873
-0.00131771
-0.000684212
-0.000857599
-0.000703863
-0.000478398
-0.000603605
-0.000168609
-0.000444055
9.86702e-05
-0.000269893
0.000358153
-0.000116505
0.000634117
-1.0531e-06
0.000926416
7.31643e-05
0.00122863
0.000111486
0.00152697
0.00012632
0.00180409
0.000134258
0.00204883
0.000144631
0.00225413
0.000165687
0.00241484
0.000200164
0.00252499
0.000244983
0.00257577
0.000292439
0.00255398
0.000335494
0.00245049
0.00036408
0.00226499
0.000372789
0.00201257
0.000360433
0.00172912
0.000329982
0.0014503
0.000287551
0.00120868
0.00023865
0.00101806
0.000190531
0.00087994
0.000143462
0.000784429
9.74798e-05
0.000715186
5.41623e-05
0.000660074
1.4647e-05
0.000609825
-2.02734e-05
0.000558037
-5.03915e-05
0.00050077
-7.61858e-05
0.000436639
-9.88105e-05
0.000366152
-0.000119927
0.000291232
-0.000141411
0.000214759
-0.000164961
0.000140045
-0.00019172
7.03159e-05
-0.000222035
8.27053e-06
-0.00025545
-4.41549e-05
-0.000290924
-8.58194e-05
-0.000327187
-0.000116264
-0.000363066
-0.000135532
-0.000397693
-0.000144019
-0.000430559
-0.000142348
-0.000461442
-0.000131294
-0.000490317
-0.000111716
-0.000517252
-8.45032e-05
-0.000542356
-5.05334e-05
-0.000565736
-1.06296e-05
-0.000587486
3.44691e-05
-0.000607677
8.41303e-05
-0.000626355
0.000137843
-0.000643536
0.000195225
-0.000659207
0.000256022
-0.000673327
0.000320105
-0.000685828
0.000387456
-0.000696625
0.000458161
-0.000705623
0.00053239
-0.000712724
0.000610384
-0.000717842
0.000692442
-0.000720912
0.000778899
-0.000721894
0.00087012
-0.000720796
0.000966488
-0.000717702
0.00106853
-0.000713022
-0.000709993
0.00117867
0.000598115
-0.000230011
0.00153148
-0.000402025
0.00235904
-0.000535806
0.0029695
-0.000764732
0.00330684
-0.00103868
0.00324553
-0.00105562
0.00276387
-0.000606723
0.00208907
9.93839e-05
0.00147779
0.00068376
0.000937595
0.00100695
0.000369827
0.00108552
-0.00033264
0.00102871
-0.00122891
0.000919451
-0.00231955
0.000801166
-0.003548
0.000687579
-0.00481261
0.000580401
-0.00600262
0.000486141
-0.00701123
0.000405008
-0.00777966
0.000324379
-0.00828821
0.00023865
-0.00855646
0.000151746
-0.00862252
6.50118e-05
-0.00853504
-1.43171e-05
-0.00834305
-8.05026e-05
-0.00808259
-0.000134146
-0.00776116
-0.000187164
-0.00735819
-0.000258341
-0.00684433
-0.000348172
-0.00622099
-0.000423177
-0.00553128
-0.000444732
-0.00483287
-0.000405964
-0.00416706
-0.000330317
-0.00355662
-0.000246366
-0.00301543
-0.000168394
-0.00254761
-0.000107395
-0.0021525
-6.51204e-05
-0.00182409
-4.08606e-05
-0.00155656
-2.88777e-05
-0.00134151
-2.45214e-05
-0.00116902
-2.90327e-05
-0.00103301
-3.85283e-05
-0.00092821
-5.06352e-05
-0.00084975
-6.38132e-05
-0.000792663
-7.73598e-05
-0.000751949
-9.11055e-05
-0.000722767
-0.000105368
-0.000700728
-0.000120849
-0.000682169
-0.000138486
-0.000664344
-0.000159236
-0.000645491
-0.000183814
-0.000624747
-0.000212464
-0.000601916
-0.000244866
-0.000577135
-0.000280232
-0.000550542
-0.000317518
-0.000522064
-0.000355666
-0.000491366
-0.000393764
-0.000457947
-0.000431113
-0.00042129
-0.000467216
-0.000380999
-0.000501733
-0.00033688
-0.000534436
-0.000288951
-0.000565181
-0.000237421
-0.000593886
-0.00018264
-0.000620516
-0.000125046
-0.00064508
-6.51079e-05
-0.000667615
-3.27833e-06
-0.000688185
6.00527e-05
-0.000706867
0.000124593
-0.000723748
0.000190177
-0.00073891
0.000256773
-0.000752425
0.000324496
-0.000764349
0.000393593
-0.00077472
0.000464429
-0.00078356
0.00053747
-0.000790883
0.000613256
-0.000796698
0.000692386
-0.000801023
0.000775498
-0.000803907
0.000863295
-0.000805499
0.000956692
-0.000806419
-0.00080997
0.00105667
-3.9717e-05
-0.000190295
-7.14337e-05
-0.000370308
-0.000200026
-0.000407214
-0.000570364
-0.000394394
-0.00121268
-0.00039637
-0.00187611
-0.000392185
-0.00214654
-0.00033629
-0.00180025
-0.000246908
-0.000974074
-0.00014242
5.98406e-05
-2.6961e-05
0.00105083
9.45355e-05
0.00185387
0.000225677
0.00241231
0.000361006
0.00272915
0.00048433
0.00284343
0.000573295
0.00281308
0.000610756
0.00270379
0.000595423
0.00256979
0.000539017
0.00243712
0.000457047
0.00231232
0.000363442
0.00219197
0.000272104
0.00206536
0.000191624
0.00192487
0.000126166
0.00177569
6.86791e-05
0.00162367
1.78737e-05
0.00146803
-3.15182e-05
0.00129886
-8.91796e-05
0.00110556
-0.000154869
0.000887322
-0.000204938
0.000642795
-0.000200205
0.000383181
-0.00014635
0.000111606
-5.8742e-05
-0.000161257
2.64969e-05
-0.000409696
8.00443e-05
-0.000620362
0.000103271
-0.000788134
0.000102651
-0.000917053
8.80593e-05
-0.00101259
6.66639e-05
-0.00108037
4.32591e-05
-0.00112792
1.85163e-05
-0.00115839
-8.0631e-06
-0.00117449
-3.45348e-05
-0.00118209
-5.62154e-05
-0.00118259
-7.68535e-05
-0.00117623
-9.74668e-05
-0.00116261
-0.00011899
-0.00114136
-0.000142095
-0.00111262
-0.000167233
-0.00107716
-0.00019469
-0.00103635
-0.000224624
-0.000991765
-0.000257052
-0.000944809
-0.000291822
-0.000896417
-0.000328623
-0.000846926
-0.000367009
-0.000796144
-0.000406447
-0.000743549
-0.000446359
-0.000688506
-0.000486156
-0.000630456
-0.000525267
-0.000569022
-0.000563167
-0.000504059
-0.000599399
-0.000435656
-0.000633585
-0.000364107
-0.000665435
-0.000289885
-0.000694738
-0.000213594
-0.000721371
-0.000135924
-0.000745285
-5.7596e-05
-0.000766512
2.06981e-05
-0.000785161
9.83551e-05
-0.000801405
0.000174915
-0.00081547
0.000250104
-0.000827613
0.000323853
-0.000838097
0.000396304
-0.00084717
0.000467799
-0.000855055
0.000538861
-0.000861944
0.000610162
-0.000868
0.000682503
-0.000873364
0.000756776
-0.000878179
0.000833938
-0.000882661
0.000914925
-0.000887405
-0.000894961
0.000999916
-0.000340761
0.000150466
-0.000759562
4.8493e-05
-0.00105576
-0.000111021
-0.00133397
-0.000116174
-0.00171643
-1.39126e-05
-0.00222102
0.0001124
-0.00277189
0.000214583
-0.00328797
0.000269172
-0.00371473
0.000284338
-0.00402636
0.000284669
-0.00422863
0.000296805
-0.00432263
0.000319678
-0.00430427
0.000342648
-0.00416609
0.000346154
-0.0038987
0.000305898
-0.00349704
0.000209096
-0.00295981
5.81931e-05
-0.00228325
-0.000137544
-0.00148306
-0.000343141
-0.000637984
-0.000481632
0.000115827
-0.000481707
0.000684979
-0.000377529
0.00107192
-0.000260772
0.00133871
-0.000198109
0.0015209
-0.000164323
0.0016216
-0.000132218
0.00161341
-8.09846e-05
0.00146763
-9.09776e-06
0.00118936
7.33335e-05
0.000836861
0.000152297
0.000468133
0.000222378
0.000128187
0.000281204
-0.000167427
0.000322112
-0.000424248
0.000336865
-0.000644444
0.000323467
-0.000829413
0.00028762
-0.000978528
0.000237175
-0.00109093
0.000179066
-0.00116733
0.000119659
-0.00120934
6.05213e-05
-0.00122113
3.72775e-06
-0.00122039
-3.52704e-05
-0.00121012
-6.64874e-05
-0.00119508
-9.1896e-05
-0.00117921
-0.000113335
-0.00116406
-0.00013414
-0.00114938
-0.000156779
-0.00113408
-0.000182525
-0.00111696
-0.00021181
-0.00109692
-0.000244666
-0.00107303
-0.000280946
-0.00104448
-0.000320371
-0.00101059
-0.000362514
-0.000970807
-0.000406791
-0.000924767
-0.000452487
-0.000872312
-0.000498814
-0.000813498
-0.00054497
-0.000748574
-0.00059019
-0.000677945
-0.000633796
-0.000602129
-0.000675214
-0.000521733
-0.000713982
-0.000437432
-0.000749736
-0.000349972
-0.000782199
-0.000260178
-0.000811165
-0.00016896
-0.000836503
-7.72957e-05
-0.000858177
1.38084e-05
-0.000876265
0.00010339
-0.000890986
0.00019061
-0.000902691
0.00027483
-0.000911834
0.000355661
-0.000918929
0.000432983
-0.000924493
0.000506937
-0.00092901
0.000577902
-0.000932909
0.000646459
-0.000936556
0.00071336
-0.000940265
0.000779492
-0.000944311
0.000845817
-0.000948986
0.000913222
-0.00095481
-0.000963599
0.00098186
0.000291533
-0.000141066
0.000561121
-0.000221095
0.000539411
-8.93105e-05
0.000335324
8.7913e-05
0.000152418
0.000168993
0.000118067
0.000146751
0.000290437
4.22126e-05
0.000671866
-0.000112256
0.00122829
-0.000272086
0.00189713
-0.000384169
0.00261397
-0.000420035
0.00332102
-0.000387371
0.00397361
-0.000309942
0.00454221
-0.000222453
0.00501238
-0.000164271
0.00536121
-0.000139728
0.0055599
-0.000140495
0.00557598
-0.000153633
0.00538675
-0.000153909
0.00499036
-8.52441e-05
0.00441628
9.23789e-05
0.0037062
0.000332545
0.00291477
0.000530658
0.00209029
0.000626374
0.0012899
0.000636072
0.000556972
0.000600708
-7.40927e-05
0.00055008
-0.000583392
0.000500202
-0.000964969
0.00045491
-0.00122727
0.000414598
-0.00138156
0.000376667
-0.00144036
0.000340004
-0.0014214
0.000303151
-0.00134843
0.000263893
-0.00124621
0.000221253
-0.00113508
0.000176486
-0.00102733
0.000129428
-0.000929992
8.17255e-05
-0.000844264
3.39316e-05
-0.000783203
-5.39327e-07
-0.000753518
-2.59578e-05
-0.000748418
-4.03706e-05
-0.000761454
-5.34516e-05
-0.00078694
-6.64098e-05
-0.000817984
-8.22911e-05
-0.000849043
-0.000103081
-0.000876524
-0.000129298
-0.000898364
-0.000160685
-0.000913352
-0.000196823
-0.000920627
-0.000237391
-0.000919461
-0.000282111
-0.000909245
-0.000330588
-0.000889556
-0.000382203
-0.00086024
-0.000436107
-0.000821447
-0.00049128
-0.000773636
-0.000546626
-0.000717534
-0.000601073
-0.000654065
-0.000653659
-0.000584261
-0.0007036
-0.000509155
-0.00075032
-0.000429697
-0.00079344
-0.000346702
-0.000832731
-0.000260861
-0.00086804
-0.000172806
-0.000899219
-8.32087e-05
-0.000926101
7.1375e-06
-0.000948523
9.72888e-05
-0.000966416
0.000186203
-0.0009799
0.000272849
-0.000989337
0.000356342
-0.000995327
0.000436044
-0.000998631
0.000511614
-0.00100006
0.000583003
-0.0010004
0.00065042
-0.00100033
0.000714279
-0.00100042
0.000775161
-0.00100115
0.000833764
-0.00100291
0.000890853
-0.00100608
0.000947143
-0.0010111
-0.00101927
0.00100281
1.73841e-05
-0.00015845
-0.00019087
-1.28406e-05
-0.000803089
0.000522909
-0.00180237
0.0010872
-0.0030351
0.00140172
-0.00427341
0.00138506
-0.00528548
0.00105428
-0.00594626
0.000548529
-0.0062748
5.64523e-05
-0.00636333
-0.000295644
-0.00628787
-0.000495491
-0.00609981
-0.000575428
-0.005841
-0.000568754
-0.00555782
-0.000505635
-0.00530439
-0.000417697
-0.00511967
-0.000324452
-0.00503336
-0.000226806
-0.00506125
-0.000125737
-0.0051828
-3.23591e-05
-0.00531168
4.36359e-05
-0.00531889
9.9585e-05
-0.00512449
0.000138143
-0.00475647
0.000162641
-0.00430521
0.00017511
-0.00384617
0.000177031
-0.00341363
0.000168171
-0.00301184
0.00014829
-0.00263465
0.000123007
-0.00227744
9.77053e-05
-0.0019382
7.53594e-05
-0.00162081
5.92796e-05
-0.00132639
4.55797e-05
-0.00105594
3.27005e-05
-0.000813771
2.17254e-05
-0.000604078
1.15602e-05
-0.000429403
1.81172e-06
-0.000292715
-7.25963e-06
-0.000196442
-1.45482e-05
-0.00014382
-1.86902e-05
-0.00012563
-1.87288e-05
-0.000136207
-1.53812e-05
-0.000164895
-1.16826e-05
-0.000206081
-1.22654e-05
-0.000251521
-2.09698e-05
-0.000295231
-3.85816e-05
-0.000334597
-6.37148e-05
-0.000368321
-9.55739e-05
-0.000396156
-0.00013285
-0.000417691
-0.000175287
-0.000432259
-0.000222823
-0.000438969
-0.000275401
-0.000436898
-0.000332659
-0.000425311
-0.000393789
-0.00040384
-0.000457579
-0.000372602
-0.000522517
-0.000332255
-0.000586973
-0.000283952
-0.000649376
-0.000229232
-0.00070838
-0.00016985
-0.000762983
-0.000107531
-0.000812639
-4.373e-05
-0.000857241
2.0554e-05
-0.000897015
8.48519e-05
-0.000932338
0.000149137
-0.000963505
0.000213602
-0.000990565
0.000278378
-0.0010133
0.000343326
-0.00103136
0.000407972
-0.00104455
0.000471619
-0.00105298
0.000533544
-0.00105725
0.000593182
-0.00105827
0.00065022
-0.0010571
0.0007046
-0.00105478
0.000756468
-0.00105219
0.000806113
-0.00105006
0.000853927
-0.00104896
0.000900359
-0.00104935
0.000945878
-0.00105159
0.000990877
-0.0010561
-0.00106373
0.00103534
-0.000267818
0.000109368
-0.000662855
0.000382196
-0.000848456
0.00070851
-0.000837786
0.00107653
-0.000815974
0.00137991
-0.000908642
0.00147773
-0.00116933
0.00131497
-0.00157913
0.000958332
-0.00205798
0.000535301
-0.00250158
0.000147952
-0.00283227
-0.000164794
-0.0030003
-0.000407401
-0.00297565
-0.000593406
-0.00274747
-0.000733812
-0.00232889
-0.000836281
-0.00178366
-0.000869675
-0.00118627
-0.000824199
-0.000602988
-0.000709019
-8.3479e-05
-0.000551868
0.000346663
-0.000386506
0.000687345
-0.000241096
0.000953716
-0.000128229
0.00117143
-5.507e-05
0.00136504
-1.85056e-05
0.00155035
-8.27499e-06
0.0017338
-1.52788e-05
0.00190952
-2.74339e-05
0.00206917
-3.66449e-05
0.00220474
-3.78615e-05
0.00230994
-2.98385e-05
0.0023855
-1.62768e-05
0.00242539
5.68803e-06
0.00242773
3.03632e-05
0.00239528
5.41705e-05
0.00232635
8.04854e-05
0.00222502
0.000103146
0.00209633
0.000121428
0.00194507
0.000136718
0.00177668
0.000149696
0.00159792
0.000160029
0.00141645
0.00016609
0.00123957
0.000165201
0.00107269
0.000154616
0.000919255
0.000132464
0.000784833
9.58404e-05
0.000665702
5.54155e-05
0.000560355
9.77327e-06
0.00047397
-4.64644e-05
0.000407331
-0.000108648
0.000360192
-0.000175685
0.000331644
-0.000246853
0.000320313
-0.000321328
0.000324502
-0.000397979
0.000342252
-0.000475328
0.000371362
-0.000551627
0.000409391
-0.000625002
0.00045366
-0.000693645
0.000501306
-0.000756025
0.000549439
-0.000811116
0.000595354
-0.000858554
0.000636841
-0.000898728
0.00067251
-0.000932684
0.000702
-0.000961828
0.000725967
-0.000987472
0.00074579
-0.00101039
0.000763085
-0.00103059
0.000779227
-0.00104751
0.000795089
-0.00106041
0.000811069
-0.00106896
0.000827328
-0.00107351
0.000844029
-0.00107497
0.000861444
-0.00107452
0.000879915
-0.00107325
0.000899756
-0.00107203
0.000921193
-0.0010715
0.000944365
-0.00107213
0.000969357
-0.00107434
0.000996219
-0.00107846
0.00102492
-0.0010848
-0.00109391
0.0010551
-0.000418499
0.000527867
-0.00104803
0.00101173
-0.00140427
0.00106475
-0.00129755
0.000969806
-0.000769744
0.000852099
3.18698e-06
0.000704801
0.000724432
0.00059372
0.00112862
0.000554142
0.00114098
0.000522947
0.000883849
0.00040508
0.000526303
0.000192752
0.000173131
-5.42289e-05
-0.000130166
-0.000290108
-0.000368268
-0.00049571
-0.000552102
-0.000652448
-0.000677686
-0.000744091
-0.000749091
-0.000752794
-0.000774275
-0.000683835
-0.00076489
-0.000561253
-0.000733211
-0.000418185
-0.000686848
-0.00028746
-0.000623305
-0.000191772
-0.000539442
-0.000138933
-0.000426808
-0.000131139
-0.00028692
-0.000148164
-0.000128889
-0.000173309
3.42978e-05
-0.00019062
0.000187276
-0.000189623
0.000316399
-0.000166984
0.000417801
-0.000131241
0.000486117
-8.45923e-05
0.000525339
-3.35343e-05
0.000539328
1.63744e-05
0.00053439
5.91079e-05
0.000522036
9.28393e-05
0.000504276
0.000120906
0.000483632
0.000142072
0.00046403
0.00015632
0.000449933
0.000163793
0.00044562
0.000164343
0.000454246
0.000157464
0.000476921
0.000142526
0.000512301
0.000119236
0.000556876
8.78892e-05
0.000602414
5.03019e-05
0.000657512
3.17556e-07
0.0007202
-5.29141e-05
0.000785229
-0.000111493
0.000851252
-0.000174672
0.000917591
-0.000242023
0.000983686
-0.000312948
0.00104894
-0.00038658
0.00111265
-0.000461692
0.00117401
-0.00053669
0.00123208
-0.000609696
0.00128578
-0.0006787
0.0013339
-0.000741763
0.00137511
-0.000797237
0.00140802
-0.000844024
0.00143128
-0.000881811
0.00144378
-0.000911229
0.00144492
-0.000933832
0.00143488
-0.000951781
0.00141466
-0.000967256
0.00138603
-0.000981761
0.00135113
-0.00099569
0.00131205
-0.00100842
0.0012706
-0.00101896
0.00122837
-0.00102673
0.00118691
-0.00103205
0.00114789
-0.00103595
0.00111302
-0.00103965
0.00108378
-0.00104401
0.00106114
-0.00104939
0.00104547
-0.00105583
0.00103663
-0.00106329
0.00103416
-0.00107187
0.0010375
-0.00108179
0.001046
-0.0010933
-0.00110671
0.00105879
0.000277659
0.000250207
0.000562882
0.000726507
0.000641966
0.000985663
0.000658113
0.000953659
0.000825664
0.000684549
0.00125883
0.000271633
0.0019812
-0.000128653
0.00289035
-0.000355005
0.00382603
-0.000412732
0.00466448
-0.00043337
0.0053428
-0.000485567
0.00582569
-0.00053712
0.00608044
-0.000544862
0.00607976
-0.000495028
0.00583583
-0.000408517
0.00539038
-0.000298642
0.0048197
-0.000182114
0.00420043
-6.45654e-05
0.00358992
4.92565e-05
0.00301988
0.00015186
0.00249417
0.000238247
0.00199634
0.000306055
0.00152321
0.000334203
0.00107899
0.000313077
0.000711847
0.000218982
0.000466605
7.19331e-05
0.00034842
-7.24357e-05
0.000327503
-0.000168706
0.00036682
-0.000206301
0.000433498
-0.000197918
0.000509972
-0.000161067
0.000586395
-0.000109957
0.000658351
-5.55813e-05
0.000724482
-7.02375e-06
0.000779419
3.79032e-05
0.0008238
7.6524e-05
0.000860493
0.000105379
0.00089318
0.000123633
0.000925167
0.000131805
0.000959273
0.000130236
0.000997658
0.000119079
0.00104287
9.73172e-05
0.00109094
7.11582e-05
0.00114342
3.54106e-05
0.00120197
-8.2415e-06
0.00126119
-5.89101e-05
0.00132389
-0.00011561
0.00138993
-0.000177535
0.00145915
-0.000243885
0.00153083
-0.000313704
0.00160371
-0.000385832
0.00167599
-0.000458855
0.00174542
-0.000531126
0.00180957
-0.00060084
0.00186602
-0.000666148
0.00191263
-0.00072531
0.00194773
-0.000776863
0.00197029
-0.000819791
0.00197996
-0.000853698
0.00197709
-0.000878939
0.00196252
-0.000896665
0.00193739
-0.000908703
0.00190283
-0.000917212
0.0018597
-0.000924131
0.00180856
-0.00093062
0.00174968
-0.000936806
0.00168334
-0.000942083
0.00161027
-0.000945894
0.00153206
-0.000948527
0.00145136
-0.000951349
0.00137167
-0.000956255
0.00129673
-0.000964711
0.00122979
-0.00097707
0.001173
-0.000992607
0.00112727
-0.0010101
0.00109245
-0.00102847
0.00106773
-0.00104715
0.001052
-0.00106606
0.00104409
-0.00108539
-0.00110529
0.00104268
-7.82857e-05
0.000328493
-0.000367293
0.00101551
-0.000892064
0.00151043
-0.00153322
0.00159481
-0.00221093
0.00136226
-0.00290929
0.000969991
-0.00355888
0.000520939
-0.0040292
0.000115315
-0.00424748
-0.000194455
-0.00425393
-0.000426916
-0.00412218
-0.000617323
-0.0038833
-0.000775994
-0.00355943
-0.000868738
-0.00317675
-0.000877704
-0.00278566
-0.000799609
-0.00239708
-0.000687225
-0.00195663
-0.000622558
-0.00141321
-0.000607982
-0.000758296
-0.000605662
-3.68504e-05
-0.000569586
0.000692696
-0.000491299
0.00137724
-0.00037849
0.00196524
-0.000253799
0.00240781
-0.000129487
0.00268395
-5.71606e-05
0.00279506
-3.9183e-05
0.00276513
-4.25025e-05
0.00263048
-3.40564e-05
0.00242149
2.69425e-06
0.00217165
5.19149e-05
0.00191067
9.99137e-05
0.00166068
0.00014004
0.00143635
0.000168749
0.00124263
0.000186694
0.0010862
0.000194331
0.000970234
0.00019249
0.000892859
0.000182755
0.000849733
0.000166759
0.00083586
0.000145678
0.000846048
0.000120048
0.000875182
8.99458e-05
0.000917421
5.50781e-05
0.000973667
1.49114e-05
0.00104022
-3.11434e-05
0.00111488
-8.29015e-05
0.00119627
-0.000140301
0.00128348
-0.000202815
0.00137543
-0.00026949
0.00147057
-0.000339019
0.00156667
-0.000409803
0.00166087
-0.000480039
0.00174986
-0.000547839
0.00183011
-0.000611376
0.0018983
-0.00066903
0.00195169
-0.000719536
0.00198847
-0.000762099
0.00200809
-0.000796482
0.00201134
-0.000823043
0.00200034
-0.000842692
0.00197817
-0.000856767
0.0019483
-0.000866797
0.00191378
-0.000874181
0.00187642
-0.000879853
0.00183634
-0.000884052
0.00179205
-0.000886329
0.00174117
-0.000885926
0.00168157
-0.000882483
0.00161247
-0.000876796
0.0015351
-0.000871156
0.00145262
-0.000868868
0.0013694
-0.000873037
0.00128996
-0.000885266
0.00121799
-0.000905098
0.00115586
-0.000930473
0.00110457
-0.000958812
0.00106409
-0.000987988
0.0010337
-0.00101676
0.00101235
-0.00104472
0.000998891
-0.00107193
-0.00109849
0.000992084
0.000240511
8.79824e-05
0.000827426
0.000428599
0.00170456
0.000633297
0.00275326
0.000546114
0.00376731
0.000348209
0.00458312
0.000154189
0.00511675
-1.26967e-05
0.00538536
-0.000153293
0.00546112
-0.000270211
0.00540867
-0.000374473
0.00527177
-0.00048042
0.00508486
-0.000589083
0.00491567
-0.000699546
0.00481817
-0.000780202
0.00480959
-0.000791028
0.00485923
-0.000736866
0.00488885
-0.000652179
0.0048625
-0.000581634
0.00480232
-0.000545483
0.00473059
-0.000497852
0.00466152
-0.000422234
0.00460976
-0.000326732
0.00458476
-0.000228797
0.0045931
-0.000137824
0.00458752
-5.15779e-05
0.00450716
4.11691e-05
0.00431144
0.000153219
0.00399024
0.000287149
0.00356545
0.000427484
0.00307251
0.000544851
0.00256097
0.000611458
0.00208156
0.00061945
0.00166799
0.000582314
0.0013432
0.000511486
0.00111261
0.000424918
0.000967747
0.000337355
0.000892567
0.000257934
0.000868829
0.000190497
0.000880008
0.0001345
0.000913724
8.63323e-05
0.000957943
4.57261e-05
0.00100419
8.83085e-06
0.00105389
-3.47875e-05
0.00110707
-8.43235e-05
0.00116454
-0.000140368
0.00122674
-0.000202505
0.00129332
-0.000269391
0.00136285
-0.000339022
0.00143286
-0.000409027
0.00150002
-0.000476969
0.00156059
-0.000540613
0.00161091
-0.000598159
0.00164796
-0.000648418
0.00166984
-0.000690912
0.00167618
-0.000725875
0.00166822
-0.000754141
0.00164869
-0.000776947
0.0016213
-0.000795656
0.00159009
-0.000811482
0.00155857
-0.000825244
0.00152897
-0.000837201
0.0015018
-0.000847008
0.00147576
-0.000853817
0.00144826
-0.000856548
0.00141627
-0.000854346
0.00137749
-0.000847147
0.00133122
-0.000836209
0.00127873
-0.000824308
0.00122291
-0.000815333
0.00116727
-0.000813234
0.00111493
-0.000820698
0.00106792
-0.000838253
0.00102713
-0.000864305
0.000992674
-0.000896019
0.000964332
-0.00093047
0.00094179
-0.000965446
0.00092473
-0.000999702
0.000912806
-0.00103279
0.000905608
-0.00106473
-0.00109556
0.000902683
-0.000167449
0.000255432
0.000148555
0.000112595
0.000875469
-9.36177e-05
0.00162463
-0.000203042
0.00223807
-0.000265237
0.00268639
-0.000294126
0.00296355
-0.000289859
0.00307057
-0.000260317
0.00302124
-0.000220883
0.00283399
-0.000187221
0.00252511
-0.000171541
0.00212153
-0.000185502
0.00166626
-0.00024428
0.0012311
-0.000345033
0.000896806
-0.000456739
0.000651026
-0.000491085
0.000429306
-0.00043046
0.000184809
-0.000337137
-8.61003e-05
-0.000274573
-0.000333193
-0.000250759
-0.00051291
-0.000242517
-0.000603134
-0.000236508
-0.00059645
-0.000235481
-0.00049778
-0.000236493
-0.00032371
-0.000225648
-0.000100021
-0.00018252
0.000141899
-8.8701e-05
0.00037026
5.87881e-05
0.000560059
0.000237685
0.000697373
0.000407537
0.000777794
0.000531037
0.000805992
0.000591251
0.000795741
0.000592565
0.000756297
0.000550931
0.000697572
0.000483643
0.000630911
0.000404016
0.000568785
0.00032006
0.000522656
0.000236625
0.000497397
0.000159759
0.000492685
9.10447e-05
0.000516665
2.17465e-05
0.000572269