/*--------------------------------*- C++ -*----------------------------------*\
| =========                 |                                                 |
| \\      /  F ield         | OpenFOAM: The Open Source CFD Toolbox           |
|  \\    /   O peration     | Version:  2012                                  |
|   \\  /    A nd           | Website:  www.openfoam.com                      |
|    \\/     M anipulation  |                                                 |
\*---------------------------------------------------------------------------*/
FoamFile
{
    version     2.0;
    format      ascii;
    class       volVectorField;
    location    "1.4";
    object      U;
}
// * * * * * * * * * * * * * * * * * * * * * * * * * * * * * * * * * * * * * //

dimensions      [0 1 -1 0 0 0 0];


internalField   nonuniform List<vector> 
42400
(
(-7.70004 9.0704 -4.3523e-17)
(-16.9336 19.4908 -6.27832e-17)
(-18.9614 22.2408 6.40039e-17)
(-17.1989 20.9079 0)
(-13.5688 16.824 0)
(-6.00823 8.52971 2.82272e-19)
(6.9507 -6.05161 0)
(24.4381 -26.4184 -2.59472e-19)
(39.4961 -44.8171 0)
(40.6298 -48.7293 -2.2341e-19)
(22.8342 -33.8977 -2.03517e-19)
(-4.39094 -10.4428 1.91706e-19)
(-26.3351 8.24143 3.02344e-17)
(-37.2178 17.0827 -3.09139e-17)
(-40.3717 18.5941 2.3706e-19)
(-40.3489 16.7214 0)
(-39.2756 13.6293 0)
(-37.7003 10.0164 0)
(-35.7473 6.01048 0)
(-33.3108 1.51168 0)
(-30.0296 -3.51262 0)
(-25.8862 -8.87529 7.18629e-19)
(-21.9999 -14.5222 5.64351e-17)
(-19.3447 -20.3268 -1.69081e-18)
(-17.1664 -25.7471 -5.52465e-17)
(-14.3888 -30.5369 5.4855e-19)
(-11.1288 -34.8274 5.02904e-19)
(-7.89125 -38.3134 -8.91807e-19)
(-4.82606 -40.4994 0)
(-1.98224 -41.1838 0)
(0.667582 -40.4675 -2.531e-17)
(3.07712 -38.5444 2.55041e-17)
(5.09888 -35.6343 -1.4825e-19)
(6.5751 -31.9755 7.49032e-18)
(7.44667 -27.857 -7.59342e-18)
(7.74574 -23.6052 0)
(7.59055 -19.5578 0)
(7.13491 -16.0009 0)
(6.52165 -13.1077 0)
(5.85953 -10.914 -5.40786e-18)
(5.22325 -9.34221 5.42376e-18)
(4.65992 -8.25488 -5.61876e-18)
(4.19339 -7.50709 4.99467e-19)
(3.82865 -6.97745 1.04571e-17)
(3.55752 -6.57881 -4.97334e-18)
(3.36587 -6.25576 4.52616e-18)
(3.23817 -5.97532 -9.12506e-18)
(3.15986 -5.71881 4.29962e-18)
(3.11835 -5.47516 2.60404e-19)
(3.10315 -5.23733 -3.87513e-18)
(3.10599 -5.00055 7.50159e-18)
(3.12086 -4.76155 2.40331e-19)
(3.14393 -4.51829 -3.80927e-18)
(3.1732 -4.2697 3.77255e-19)
(3.20818 -4.01561 0)
(3.24941 -3.75657 0)
(3.29805 -3.49369 0)
(3.35549 -3.22849 -2.83949e-19)
(3.42306 -2.96271 -2.63097e-19)
(3.50173 -2.69816 0)
(3.5919 -2.43658 -3.63755e-18)
(3.69331 -2.17952 3.78136e-18)
(3.80495 -1.92829 3.06135e-18)
(3.92506 -1.68386 -3.0034e-18)
(4.05123 -1.44684 0)
(4.18046 -1.21741 0)
(4.30937 -0.9953 2.03463e-18)
(4.4343 -0.779705 -1.98865e-18)
(4.55152 -0.569261 -1.94814e-19)
(4.65736 -0.361972 0)
(4.74846 -0.155155 0)
(4.82186 0.0545803 -1.21763e-19)
(4.87526 0.271285 -1.00148e-19)
(4.90723 0.499531 0)
(4.91748 0.743991 -6.12578e-20)
(4.90709 1.00891 -3.3804e-19)
(4.87879 1.29689 3.27882e-19)
(4.83717 1.60861 2.84932e-20)
(4.79136 1.93768 -9.4344e-21)
(4.76872 2.32658 -2.21883e-19)
(-8.80838 8.28678 0)
(-27.883 24.6543 -1.02826e-17)
(-42.6028 39.7321 1.05819e-17)
(-49.5401 46.7762 0)
(-47.6779 47.7749 0)
(-41.4385 45.016 -1.75274e-17)
(-33.1837 39.6271 1.75909e-17)
(-24.0338 31.92 2.59299e-19)
(-15.5579 23.2872 0)
(-10.1249 16.7542 2.20713e-19)
(-9.32408 15.0257 1.99725e-19)
(-12.2179 18.3797 1.94222e-17)
(-15.9791 24.9691 1.08996e-18)
(-18.3056 32.4508 -2.08465e-17)
(-18.5709 39.2429 -2.59661e-17)
(-17.1515 44.7701 2.64995e-17)
(-14.6083 49.081 0)
(-11.549 52.5797 2.24445e-19)
(-8.69827 55.7487 0)
(-6.60483 58.7893 0)
(-5.45624 61.6803 0)
(-5.42519 64.5369 2.96211e-17)
(-6.70976 67.0233 -5.3412e-18)
(-8.42555 67.9133 -2.71987e-17)
(-8.72338 66.2132 0)
(-6.58067 62.0239 -6.6958e-19)
(-2.1622 55.5955 -4.80936e-19)
(4.05485 46.8655 8.55103e-19)
(11.5934 36.1279 4.87786e-18)
(19.7407 24.2876 -4.94301e-18)
(27.3965 12.6447 -3.35505e-19)
(33.3839 2.53269 -3.48874e-19)
(36.9499 -5.11552 -6.21292e-18)
(37.9451 -9.9691 6.77373e-18)
(36.643 -12.1861 8.97962e-18)
(33.5051 -12.2158 -9.30688e-18)
(29.0939 -10.6725 0)
(24.0543 -8.25883 2.72183e-19)
(19.0539 -5.6692 0)
(14.6553 -3.46304 4.58718e-19)
(11.189 -1.95654 -6.66115e-18)
(8.71518 -1.1978 7.10666e-18)
(7.08848 -1.0398 -3.69671e-19)
(6.07296 -1.26282 3.50185e-19)
(5.44293 -1.66823 -1.98522e-20)
(5.03986 -2.12072 3.11664e-19)
(4.7664 -2.54654 -2.93476e-19)
(4.56729 -2.9144 -3.98443e-18)
(4.41266 -3.21506 3.98498e-18)
(4.2867 -3.44884 0)
(4.18092 -3.62004 -2.08201e-19)
(4.09104 -3.73427 -4.30032e-19)
(4.01536 -3.79732 -2.64405e-18)
(3.95359 -3.81486 2.64292e-18)
(3.90613 -3.79228 3.16168e-19)
(3.87349 -3.73473 -4.62698e-18)
(3.85611 -3.64715 5.13476e-18)
(3.85423 -3.53421 2.8397e-19)
(3.86781 -3.40026 2.63153e-19)
(3.89646 -3.24921 -3.59573e-18)
(3.93932 -3.0844 3.53836e-18)
(3.99508 -2.90867 -2.05835e-19)
(4.06193 -2.72427 -1.63761e-19)
(4.13762 -2.53303 0)
(4.21958 -2.33631 1.97863e-18)
(4.30501 -2.13511 -1.8878e-19)
(4.39101 -1.9301 -2.1794e-18)
(4.47467 -1.72157 0)
(4.55325 -1.50954 3.57701e-19)
(4.62424 -1.29364 -1.39787e-19)
(4.68549 -1.07315 -9.92937e-19)
(4.73533 -0.846919 1.08892e-18)
(4.77265 -0.613351 7.61921e-19)
(4.79705 -0.370394 -7.04353e-19)
(4.80891 -0.115593 1.05925e-19)
(4.80957 0.153753 -2.50768e-19)
(4.80135 0.440371 2.1131e-19)
(4.78783 0.747297 -2.85116e-20)
(4.77615 1.07388 -7.04677e-20)
(4.77106 1.47679 5.44434e-20)
(0.385221 -0.631616 -1.52091e-17)
(0.214283 1.80416 2.29386e-19)
(1.79517 1.28531 8.80047e-20)
(11.6322 -3.18492 2.3861e-19)
(20.1165 -5.9256 0)
(22.6466 -1.00676 -8.30835e-17)
(21.7435 7.26554 1.74121e-16)
(20.8372 14.3615 -9.1047e-17)
(20.2372 18.578 9.30919e-17)
(19.1245 20.1275 -3.41819e-18)
(17.6692 20.0445 -9.283e-17)
(16.5227 19.1507 -2.64897e-19)
(16.141 17.981 -2.49034e-19)
(16.5863 16.9343 7.78884e-17)
(17.6318 16.2895 -7.91103e-17)
(18.9024 16.2083 -2.12568e-19)
(19.7907 16.9595 -6.52736e-17)
(19.5437 18.9951 5.25955e-18)
(17.8336 22.3324 6.12787e-17)
(14.9851 26.4704 2.40825e-19)
(11.6397 30.6522 -2.41946e-19)
(8.54936 34.3928 -2.43179e-19)
(6.34925 37.4282 0)
(5.4827 39.6921 1.00164e-19)
(6.07681 41.1553 3.66871e-17)
(7.86774 41.8062 -7.02389e-17)
(10.3204 41.6752 3.38588e-17)
(12.8366 40.8622 -2.7022e-17)
(14.9131 39.4634 2.73796e-17)
(16.2727 37.3841 2.19477e-17)
(16.9578 34.3684 -4.09903e-17)
(17.201 30.2397 2.28769e-18)
(17.2023 25.1491 1.75842e-17)
(16.9604 19.6661 0)
(16.2561 14.5521 0)
(14.8414 10.4203 3.15442e-19)
(12.6947 7.52144 0)
(10.1247 5.73636 -6.02577e-20)
(7.62047 4.71548 -7.05474e-18)
(5.59731 4.07353 1.33947e-17)
(4.23996 3.53089 -6.84598e-18)
(3.51338 2.95299 0)
(3.25921 2.311 0)
(3.29391 1.6295 -4.69118e-18)
(3.46245 0.948237 4.38178e-18)
(3.66337 0.297079 2.3897e-19)
(3.84158 -0.307128 0)
(3.97414 -0.85831 0)
(4.05753 -1.35611 -3.38617e-18)
(4.09825 -1.8022 3.3705e-18)
(4.10732 -2.1976 2.0792e-19)
(4.09659 -2.542 0)
(4.07667 -2.83425 2.90606e-18)
(4.05565 -3.07333 -2.58202e-18)
(4.03886 -3.25922 4.20655e-18)
(4.02931 -3.39342 -4.52521e-18)
(4.02859 -3.4791 3.618e-18)
(4.0375 -3.52077 -7.43504e-18)
(4.05652 -3.52366 6.85524e-18)
(4.08577 -3.4931 -2.2225e-19)
(4.12493 -3.434 -2.99106e-18)
(4.17316 -3.3506 -2.53137e-18)
(4.22916 -3.24641 2.65006e-18)
(4.29119 -3.12423 0)
(4.35728 -2.98622 -1.58333e-18)
(4.42527 -2.83403 1.68196e-19)
(4.49304 -2.66885 1.98526e-18)
(4.55848 -2.49151 0)
(4.61971 -2.30256 -2.8464e-19)
(4.67509 -2.10231 -7.75891e-19)
(4.72329 -1.89092 8.08611e-19)
(4.7634 -1.6684 0)
(4.79498 -1.43467 0)
(4.81807 -1.18956 6.10334e-20)
(4.83326 -0.932825 -4.46521e-20)
(4.84166 -0.664191 -1.00237e-19)
(4.8449 -0.38346 1.4796e-19)
(4.845 -0.0909012 0)
(4.84675 0.215094 1.46436e-20)
(4.87283 0.55822 2.21699e-19)
(-10.9584 7.79006 -4.72113e-17)
(-23 11.0489 6.72704e-17)
(-16.3062 8.69125 -3.33188e-17)
(-1.30348 -6.60005 -2.5958e-17)
(24.8724 -26.1458 2.61422e-17)
(57.2866 -51.4446 0)
(81.58 -68.6158 1.09425e-18)
(79.4476 -64.8294 -6.88804e-19)
(54.0147 -46.2726 2.7134e-17)
(26.97 -29.5852 -2.77028e-17)
(10.9901 -21.8206 3.60752e-17)
(6.54925 -20.8608 -7.64286e-17)
(9.79137 -23.4549 7.95666e-17)
(16.8511 -27.3432 -8.12609e-17)
(24.7644 -30.9261 8.06496e-17)
(31.2058 -32.8617 -4.04881e-17)
(34.4133 -32.0926 -3.35133e-17)
(33.6305 -28.6841 6.44916e-17)
(29.6241 -23.7759 -3.03817e-17)
(24.2508 -18.2998 -2.4553e-19)
(19.1991 -13.1262 9.79879e-19)
(15.4761 -8.82855 -1.56314e-17)
(13.334 -5.61569 1.54336e-17)
(12.5168 -3.34406 -2.42833e-19)
(12.4887 -1.65471 0)
(12.557 -0.0889893 -2.1969e-19)
(12.1128 1.70979 0)
(10.892 3.88804 4.06413e-18)
(9.02306 6.30541 -1.57704e-18)
(6.85994 8.65601 -3.26737e-18)
(4.74913 10.6326 2.70532e-19)
(2.90832 12.0172 3.81941e-20)
(1.4405 12.6753 -5.11932e-19)
(0.386783 12.5469 -1.4022e-19)
(-0.262103 11.6936 4.67625e-18)
(-0.573507 10.3367 -4.67515e-18)
(-0.648451 8.78062 0)
(-0.567516 7.27511 -5.35902e-18)
(-0.362374 5.95073 5.17177e-18)
(-0.0397971 4.83361 -3.64338e-19)
(0.383473 3.90099 1.26519e-19)
(0.861588 3.10968 0)
(1.3384 2.42343 0)
(1.76894 1.81937 0)
(2.12394 1.28083 1.47901e-19)
(2.39028 0.792403 -3.54842e-18)
(2.57152 0.339514 3.30287e-18)
(2.68422 -0.0911646 0)
(2.75278 -0.510916 0)
(2.80378 -0.926986 -2.54298e-18)
(2.86041 -1.34089 2.40718e-18)
(2.93809 -1.74783 -2.22596e-18)
(3.04249 -2.13788 1.69034e-18)
(3.1705 -2.49853 -2.03894e-19)
(3.31368 -2.81784 1.6026e-18)
(3.4625 -3.08691 -2.01626e-18)
(3.60952 -3.30115 3.05934e-18)
(3.75046 -3.46027 -2.86998e-18)
(3.88384 -3.56712 0)
(4.0098 -3.62647 1.254e-19)
(4.12904 -3.64381 2.13331e-18)
(4.24218 -3.62466 -2.72559e-19)
(4.34949 -3.57412 -3.71497e-18)
(4.45087 -3.49671 3.15993e-18)
(4.54596 -3.39624 -1.37e-18)
(4.63418 -3.2759 -1.19405e-18)
(4.71488 -3.13817 8.98411e-19)
(4.78742 -2.98496 8.8703e-20)
(4.8512 -2.81761 7.82402e-19)
(4.90578 -2.63704 -7.15244e-19)
(4.95087 -2.44383 1.26925e-19)
(4.98644 -2.23829 3.75003e-19)
(5.01273 -2.02065 -3.36428e-19)
(5.03024 -1.79105 0)
(5.03976 -1.5497 3.2781e-20)
(5.04233 -1.29686 -1.06135e-19)
(5.03916 -1.03303 2.37165e-19)
(5.03182 -0.75883 -1.30245e-19)
(5.02545 -0.472693 2.69697e-19)
(5.03857 -0.181007 -2.64073e-19)
(0.389195 3.29426 4.90479e-17)
(8.73537 1.73883 0)
(29.2954 -8.40932 0)
(56.0154 -22.8435 4.15631e-19)
(78.4422 -34.7042 0)
(76.6289 -30.9476 0)
(40.0388 -6.3895 0)
(-11.5041 24.763 -1.59053e-19)
(-48.5618 44.7426 0)
(-59.8355 48.3905 -1.82667e-19)
(-52.318 40.2116 6.88879e-17)
(-36.6483 26.0572 -1.3595e-16)
(-20.3896 10.2103 6.7646e-17)
(-7.82329 -4.701 0)
(-0.799421 -17.0364 -4.23338e-19)
(0.617554 -25.6456 2.21691e-19)
(-2.32405 -30.3724 0)
(-7.58707 -32.4034 7.66095e-17)
(-13.1002 -33.259 -1.55276e-16)
(-17.5539 -33.5233 2.10314e-18)
(-20.5142 -33.3426 7.60341e-17)
(-22.1433 -32.8369 6.93441e-19)
(-22.8385 -32.0222 0)
(-22.9066 -30.9423 -5.9435e-17)
(-22.5787 -29.6868 6.09572e-17)
(-21.953 -28.2976 -4.89166e-17)
(-21.0177 -26.7308 4.98042e-17)
(-19.7692 -24.8473 3.78256e-17)
(-18.3262 -22.5217 -3.78997e-17)
(-16.8583 -19.7811 0)
(-15.4415 -16.8491 -2.20304e-17)
(-14.0374 -14.0142 2.22467e-17)
(-12.5846 -11.4927 2.10922e-19)
(-11.0729 -9.39308 -1.10658e-17)
(-9.52384 -7.73536 1.12973e-17)
(-7.98648 -6.48564 6.74838e-20)
(-6.52212 -5.57602 -8.31239e-20)
(-5.18303 -4.93267 -3.1843e-18)
(-4.00198 -4.48514 3.20042e-18)
(-2.99323 -4.17256 1.0452e-18)
(-2.15714 -3.94766 -8.61125e-19)
(-1.49124 -3.78138 -3.51638e-19)
(-0.985924 -3.65225 0)
(-0.621944 -3.54675 -2.77025e-20)
(-0.370572 -3.45799 9.77047e-19)
(-0.195528 -3.38518 -2.52592e-18)
(-0.056449 -3.33272 2.7146e-18)
(0.0862456 -3.30816 -1.34012e-18)
(0.265487 -3.31921 0)
(0.502195 -3.37021 -6.40027e-20)
(0.802215 -3.45959 1.48129e-18)
(1.15697 -3.57937 -1.41345e-18)
(1.54786 -3.71688 9.73538e-20)
(1.95264 -3.85766 1.32959e-18)
(2.35135 -3.98833 -9.29277e-19)
(2.72971 -4.09838 1.08101e-18)
(3.07978 -4.1808 1.0207e-18)
(3.3987 -4.23176 -2.12106e-18)
(3.68675 -4.24996 1.66745e-18)
(3.94569 -4.23595 -1.76805e-18)
(4.17776 -4.19155 0)
(4.38512 -4.11935 1.02369e-19)
(4.56969 -4.02245 1.10545e-18)
(4.73309 -3.90413 -9.19788e-19)
(4.87669 -3.76763 -2.06661e-19)
(5.00168 -3.616 0)
(5.1091 -3.45194 -4.74987e-19)
(5.19989 -3.27766 4.41126e-19)
(5.27496 -3.09487 7.25324e-20)
(5.33518 -2.90473 4.81983e-21)
(5.38152 -2.70788 -3.74814e-20)
(5.41496 -2.50453 -4.41525e-20)
(5.43663 -2.29455 -8.15044e-20)
(5.44778 -2.07758 5.61134e-20)
(5.44976 -1.85313 -3.96978e-20)
(5.44411 -1.62071 0)
(5.43254 -1.37993 -3.83104e-19)
(5.41742 -1.13051 3.23299e-19)
(5.404 -0.873037 0)
(5.40898 -0.623199 -4.86452e-19)
(6.55312 -4.39404 -1.03765e-20)
(7.36992 -4.86394 6.08479e-18)
(-0.421515 -1.0595 -6.08121e-18)
(-5.27312 0.594901 1.19775e-17)
(-3.51485 -3.28671 -6.35924e-18)
(-1.93982 -7.31653 -4.04124e-19)
(-6.73283 -6.54323 -1.26823e-17)
(-16.7194 -0.628476 1.30757e-17)
(-27.8889 8.30944 4.09965e-19)
(-37.6758 19.3008 5.60718e-19)
(-45.1717 31.0813 1.17649e-17)
(-51.4263 41.4839 7.8974e-18)
(-57.0882 49.4352 -2.0171e-17)
(-61.4484 54.6716 1.70875e-17)
(-63.2913 56.8523 -3.36256e-17)
(-61.8676 55.8767 1.74623e-17)
(-57.5195 52.3974 0)
(-51.3907 47.5813 0)
(-44.5901 42.3495 -1.74532e-17)
(-37.7838 37.1713 7.91097e-19)
(-31.3517 32.3167 1.78007e-17)
(-25.5304 27.8614 -1.69895e-17)
(-20.4789 23.8395 3.37353e-17)
(-16.2707 20.2746 -1.70863e-17)
(-12.6939 17.0759 -1.50468e-17)
(-9.0371 13.8256 1.48409e-18)
(-4.37894 9.92771 1.34203e-17)
(1.21191 5.37421 -9.38325e-20)
(6.08905 1.16321 7.7636e-20)
(8.48988 -1.59924 -1.24585e-19)
(8.14848 -2.70709 0)
(6.08967 -2.76968 -4.09452e-18)
(3.50878 -2.51733 7.06374e-18)
(1.16952 -2.34773 -2.93266e-18)
(-0.615714 -2.34447 0)
(-1.82852 -2.47517 2.83647e-19)
(-2.57104 -2.68777 -3.09127e-19)
(-2.95632 -2.94341 0)
(-3.07832 -3.2164 0)
(-3.01569 -3.49024 -3.20561e-19)
(-2.8282 -3.75152 3.5089e-19)
(-2.5601 -3.988 2.96567e-21)
(-2.2438 -4.20034 0)
(-1.90002 -4.39309 -1.04089e-19)
(-1.53798 -4.56465 -8.63615e-20)
(-1.16033 -4.71231 3.07128e-19)
(-0.767579 -4.83436 1.38247e-20)
(-0.359897 -4.93107 -7.60203e-20)
(0.0617268 -5.00533 0)
(0.494721 -5.06187 6.58934e-19)
(0.93459 -5.10565 -1.14788e-18)
(1.37537 -5.14034 6.155e-19)
(1.81074 -5.16752 1.20536e-19)
(2.23512 -5.18654 6.63645e-19)
(2.64427 -5.19507 -1.38762e-19)
(3.03511 -5.18966 -9.7805e-19)
(3.40532 -5.16658 3.56553e-19)
(3.75297 -5.12241 0)
(4.07639 -5.05461 0)
(4.37419 -4.9618 -5.17703e-21)
(4.64539 -4.84383 -1.5935e-21)
(4.88946 -4.70172 0)
(5.10629 -4.53748 -2.61269e-19)
(5.29619 -4.35389 2.6249e-19)
(5.45981 -4.15425 2.06387e-19)
(5.59812 -3.94217 -1.05136e-19)
(5.71237 -3.72127 -2.40512e-20)
(5.80405 -3.49498 -8.35208e-20)
(5.87483 -3.26629 8.15598e-20)
(5.92654 -3.03755 -5.86793e-20)
(5.96113 -2.81043 2.76091e-19)
(5.98056 -2.58584 -2.59215e-19)
(5.98687 -2.36401 -3.71463e-19)
(5.98208 -2.1446 4.58544e-19)
(5.96823 -1.9268 -4.52934e-19)
(5.94742 -1.70949 4.78203e-19)
(5.92188 -1.49137 -5.72358e-19)
(5.89438 -1.27132 1.16024e-18)
(5.86981 -1.05007 4.83864e-20)
(5.86138 -0.841975 4.80804e-20)
(3.53332 -3.52894 -3.27026e-17)
(14.7823 -12.8034 -2.10838e-19)
(23.8487 -19.7485 4.68335e-17)
(24.6061 -22.3257 -9.30724e-17)
(20.1936 -21.213 4.63681e-17)
(15.3107 -20.7633 -4.15146e-17)
(12.7764 -22.2507 2.52637e-18)
(13.2722 -25.7774 4.08668e-17)
(15.2756 -29.8658 -3.55584e-17)
(16.6206 -32.6819 3.57216e-17)
(16.4186 -33.7939 -3.01394e-17)
(15.0086 -33.5767 3.0868e-17)
(13.1089 -32.4861 -2.56351e-17)
(11.4093 -30.8952 2.58389e-17)
(10.4308 -29.0698 -2.43776e-19)
(10.4894 -27.1396 -2.29045e-19)
(11.7184 -25.1391 -3.54475e-17)
(14.1843 -23.1297 3.60334e-17)
(17.7483 -21.0849 3.62472e-19)
(21.9159 -18.9338 4.72138e-20)
(25.8173 -16.6535 -1.63987e-17)
(28.6462 -14.4893 1.66837e-17)
(30.1386 -12.6865 0)
(30.5623 -11.2337 -6.09881e-21)
(30.1666 -9.9185 0)
(28.7966 -8.45599 0)
(26.1162 -6.60821 -2.88033e-20)
(22.1356 -4.5463 6.32621e-19)
(17.3628 -2.92594 -5.94019e-19)
(12.2751 -1.94077 2.73093e-19)
(7.3445 -1.17717 -1.51885e-19)
(2.99935 -0.398305 -6.64049e-20)
(-0.379283 0.119907 4.50087e-20)
(-2.57444 0.0652485 0)
(-3.66565 -0.529795 -6.10759e-21)
(-3.96078 -1.39581 0)
(-3.80591 -2.28884 0)
(-3.44357 -3.09134 4.88321e-21)
(-2.99525 -3.75749 0)
(-2.5217 -4.25624 0)
(-2.05807 -4.59225 -7.81448e-20)
(-1.63774 -4.80478 8.26001e-20)
(-1.27491 -4.93517 0)
(-0.955899 -5.0116 0)
(-0.659828 -5.06403 0)
(-0.367331 -5.11582 -1.06101e-20)
(-0.0640433 -5.17789 -1.38346e-20)
(0.258637 -5.25197 2.01097e-20)
(0.604875 -5.3353 -4.4532e-21)
(0.975884 -5.42365 4.99181e-20)
(1.37066 -5.51236 -5.92404e-20)
(1.78615 -5.59638 1.23559e-20)
(2.21741 -5.67017 3.00962e-20)
(2.65788 -5.72792 0)
(3.09999 -5.76405 0)
(3.53584 -5.77371 -1.11541e-19)
(3.95786 -5.75323 -1.72821e-21)
(4.35936 -5.7003 1.90123e-19)
(4.73479 -5.61396 -2.20202e-19)
(5.07988 -5.49447 2.86118e-19)
(5.39166 -5.34313 4.88738e-19)
(5.66825 -5.16207 3.00889e-20)
(5.90876 -4.95412 -9.69007e-19)
(6.1131 -4.72272 5.20453e-19)
(6.28187 -4.47188 5.97499e-20)
(6.41633 -4.20613 2.99276e-20)
(6.51833 -3.93036 6.22248e-19)
(6.59036 -3.64958 -1.2554e-18)
(6.63537 -3.36864 6.32015e-19)
(6.6567 -3.0918 5.38549e-20)
(6.65785 -2.82251 7.23749e-19)
(6.64232 -2.56319 -8.23996e-19)
(6.61346 -2.31525 0)
(6.57439 -2.07913 -7.42298e-20)
(6.52803 -1.85448 0)
(6.47704 -1.64033 8.29299e-19)
(6.42406 -1.43517 3.91158e-20)
(6.37185 -1.23749 -8.17537e-19)
(6.32416 -1.04763 6.20103e-19)
(6.28918 -0.877629 2.8117e-19)
(4.48157 -0.978949 -3.68377e-17)
(17.2247 -5.90131 5.54143e-17)
(25.5913 -9.99004 3.17577e-19)
(24.941 -10.1126 5.50332e-17)
(18.3813 -7.95442 -5.62681e-17)
(9.954 -4.17808 5.399e-17)
(1.86415 0.531959 -1.07557e-16)
(-4.3536 5.40392 5.36011e-17)
(-7.79743 9.82019 -5.03829e-17)
(-8.8296 13.7271 5.10968e-17)
(-8.47343 17.3311 0)
(-7.44319 20.6183 3.30212e-19)
(-5.87807 23.4634 -4.62465e-19)
(-3.16641 25.5555 0)
(1.54336 26.2595 0)
(8.21202 25.0315 0)
(16.1414 21.9671 0)
(24.6089 17.759 2.96206e-19)
(31.3743 13.5806 0)
(32.0437 11.3322 -1.31615e-17)
(23.9093 12.4901 1.33544e-17)
(10.2513 15.8977 1.3213e-17)
(-2.29622 18.4186 -1.34709e-17)
(-10.2184 18.124 -7.2478e-18)
(-14.3158 15.773 7.51386e-18)
(-16.4104 12.9903 -5.56025e-18)
(-17.632 10.4655 5.66713e-18)
(-18.4572 8.17763 -4.38206e-18)
(-18.8452 6.1283 7.84697e-19)
(-18.7673 4.44265 3.71957e-18)
(-18.1932 3.11768 0)
(-17.2267 2.13407 6.36386e-21)
(-15.9664 1.42871 -9.53983e-21)
(-14.4507 0.902421 0)
(-12.7157 0.45806 6.14473e-21)
(-10.8287 0.0211715 0)
(-8.86557 -0.448674 0)
(-6.90927 -0.951451 -2.51408e-19)
(-5.04701 -1.46823 4.60399e-19)
(-3.37613 -1.97765 -2.29789e-19)
(-1.9973 -2.47179 -9.06765e-20)
(-0.970526 -2.91633 9.47407e-20)
(-0.289355 -3.28011 -8.44636e-21)
(0.121937 -3.56845 0)
(0.377603 -3.8093 3.63404e-19)
(0.583623 -4.02956 -3.14049e-19)
(0.8078 -4.24597 0)
(1.07923 -4.46344 0)
(1.40323 -4.67916 -6.3086e-19)
(1.77549 -4.88754 7.66558e-19)
(2.18915 -5.08246 9.10656e-19)
(2.63653 -5.25793 -8.32039e-19)
(3.10892 -5.40822 -8.9732e-19)
(3.59639 -5.52803 1.73821e-18)
(4.08813 -5.61285 -8.69974e-19)
(4.57305 -5.65935 -2.2045e-19)
(5.04061 -5.66561 0)
(5.48148 -5.63121 1.47705e-19)
(5.88809 -5.55714 -6.75506e-19)
(6.25488 -5.44545 1.53533e-18)
(6.57827 -5.29891 -7.80737e-19)
(6.85635 -5.12051 0)
(7.08856 -4.91328 -6.1272e-20)
(7.27519 -4.68023 0)
(7.41722 -4.42454 -5.97372e-20)
(7.51623 -4.14994 -1.06158e-19)
(7.57463 -3.861 -2.04376e-19)
(7.5958 -3.56311 -1.25427e-18)
(7.58413 -3.26219 1.03356e-18)
(7.54483 -2.96409 -1.85896e-19)
(7.48354 -2.67404 -1.20109e-18)
(7.40581 -2.39613 1.46612e-18)
(7.3168 -2.13315 -1.17924e-18)
(7.22102 -1.88663 1.14659e-18)
(7.12235 -1.65704 -1.32793e-18)
(7.02401 -1.44397 9.62366e-19)
(6.92884 -1.24635 1.14023e-18)
(6.83941 -1.06289 -1.10516e-18)
(6.75824 -0.894099 2.43806e-19)
(6.68969 -0.749892 -2.45774e-19)
(5.13838 -2.07662 1.84485e-17)
(-2.65718 1.92664 2.57862e-17)
(-27.999 11.2551 -5.15151e-17)
(-48.747 17.3787 4.82707e-17)
(-54.4273 13.4852 -2.35443e-17)
(-47.6955 2.97742 -2.93826e-19)
(-32.9076 -10.9025 1.73871e-17)
(-14.5195 -24.6136 -3.38253e-17)
(2.41645 -35.1656 1.65369e-18)
(13.1855 -41.0025 1.52773e-17)
(16.2464 -42.4543 1.4528e-19)
(13.4098 -40.6016 -1.40033e-17)
(7.38714 -36.3519 1.43114e-17)
(0.550316 -30.9185 -1.35195e-17)
(-5.50812 -26.0313 1.38084e-17)
(-10.5548 -22.2926 1.29554e-17)
(-15.143 -19.3278 -1.3209e-17)
(-19.5172 -17.0347 -3.07639e-19)
(-23.3926 -15.5721 0)
(-26.2514 -14.8266 -1.19189e-17)
(-27.685 -14.2964 1.22043e-17)
(-27.5816 -13.4996 -1.11609e-19)
(-26.1647 -12.4049 8.2831e-18)
(-23.8678 -11.2474 -8.31255e-18)
(-21.1078 -10.2099 -2.29708e-19)
(-18.1375 -9.3714 0)
(-15.1691 -8.67763 7.91105e-20)
(-12.4471 -8.01931 9.66719e-21)
(-10.092 -7.2929 -8.84511e-19)
(-8.08416 -6.4856 8.27718e-19)
(-6.34631 -5.65616 -1.04995e-18)
(-4.81373 -4.85239 1.01407e-18)
(-3.43866 -4.09918 -4.96706e-20)
(-2.20049 -3.4211 1.87607e-18)
(-1.10766 -2.82994 -3.58888e-18)
(-0.187006 -2.33249 1.75444e-18)
(0.534462 -1.92305 1.26854e-18)
(1.01974 -1.59503 -1.28042e-18)
(1.24307 -1.34781 2.50424e-20)
(1.22394 -1.17186 -1.41091e-20)
(1.02409 -1.05992 -3.8304e-21)
(0.746332 -1.01887 -3.45095e-19)
(0.511958 -1.06703 -2.60539e-19)
(0.414706 -1.21293 6.15054e-19)
(0.489294 -1.44111 -1.08448e-18)
(0.713768 -1.72242 1.04508e-18)
(1.04558 -2.02894 0)
(1.44984 -2.34368 1.55202e-18)
(1.90709 -2.65587 -1.50862e-18)
(2.40948 -2.95999 1.51954e-18)
(2.95314 -3.25138 -2.28327e-20)
(3.53205 -3.52396 3.59971e-20)
(4.13566 -3.77015 2.07219e-20)
(4.74951 -3.98188 6.35885e-21)
(5.35702 -4.15199 -1.64143e-18)
(5.94146 -4.27542 3.29095e-20)
(6.48774 -4.34989 0)
(6.98369 -4.37609 -1.6447e-18)
(7.42083 -4.35743 1.33371e-18)
(7.79475 -4.29933 0)
(8.10467 -4.20795 -1.50995e-18)
(8.35255 -4.08908 1.09862e-18)
(8.54179 -3.94709 0)
(8.67606 -3.78452 -1.70499e-19)
(8.75845 -3.60237 0)
(8.7915 -3.40115 -1.95074e-18)
(8.77783 -3.18215 4.03898e-18)
(8.72112 -2.94828 -1.92437e-18)
(8.62681 -2.70422 1.91109e-19)
(8.50204 -2.45584 1.85804e-19)
(8.35504 -2.20909 -1.70432e-18)
(8.19405 -1.96915 1.4828e-18)
(8.02651 -1.73986 -2.29878e-19)
(7.85856 -1.52366 -2.22547e-19)
(7.69496 -1.32182 3.82927e-19)
(7.5393 -1.13466 1.64278e-19)
(7.39422 -0.961795 1.65992e-18)
(7.26172 -0.802599 8.44668e-21)
(7.1432 -0.657879 -1.56667e-18)
(7.04059 -0.535888 -3.73081e-19)
(0.815615 -1.13211 0)
(-14.9059 2.89844 1.054e-19)
(-48.7368 17.7372 4.34579e-19)
(-87.3222 32.9286 5.0472e-17)
(-111.704 43.9095 -1.00001e-16)
(-113.988 44.5049 9.47138e-17)
(-94.1437 34.7953 -4.59143e-17)
(-63.123 19.7355 0)
(-34.4058 5.23188 -1.62064e-19)
(-14.3675 -5.84383 3.27848e-17)
(-1.9034 -13.4965 -3.36947e-17)
(5.65335 -18.1865 -3.04461e-17)
(9.37135 -20.1878 6.12688e-17)
(10.0325 -19.8386 -8.85294e-19)
(8.93277 -17.629 -1.35041e-18)
(6.86232 -14.0249 -2.82722e-17)
(4.06927 -9.69357 -3.63849e-19)
(0.98891 -5.24095 2.44515e-17)
(-1.86564 -1.14092 -2.45313e-17)
(-4.15111 2.28359 -7.57586e-20)
(-5.70057 4.9105 -2.45565e-19)
(-6.49807 6.78628 -3.21565e-19)
(-6.62299 8.07078 1.39794e-17)
(-6.157 8.90833 -2.63707e-18)
(-5.19396 9.43693 -1.17236e-17)
(-3.85035 9.75338 -2.23799e-19)
(-2.27256 9.94399 6.84792e-18)
(-0.636301 10.0338 -1.22355e-17)
(0.87641 10.0627 9.58623e-18)
(2.11909 10.0523 -4.08257e-18)
(3.02821 10.0239 0)
(3.60637 9.9749 2.76407e-18)
(3.89373 9.87698 -4.16004e-18)
(3.9522 9.69859 1.43564e-18)
(3.84749 9.42352 2.61862e-19)
(3.63065 9.03802 -3.34117e-19)
(3.33871 8.55175 5.87142e-21)
(2.99153 7.98441 0)
(2.59604 7.35483 5.76974e-20)
(2.1621 6.68253 -1.22888e-18)
(1.72357 5.98596 1.31708e-18)
(1.34128 5.2796 -6.88811e-20)
(1.08188 4.57039 6.97517e-20)
(0.989551 3.86279 0)
(1.07617 3.16624 0)
(1.32646 2.48539 1.58196e-18)
(1.70254 1.8219 -1.88759e-18)
(2.17754 1.19008 -1.04781e-19)
(2.73632 0.609029 -2.14923e-18)
(3.36603 0.0852608 4.5568e-18)
(4.05272 -0.380704 -2.06404e-18)
(4.77987 -0.78881 0)
(5.52722 -1.13868 2.55363e-18)
(6.2716 -1.4296 -2.3603e-18)
(6.98881 -1.66112 0)
(7.65577 -1.83395 2.39811e-18)
(8.25264 -1.95072 -2.24893e-18)
(8.76472 -2.01648 2.11522e-18)
(9.1837 -2.03914 -1.79669e-18)
(9.50821 -2.029 0)
(9.74359 -1.99726 4.60486e-19)
(9.90005 -1.95437 1.89122e-19)
(9.98985 -1.90796 -1.63872e-18)
(10.0241 -1.86133 2.26002e-19)
(10.0105 -1.81321 1.52173e-18)
(9.95259 -1.75908 0)
(9.85133 -1.69369 1.46117e-19)
(9.708 -1.61351 0)
(9.52657 -1.51813 0)
(9.31464 -1.41001 -2.31275e-18)
(9.08245 -1.29318 2.25482e-18)
(8.8408 -1.17172 1.83616e-18)
(8.59929 -1.04893 2.09133e-19)
(8.3653 -0.927148 -1.77879e-18)
(8.14398 -0.80802 -2.13248e-18)
(7.93873 -0.692728 1.86099e-18)
(7.75163 -0.582038 -2.02763e-19)
(7.5838 -0.476538 -1.72642e-18)
(7.4355 -0.377747 3.75635e-18)
(7.30664 -0.293088 -1.2548e-18)
(-17.4707 5.2933 -7.7166e-17)
(-36.1216 9.10039 5.77571e-17)
(-38.034 8.12604 5.69658e-17)
(-38.1046 6.74788 -5.81965e-17)
(-41.9448 10.239 -4.2222e-19)
(-45.4155 15.2006 -4.04977e-19)
(-45.032 19.1592 0)
(-38.3799 19.7613 -4.89854e-17)
(-25.3782 15.7712 5.01616e-17)
(-9.15529 8.52361 0)
(6.56622 0.609238 3.62791e-17)
(20.4585 -6.55786 -6.9267e-17)
(33.01 -13.0264 3.80571e-18)
(44.4833 -18.8798 5.42137e-17)
(53.7168 -23.523 -2.59756e-17)
(58.7774 -26.1937 -3.83823e-19)
(58.5913 -26.5828 2.53279e-19)
(53.6837 -24.93 0)
(45.7574 -21.8957 -1.46759e-17)
(36.8167 -18.2941 1.46284e-17)
(28.4988 -14.8126 1.96173e-19)
(21.7493 -11.8449 -8.93767e-18)
(16.8452 -9.50114 9.49509e-18)
(13.6561 -7.73428 -6.49231e-18)
(11.7284 -6.35363 6.63917e-18)
(10.4798 -5.14014 2.25195e-19)
(9.39971 -3.92599 -3.86687e-18)
(8.17184 -2.66688 9.59359e-19)
(6.66823 -1.38389 4.78221e-18)
(4.92496 -0.14209 -8.67693e-19)
(3.08949 0.97749 -1.26747e-18)
(1.33706 1.90639 -6.301e-20)
(-0.195445 2.6115 2.27156e-20)
(-1.43707 3.09703 0)
(-2.37476 3.40114 2.6704e-20)
(-3.03863 3.56917 4.38849e-20)
(-3.48091 3.63383 0)
(-3.7489 3.62629 2.8461e-18)
(-3.86986 3.57633 -2.92715e-18)
(-3.84795 3.50535 -6.84146e-20)
(-3.66974 3.42459 0)
(-3.3182 3.33675 6.90457e-20)
(-2.78817 3.23822 3.18975e-18)
(-2.09404 3.12035 -3.16897e-18)
(-1.26998 2.96983 0)
(-0.346187 2.79857 -2.95076e-18)
(0.645895 2.62959 3.35131e-18)
(1.67549 2.464 0)
(2.71868 2.29526 0)
(3.76201 2.123 -1.68776e-19)
(4.79511 1.94974 -1.71015e-19)
(5.80567 1.77797 0)
(6.77798 1.61129 2.94069e-18)
(7.6928 1.45424 -3.08424e-18)
(8.52887 1.31162 -2.96465e-18)
(9.26521 1.18781 2.59011e-19)
(9.88368 1.08579 5.59192e-18)
(10.3716 1.00623 -5.36417e-18)
(10.7239 0.946797 -2.02817e-19)
(10.945 0.901808 2.15116e-18)
(11.0489 0.862663 -2.60563e-19)
(11.0575 0.819248 0)
(10.9965 0.762348 0)
(10.8895 0.6864 1.94043e-18)
(10.7527 0.5914 -2.15963e-18)
(10.5923 0.482824 0)
(10.4063 0.369423 2.315e-19)
(10.1908 0.259961 0)
(9.94527 0.160662 1.50178e-18)
(9.67554 0.074592 -1.46575e-18)
(9.39259 0.0027627 3.79296e-19)
(9.10869 -0.0543493 2.92098e-18)
(8.83393 -0.0960971 -2.55197e-18)
(8.57481 -0.121977 3.30589e-19)
(8.33477 -0.132295 0)
(8.11541 -0.128454 0)
(7.91749 -0.112643 0)
(7.74118 -0.0874351 -2.31584e-18)
(7.58593 -0.0561267 -2.067e-19)
(7.45001 -0.0263316 3.79607e-18)
(-23.0675 9.07946 3.30988e-17)
(-47.3139 19.9804 4.7695e-17)
(-47.781 19.6202 -4.87812e-17)
(-33.0572 15.4086 4.52364e-17)
(-12.6716 8.37699 -4.65581e-17)
(9.3416 2.54546 -3.11604e-19)
(22.988 1.08719 -3.00101e-19)
(21.8772 5.65866 0)
(12.091 13.8086 -7.53988e-20)
(5.52896 20.8804 0)
(6.16757 24.575 -2.29855e-19)
(10.0406 25.8779 -1.41157e-17)
(13.1079 26.3365 1.419e-17)
(13.9856 26.4381 8.93213e-18)
(12.8511 26.024 -8.73446e-18)
(10.2978 24.9747 6.0397e-18)
(6.84908 23.4025 -6.75582e-18)
(2.96185 21.5389 0)
(-0.837212 19.5747 0)
(-3.96992 17.5762 0)
(-5.84229 15.4131 -5.42421e-18)
(-6.09686 12.9493 1.16266e-17)
(-4.84995 10.1501 1.04403e-19)
(-2.54558 7.12464 -1.25121e-17)
(0.205376 4.20315 6.64088e-18)
(2.77852 1.82606 0)
(4.67214 0.295593 2.44774e-19)
(5.67061 -0.374773 0)
(5.84051 -0.377336 -4.06768e-18)
(5.38323 0.0375547 3.97488e-18)
(4.51748 0.667922 -8.05244e-20)
(3.43232 1.38349 0)
(2.28047 2.10253 2.30515e-18)
(1.18049 2.77185 -4.3102e-18)
(0.215618 3.34996 2.03338e-18)
(-0.563007 3.81083 -1.52213e-18)
(-1.12988 4.15377 2.92542e-18)
(-1.47848 4.39323 -1.40134e-18)
(-1.61402 4.54746 0)
(-1.54771 4.63397 0)
(-1.29344 4.669 0)
(-0.867682 4.66662 1.35287e-18)
(-0.292937 4.63157 -4.27399e-18)
(0.403009 4.56738 2.82794e-18)
(1.1931 4.48629 0)
(2.04962 4.39351 -3.31939e-18)
(2.94983 4.28896 3.21254e-18)
(3.87978 4.18123 3.41939e-18)
(4.82651 4.07543 -1.61978e-19)
(5.77696 3.97419 6.00359e-20)
(6.71695 3.87825 3.84001e-20)
(7.62963 3.78716 -3.51906e-18)
(8.49509 3.6996 0)
(9.29139 3.61404 0)
(9.99622 3.52909 -3.14444e-18)
(10.5891 3.44366 3.36287e-18)
(11.0534 3.35711 0)
(11.3791 3.26917 0)
(11.5641 3.17959 1.99438e-19)
(11.6163 3.0876 3.30095e-19)
(11.5539 2.99121 0)
(11.4037 2.88678 0)
(11.197 2.76934 -3.34312e-19)
(10.9624 2.63388 -3.18628e-19)
(10.7192 2.47713 2.46046e-18)
(10.4736 2.29889 -4.25417e-18)
(10.2212 2.10204 -1.7142e-19)
(9.95494 1.8913 3.83923e-18)
(9.67298 1.67193 -3.8964e-18)
(9.38266 1.44934 3.47078e-18)
(9.09742 1.22968 -6.40795e-19)
(8.83019 1.02042 -1.59126e-18)
(8.5882 0.829677 2.97281e-18)
(8.37211 0.664473 1.30712e-21)
(8.17866 0.52897 -5.46742e-18)
(8.00409 0.423799 2.98026e-18)
(7.84595 0.346702 0)
(7.70325 0.293659 5.92871e-19)
(7.57542 0.259586 0)
(7.46047 0.236395 -2.15559e-18)
(-16.3074 4.69876 0)
(-49.9773 14.6614 5.66144e-20)
(-76.7229 19.9352 -5.19025e-20)
(-84.3948 19.5589 -3.61152e-17)
(-73.1092 12.3824 7.44122e-17)
(-48.1841 1.10089 -3.77486e-17)
(-18.0322 -11.4496 2.98968e-19)
(8.34347 -22.0657 0)
(26.677 -29.139 0)
(38.4198 -33.2265 0)
(45.8165 -35.1828 2.24732e-19)
(49.589 -35.372 1.45704e-19)
(50.1165 -34.0688 0)
(47.9219 -31.4488 6.13183e-20)
(43.7493 -27.9959 -2.39367e-19)
(38.6868 -24.3779 3.75963e-17)
(33.6979 -20.761 -3.76333e-17)
(28.9663 -16.7659 -1.05523e-19)
(24.3961 -12.3016 0)
(19.9425 -7.57745 8.76318e-20)
(15.3 -2.64007 -2.72978e-19)
(10.1175 2.44779 2.49848e-17)
(4.99099 7.28249 -3.79251e-18)
(1.81176 10.8566 -2.17277e-17)
(2.24679 12.256 -3.4755e-19)
(5.71792 11.7035 4.49903e-22)
(9.69511 10.3328 -9.39978e-18)
(12.0222 9.05212 9.30028e-18)
(12.1687 8.11175 7.58747e-22)
(10.7232 7.40256 1.41634e-19)
(8.4993 6.81096 1.18553e-19)
(6.10683 6.28445 -3.24464e-18)
(3.90355 5.80273 3.27525e-18)
(2.0657 5.35695 1.35678e-19)