/*--------------------------------*- C++ -*----------------------------------*\
| =========                 |                                                 |
| \\      /  F ield         | OpenFOAM: The Open Source CFD Toolbox           |
|  \\    /   O peration     | Version:  2012                                  |
|   \\  /    A nd           | Website:  www.openfoam.com                      |
|    \\/     M anipulation  |                                                 |
\*---------------------------------------------------------------------------*/
FoamFile
{
    version     2.0;
    format      ascii;
    class       surfaceScalarField;
    location    "0.71";
    object      phi;
}
// * * * * * * * * * * * * * * * * * * * * * * * * * * * * * * * * * * * * * //

dimensions      [0 3 -1 0 0 0 0];
oriented        oriented;


internalField   nonuniform List<scalar> 
84340
(
-0.000764176
0.000359643
0.000404533
-0.00178933
0.000459201
0.000565952
-0.00234815
8.47337e-05
0.000474092
-0.00240633
-0.000431943
0.000490121
-0.00223082
-0.000810043
0.000634534
-0.00209257
-0.00095269
0.00081444
-0.00215714
-0.000909835
0.000974406
-0.00241566
-0.000824332
0.00108285
-0.00272825
-0.000780701
0.0010933
-0.00292877
-0.000738715
0.000939233
-0.00290293
-0.000619658
0.000593815
-0.00261486
-0.00041187
0.000123801
-0.00210036
-0.000173329
-0.000341167
-0.00144213
3.6975e-05
-0.000695212
-0.000739218
0.000197938
-0.000900847
-8.11928e-05
0.000311618
-0.000969644
0.000468508
0.000388185
-0.000937886
0.000886102
0.000435887
-0.000853481
0.00118381
0.00046284
-0.000760545
0.00139061
0.000474495
-0.000681302
0.00152999
0.00047352
-0.000612897
0.00161697
0.000461467
-0.000548448
0.001662
0.000439655
-0.000484682
0.00167655
0.000410395
-0.000424941
0.00167394
0.000376649
-0.000374043
0.00166671
0.000341537
-0.000334311
0.00166469
0.000307639
-0.000305616
0.00167455
0.000276889
-0.000286751
0.00170041
0.000250436
-0.000276295
0.0017444
0.000228831
-0.000272825
0.00180705
0.000212148
-0.00027479
0.00188711
0.000200053
-0.000280117
0.0019812
0.000191864
-0.000285955
0.0020836
0.000186668
-0.000289062
0.002187
0.000183421
-0.000286824
0.00228392
0.000181194
-0.000278116
0.00236803
0.000179254
-0.000263367
0.00243482
0.000177064
-0.000243846
0.00248151
0.000174114
-0.000220804
0.00250659
0.000169831
-0.000194913
0.00250908
0.000163645
-0.000166136
0.00248808
0.000154885
-0.000133884
0.00244264
0.000142746
-9.73105e-05
0.00237201
0.000126558
-5.59201e-05
0.00227503
0.000105923
-8.94494e-06
0.00214961
8.09605e-05
4.44623e-05
0.00199393
5.41249e-05
0.000101547
0.00181503
1.79822e-05
0.000160917
0.0016153
-1.9357e-05
0.000219087
0.00139935
-5.54667e-05
0.000271416
0.00117504
-8.82116e-05
0.000312522
0.00095202
-0.000113997
0.000337021
0.000739488
-0.000128798
0.000341331
0.000543842
-0.000129743
0.000325389
0.000367732
-0.000117624
0.000293734
0.000211339
-9.82079e-05
0.000254601
7.4432e-05
-8.03225e-05
0.000217229
-4.26615e-05
-7.18713e-05
0.000188965
-0.000139204
-7.71518e-05
0.000173694
-0.000214699
-9.67005e-05
0.000172195
-0.000268672
-0.000129344
0.000183317
-0.000300789
-0.000173071
0.000205188
-0.000310881
-0.000225796
0.000235888
-0.000299016
-0.000285568
0.000273702
-0.000265599
-0.000350523
0.000317105
-0.000211448
-0.000418821
0.000364669
-0.000137824
-0.000488606
0.000414983
-4.64144e-05
-0.000558031
0.000466622
6.072e-05
-0.000625293
0.000518159
0.000181221
-0.000688693
0.000568192
0.000312488
-0.000746677
0.00061541
0.000451885
-0.000797973
0.000658577
0.000596751
-0.00084155
0.000696684
0.000744538
-0.000876726
0.000728939
0.000892903
-0.0009032
0.000754836
0.00103977
-0.000921075
0.00077421
0.00118331
-0.000930844
0.000787301
0.00132194
-0.000933433
0.000794804
0.00145393
-0.00092982
0.000797828
-0.000925056
0.000800047
0.00157894
-8.38095e-06
0.000368024
-3.27023e-05
0.000483522
-6.72495e-05
0.000119281
-0.000122762
-0.000376431
-0.000224264
-0.000708541
-0.000396282
-0.000780672
-0.000665434
-0.000640683
-0.00104561
-0.000444161
-0.0015088
-0.000317505
-0.00196645
-0.000281065
-0.00229191
-0.000294196
-0.00240061
-0.000303175
-0.00228819
-0.000285746
-0.00201238
-0.000238841
-0.00164458
-0.000169854
-0.00124145
-9.15147e-05
-0.000834626
-1.86407e-05
-0.000440409
4.16706e-05
-6.70637e-05
8.94942e-05
0.000282721
0.000124711
0.000608278
0.000147962
0.000908746
0.000161
0.00118247
0.00016593
0.00142819
0.000164677
0.00164551
0.000159324
0.00183581
0.000151241
0.00200153
0.000141916
0.00214636
0.000132058
0.00227454
0.000122263
0.00239025
0.000113121
0.00249718
0.000105213
0.0025981
9.91308e-05
0.00269462
9.53452e-05
0.00278718
9.41116e-05
0.0028752
9.54024e-05
0.00295741
9.89841e-05
0.00303219
0.000104472
0.00309785
0.000111399
0.00315263
0.000119343
0.00319483
0.000127624
0.00322275
0.000135726
0.00323452
0.000143117
0.00322788
0.00014939
0.00320005
0.00015438
0.00314782
0.000158151
0.00306782
0.000160964
0.00295861
0.000163334
0.00281074
0.000165853
0.00262208
0.000169302
0.00239287
0.00017375
0.00212641
0.000178241
0.00183133
0.00018109
0.00152178
0.000180749
0.00121565
0.000176387
0.000930788
0.000167236
0.000681139
0.000151441
0.000474672
0.000126145
0.00031388
8.89204e-05
0.000199424
3.73048e-05
0.000124115
-2.13927e-05
8.61767e-05
-9.14062e-05
8.24955e-05
-0.00016939
0.000109727
-0.000253028
0.000164572
-0.000340411
0.000243706
-0.000429657
0.000343713
-0.000518827
0.000461041
-0.000605934
0.000591994
-0.000688985
0.000732759
-0.000766059
0.000879453
-0.000835387
0.00102822
-0.000895448
0.00117529
-0.00094504
0.00131711
-0.000983367
0.00145048
-0.0010101
0.00157271
-0.00102543
0.00168179
-0.00103016
0.00177651
-0.00102556
0.00185691
-0.00101383
0.00192271
-0.00099562
-0.00098382
0.00198148
0.000683748
-0.000315723
0.00158621
-0.000418938
0.00202422
-0.000318736
0.00208
-0.000432202
0.00204597
-0.000674514
0.00212217
-0.000856874
0.00239886
-0.000917372
0.0028311
-0.000876404
0.0032907
-0.0007771
0.00366159
-0.000651958
0.00388539
-0.000517993
0.00396506
-0.000382843
0.00392765
-0.000248341
0.00380494
-0.000116131
0.00362487
1.02152e-05
0.00341064
0.000122716
0.00317757
0.000214426
0.00294064
0.000278611
0.0027128
0.000317325
0.00249841
0.000339103
0.00230007
0.00034631
0.00211583
0.000345234
0.00194507
0.000336687
0.00178801
0.000321744
0.00164377
0.000303563
0.00151533
0.00027968
0.0014015
0.000255745
0.00130062
0.000232939
0.00121139
0.000211488
0.00113331
0.000191206
0.00106723
0.00017129
0.00101413
0.000152235
0.000973334
0.000136138
0.000944197
0.000123248
0.000925881
0.000113719
0.000917263
0.000107601
0.000916893
0.000104842
0.000922964
0.000105329
0.000933362
0.000108945
0.000945215
0.00011577
0.000956234
0.000124707
0.000965272
0.000134079
0.000971109
0.000143553
0.000970424
0.000155065
0.000959352
0.000169223
0.000935381
0.000184935
0.00089661
0.000202105
0.000842106
0.000220358
0.00077234
0.000239067
0.000689067
0.000257024
0.000595198
0.000272109
0.00049498
0.000281307
0.000394531
0.000281199
0.000302062
0.000268856
0.000226708
0.00024259
0.00017607
0.000202079
0.000154239
0.000147976
0.000161685
8.1474e-05
0.000194857
4.13266e-06
0.000255511
-8.20471e-05
0.000339487
-0.000175382
0.000444164
-0.000274067
0.000567277
-0.000376141
0.000706404
-0.00047954
0.000858827
-0.000582081
0.0010215
-0.000681499
0.00119108
-0.000775515
0.00136402
-0.000861925
0.00153665
-0.000938684
0.00170526
-0.001004
0.00186619
-0.00105638
0.00201586
-0.00109472
0.00215083
-0.00111834
0.00226782
-0.00112708
0.0023638
-0.00112142
0.00243623
-0.00110259
0.00248321
-0.00107254
0.00250451
-0.00103513
0.00249928
-0.000990388
-0.000960922
0.00247638
-0.000147516
-0.000168207
-0.000501815
-6.46393e-05
-0.00096645
0.0001459
-0.00143824
3.95824e-05
-0.00185129
-0.000261455
-0.00211414
-0.00059403
-0.00214815
-0.000883359
-0.0019148
-0.00110975
-0.00141955
-0.00127236
-0.000698067
-0.00137344
0.000193561
-0.00140962
0.001177
-0.00136628
0.0021463
-0.00121764
0.00297195
-0.000941783
0.00353048
-0.000548311
0.0037505
-9.73004e-05
0.00364581
0.000319111
0.00329725
0.000627172
0.00281276
0.000801809
0.00228713
0.00086474
0.00177291
0.000860527
0.00129402
0.000824125
0.000861477
0.000769229
0.000481377
0.000701844
0.000160529
0.000624412
-0.000103633
0.000543841
-0.000313999
0.000466112
-0.000476239
0.000395179
-0.000598642
0.000333891
-0.000683931
0.000276494
-0.000741322
0.000228682
-0.000779255
0.000190168
-0.000803056
0.000159939
-0.000817408
0.000137601
-0.000824727
0.000121038
-0.000826841
0.000109716
-0.000825187
0.000103188
-0.000821002
0.000101143
-0.000815303
0.000103247
-0.000808517
0.000108984
-0.000801442
0.000117633
-0.000795723
0.00012836
-0.000792621
0.00014045
-0.000791548
0.000153992
-0.000789402
0.000167077
-0.000785082
0.000180614
-0.00077689
0.000193912
-0.000762759
0.000206226
-0.000740151
0.00021646
-0.000706021
0.000222894
-0.000657515
0.000223604
-0.000592722
0.000216514
-0.000511117
0.000199594
-0.000413439
0.000171178
-0.000301122
0.000130274
-0.000175768
7.67247e-05
-3.88978e-05
1.11067e-05
0.000108528
-6.59515e-05
0.000265327
-0.000152667
0.000430723
-0.000247443
0.000603739
-0.000348398
0.000783123
-0.000453451
0.000967293
-0.00056031
0.00115427
-0.00066652
0.00134174
-0.000769549
0.00152714
-0.000866892
0.00170781
-0.00095619
0.00188121
-0.00103532
0.00204499
-0.00110247
0.00219712
-0.00115613
0.00233586
-0.00119512
0.0024597
-0.00121855
0.00256716
-0.0012258
0.00265665
-0.00121658
0.0027263
-0.00119107
0.00277391
-0.00115019
0.00279716
-0.0010958
0.002794
-0.00103198
0.00276381
-0.000960198
-0.00090385
0.00270674
-0.00101983
0.000851621
-0.00253911
0.00145464
-0.0038746
0.00148139
-0.00512408
0.00128906
-0.00634759
0.000962062
-0.0074687
0.000527072
-0.00841972
6.76634e-05
-0.00919262
-0.000336853
-0.00981425
-0.000650722
-0.0103046
-0.000883052
-0.010659
-0.00105527
-0.0108587
-0.0011666
-0.0108924
-0.00118389
-0.0107673
-0.0010669
-0.0105081
-0.000807484
-0.0101595
-0.000445904
-0.00976491
-7.54915e-05
-0.0093526
0.000214859
-0.00893112
0.000380333
-0.00849778
0.000431399
-0.00804935
0.000412093
-0.007588
0.00036278
-0.00712219
0.000303417
-0.00665934
0.000238997
-0.00620623
0.000171297
-0.00576629
0.000103906
-0.00533974
3.95631e-05
-0.00493534
-9.21966e-06
-0.00455561
-4.58455e-05
-0.00421019
-6.89267e-05
-0.00389507
-8.6437e-05
-0.00360817
-9.67277e-05
-0.00334881
-9.94192e-05
-0.00311578
-9.54325e-05
-0.00290782
-8.69232e-05
-0.00272186
-7.62386e-05
-0.00255395
-6.47231e-05
-0.00240035
-5.24575e-05
-0.00225835
-3.87596e-05
-0.00212643
-2.29309e-05
-0.00200396
-4.8342e-06
-0.00189048
1.48805e-05
-0.00178498
3.49474e-05
-0.0016849
5.39148e-05
-0.00158831
7.04822e-05
-0.00149121
8.35122e-05
-0.00139129
9.39993e-05
-0.00128478
9.97145e-05
-0.00117227
0.000103946
-0.00105039
0.000101018
-0.000917875
9.10876e-05
-0.000774475
7.31141e-05
-0.000620936
4.60552e-05
-0.000458505
8.74576e-06
-0.00028847
-3.97613e-05
-0.000112668
-9.90777e-05
6.73452e-05
-0.000168907
0.000249867
-0.000248473
0.000433685
-0.000336485
0.000617512
-0.000431269
0.000799898
-0.000530784
0.000979114
-0.000632667
0.00115313
-0.000734325
0.00131968
-0.000833075
0.00147646
-0.000926321
0.0016213
-0.00101174
0.00175249
-0.00108739
0.00186897
-0.00115179
0.00197039
-0.00120389
0.00205719
-0.00124292
0.00213037
-0.0012683
0.00219128
-0.00127946
0.0022413
-0.00127581
0.00228147
-0.00125674
0.00231225
-0.00122185
0.00233335
-0.00117129
0.00234389
-0.00110634
0.002342
-0.00103008
0.00232888
-0.000947077
-0.000871525
0.00229655
0.000548325
0.000303296
0.00102457
0.000978398
0.00110631
0.00139965
0.00101562
0.00137975
0.000951541
0.00102614
0.000931151
0.000547462
0.000875511
0.000123303
0.000688948
-0.00015029
0.000292396
-0.00025417
-0.000361911
-0.000228745
-0.00128138
-0.00013581
-0.00242656
-2.14194e-05
-0.00370596
9.55065e-05
-0.00498561
0.000212747
-0.00612256
0.000329463
-0.00700524
0.000436775
-0.00759871
0.000517986
-0.00793886
0.000555003
-0.00809536
0.000536835
-0.0081307
0.000466742
-0.00807563
0.000357023
-0.00793346
0.00022061
-0.00768343
5.33873e-05
-0.00732366
-0.000120777
-0.00687175
-0.000280609
-0.0063565
-0.000411348
-0.0058212
-0.00049574
-0.00529521
-0.00053521
-0.00480334
-0.000537711
-0.00435828
-0.000513986
-0.00397091
-0.000473809
-0.00364584
-0.000421797
-0.0033852
-0.000360062
-0.00318861
-0.000292022
-0.00304972
-0.000225816
-0.00295415
-0.000171801
-0.0028822
-0.000136673
-0.0028142
-0.000120462
-0.00273466
-0.000118299
-0.00263392
-0.000123671
-0.002508
-0.000130753
-0.00235765
-0.000135472
-0.00218701
-0.000135695
-0.00200206
-0.000131028
-0.00180955
-0.000122033
-0.00161591
-0.000110128
-0.00142441
-9.75009e-05
-0.00123817
-8.65254e-05
-0.00105545
-7.87678e-05
-0.00087795
-7.64851e-05
-0.000705608
-8.12539e-05
-0.000537692
-9.48024e-05
-0.000373721
-0.000117915
-0.000213148
-0.000151826
-5.59213e-05
-0.000196988
9.81988e-05
-0.000253198
0.00024916
-0.000319867
0.000396637
-0.000395949
0.000540049
-0.000479897
0.000678449
-0.000569669
0.000810436
-0.000662771
0.000934154
-0.000756385
0.0010474
-0.000847573
0.00114788
-0.000933552
0.00123353
-0.00101197
0.00130289
-0.0010811
0.00135542
-0.00113991
0.00139159
-0.00118796
0.00141291
-0.00122521
0.0014217
-0.00125172
0.00142085
-0.00126745
0.00141345
-0.00127206
0.00140247
-0.00126483
0.00139054
-0.00124482
0.0013798
-0.00121111
0.00137184
-0.00116333
0.00136777
-0.00110227
0.00136831
-0.00103062
0.0013751
-0.000953864
-0.000881759
0.00138533
0.000347509
-4.4213e-05
0.000937205
0.000388702
0.00153764
0.000799214
0.00211713
0.000800259
0.00263517
0.000508101
0.00305043
0.000132207
0.00338734
-0.000213614
0.00372626
-0.000489206
0.0041609
-0.000688811
0.00475043
-0.000818274
0.00550043
-0.000885807
0.00637651
-0.000897504
0.00732841
-0.000856392
0.0083053
-0.000764141
0.00927361
-0.000638848
0.0102053
-0.000494909
0.0110699
-0.000346587
0.0118277
-0.000202853
0.0124308
-6.61983e-05
0.0128339
6.35978e-05
0.0130066
0.000184288
0.0129359
0.000291358
0.0126053
0.000384019
0.0120177
0.000466813
0.011191
0.000546065
0.010155
0.000624616
0.00895666
0.000702633
0.00765634
0.000765105
0.00631487
0.000803763
0.00498958
0.000811306
0.00372633
0.00078944
0.00255485
0.000749683
0.00149528
0.000699505
0.000558814
0.000644445
-0.000249313
0.00058231
-0.000926731
0.000505616
-0.00147245
0.000409043
-0.00188647
0.000293564
-0.00217057
0.000165803
-0.0023291
3.48564e-05
-0.00237033
-8.95229e-05
-0.00230748
-0.000198327
-0.0021586
-0.000284569
-0.00194555
-0.000344085
-0.00169179
-0.000375789
-0.00142013
-0.000381784
-0.00115045
-0.000367182
-0.000897696
-0.000339281
-0.000670232
-0.000306232
-0.000471078
-0.000275639
-0.000298853
-0.000253479
-0.000149966
-0.00024369
-1.96012e-05
-0.00024828
9.64917e-05
-0.000267919
0.000201763
-0.000302259
0.00029892
-0.000350354
0.000389857
-0.000410805
0.000475686
-0.000481779
0.000556755
-0.000560966
0.000632635
-0.000645549
0.000702143
-0.000732279
0.000763462
-0.000817703
0.000814417
-0.000898527
0.000852872
-0.000972008
0.000877164
-0.00103626
0.000886445
-0.00109038
0.000880856
-0.00113432
0.00086151
-0.00116862
0.000830337
-0.00119404
0.000789872
-0.00121126
0.000743067
-0.00122065
0.000693156
-0.00122215
0.000643574
-0.00121525
0.000597924
-0.00119917
0.000559953
-0.00117314
0.000533521
-0.0011369
0.00052251
-0.00109126
0.0005306
-0.00103871
0.000560995
-0.000984258
-0.000939648
0.000618885
-0.000231392
0.000187179
0.000175831
-1.85206e-05
0.00124156
-0.000266515
0.00235608
-0.000314263
0.00309886
-0.000234678
0.00333917
-0.000108105
0.00310759
1.79726e-05
0.00249361
0.000124769
0.00160098
0.000203819
0.000531411
0.000251296
-0.000623956
0.00026956
-0.00178819
0.000266726
-0.00289886
0.000254279
-0.00390601
0.00024301
-0.00478369
0.000238839
-0.00552104
0.00024244
-0.00611866
0.00025103
-0.00658022
0.000258709
-0.00691603
0.000269607
-0.00713459
0.000282156
-0.00724441
0.000294115
-0.00725951
0.000306454
-0.00719584
0.000320345
-0.0070656
0.00033658
-0.00687275
0.000353207
-0.0066142
0.000366069
-0.00628181
0.000370244
-0.00587861
0.000361901
-0.00541471
0.000339863
-0.00490929
0.000305891
-0.00438375
0.000263901
-0.00385264
0.000218569
-0.00332651
0.000173371
-0.00281183
0.00012977
-0.00231399
8.44647e-05
-0.00184219
3.38207e-05
-0.00140933
-2.38174e-05
-0.00102007
-9.56999e-05
-0.000691059
-0.000163204
-0.000426717
-0.000229486
-0.000215888
-0.000300352
-4.04619e-05
-0.000373753
0.00011387
-0.0004389
0.000256979
-0.000487194
0.000392632
-0.000511442
0.000518832
-0.000507983
0.000629993
-0.000478343
0.000719596
-0.000428884
0.000783338
-0.000369974
0.000820876
-0.000313175
0.000835268
-0.000267871
0.000832475
-0.000240896
0.000819392
-0.000235197
0.000802009
-0.000250536
0.000785049
-0.000285299
0.000771737
-0.000337042
0.000763841
-0.000402908
0.000761849
-0.000479785
0.000765141
-0.000564257
0.00077214
-0.000652549
0.000780504
-0.000740643
0.000787399
-0.000824599
0.000789887
-0.000901015
0.000785342
-0.000967463
0.000771809
-0.00102273
0.0007482
-0.00106677
0.000714319
-0.00110044
0.000670754
-0.00112505
0.000618761
-0.00114204
0.000560179
-0.00115267
0.000497428
-0.0011579
0.000433571
-0.00115829
0.000372363
-0.00115404
0.00031826
-0.00114507
0.000276303
-0.00113118
0.000251877
-0.00111247
0.000250223
-0.0010896
0.000275882
-0.00106437
0.000332303
-0.00104068
-0.00102719
0.000419847
0.000594057
-0.000406878
0.00127293
-0.000697389
0.00155749
-0.000551082
0.0014361
-0.000192872
0.00101017
0.000191256
0.000412621
0.000489441
-0.000249102
0.000679695
-0.000915082
0.000790749
-0.0015686
0.000857334
-0.00219933
0.000882032
-0.00280143
0.000871659
-0.00336473
0.000830026
-0.00387258
0.000762131
-0.00430211
0.000672541
-0.00463384
0.000570568
-0.00486147
0.000470072
-0.00497192
0.000361473
-0.00496067
0.000247465
-0.00482483
0.000133763
-0.0045686
2.59293e-05
-0.00420443
-7.00511e-05
-0.0037491
-0.000148879
-0.00322196
-0.000206793
-0.00264282
-0.000242562
-0.00203156
-0.000258053
-0.0014078
-0.000257694
-0.000790163
-0.00024739
-0.000194081
-0.000234181
0.000367374
-0.000221591
0.000883182
-0.000209917
0.0013455
-0.000198419
0.00175423
-0.000190158
0.0021115
-0.000183897
0.00241976
-0.000178491
0.00268065
-0.00017643
0.00289251
-0.000178031
0.003052
-0.000183308
0.00314576
-0.000189465
0.00318901
-0.000206452
0.00318824
-0.000228713
0.00314445
-0.000256561
0.00305662
-0.000285928
0.00292594
-0.00030822
0.00275769
-0.000318939
0.00255989
-0.000313649
0.00234212
-0.00029021
0.00211983
-0.000256054
0.00190797
-0.000217025
0.00171646
-0.000178461
0.00155103
-0.000147745
0.00141373
-0.000130568
0.00130289
-0.000130056
0.00122115
-0.000153458
0.00115928
-0.000188662
0.0011126
-0.000238627
0.00107796
-0.000302398
0.00105277
-0.000377723
0.00103474
-0.000461749
0.00102154
-0.000551066
0.00101077
-0.00064177
0.000999845
-0.000729722
0.000986279
-0.000811032
0.000967893
-0.000882629
0.000943132
-0.000942702
0.000911246
-0.000990843
0.000872311
-0.00102784
0.000827098
-0.00105523
0.000776882
-0.00107484
0.000723266
-0.00108843
0.000668085
-0.00109749
0.0006134
-0.00110321
0.000561571
-0.00110646
0.000515346
-0.00110782
0.000477917
-0.00110764
0.000452847
-0.00110611
0.000443804
-0.00110343
0.000454208
-0.00110001
0.000486615
-0.00109678
0.000541636
-0.0010957
-0.00109994
0.00061438
-0.000540133
0.000133255
-0.00165247
0.000414945
-0.00293155
0.000728001
-0.00409876
0.000974335
-0.00501972
0.00111222
-0.00566174
0.00113147
-0.0060324
0.00105035
-0.00614957
0.000907926
-0.00603022
0.000737981
-0.00570966
0.000561475
-0.00522989
0.000391887
-0.00463091
0.00023104
-0.00395059
8.18189e-05
-0.0032208
-5.72507e-05
-0.00246232
-0.000187917
-0.00168084
-0.000311406
-0.000890721
-0.000428647
-0.000102692
-0.000540565
0.000674233
-0.000643163
0.00143336
-0.000733199
0.00217112
-0.000807814
0.00288697
-0.000864728
0.00357788
-0.000897702
0.00423067
-0.000895346
0.0048254
-0.000852783
0.00534666
-0.000778962
0.00578958
-0.000690301
0.00615883
-0.000603436
0.00646831
-0.000531072
0.00673685
-0.00047846
0.00698035
-0.000441911
0.00720086
-0.000410671
0.00739826
-0.000381302
0.00756486
-0.000345082
0.00769156
-0.000303134
0.0077578
-0.000244275
0.00775236
-0.000177864
0.00767357
-0.000110676
0.00751396
-4.68382e-05
0.00727326
1.19831e-05
0.00695143
6.5263e-05
0.00655203
0.000113476
0.00608639
0.000157423
0.00557022
0.000197225
0.00502472
0.000231854
0.00447585
0.000258659
0.00394583
0.000273964
0.00345421
0.000274594
0.00301703
0.000258722
0.00264318
0.000226105
0.00233468
0.000177935
0.00208844
0.000116177
0.00189231
4.26804e-05
0.00174254
-3.88992e-05
0.00163
-0.000126088
0.00154764
-0.000220031
0.00148751
-0.000317598
0.00144242
-0.000416658
0.00140601
-0.000514658
0.00137288
-0.000608632
0.00133868
-0.000695528
0.00130037
-0.000772724
0.00125632
-0.000838578
0.00120635
-0.000892733
0.00115154
-0.000936034
0.00109383
-0.000970123
0.0010355
-0.000996898
0.000978776
-0.00101811
0.000925522
-0.00103517
0.000877161
-0.00104913
0.000834712
-0.00106076
0.000798918
-0.00107067
0.00077042
-0.00107932
0.00074991
-0.00108713
0.000738234
-0.00109444
0.000736393
-0.00110159
0.000745314
-0.00110893
0.000765479
-0.00111694
0.000796087
-0.00112631
-0.00113764
0.000833792
-0.000112984
0.000246239
-9.39353e-05
0.000395896
0.000121005
0.000513061
0.000445601
0.00064974
0.000793124
0.000764695
0.00110707
0.000817518
0.00137326
0.000784164
0.00161151
0.000669672
0.0018427
0.000506791
0.00206975
0.000334424
0.00228625
0.000175393
0.0024842
3.30845e-05
0.00266294
-9.69178e-05
0.00282408
-0.000218391
0.00296832
-0.000332154
0.00309395
-0.000437043
0.00319651
-0.000531206
0.00327034
-0.000614397
0.00330656
-0.000679375
0.003301
-0.000727647
0.00325451
-0.000761324
0.0031779
-0.000788109
0.00308907
-0.000808876
0.0030019
-0.00080818
0.00291586
-0.000766743
0.00281808
-0.000681183
0.00269363
-0.000565844
0.00253152
-0.000441331
0.00232612
-0.000325673
0.00207908
-0.000231421
0.00180005
-0.000162879
0.00150413
-0.000114753
0.00120361
-8.07781e-05
0.00091047
-5.19431e-05
0.000631203
-2.38665e-05
0.000382601
4.32696e-06
0.000172858
3.18795e-05
4.36049e-06
5.78213e-05
-0.000123836
8.1358e-05
-0.000214104
0.000102251
-0.000269465
0.000120624
-0.00029252
0.000136531
-0.000284744
0.000149648
-0.000246597
0.000159078
-0.000178191
0.000163448
-8.06681e-05
0.000161135
4.2644e-05
0.000150652
0.000186229
0.000131009
0.000343124
0.000101827
0.000506075
6.3154e-05
0.000668125
1.58844e-05
0.000822711
-3.8409e-05
0.000965568
-0.000100176
0.00109425
-0.000167584
0.00120798
-0.000239814
0.00130373
-0.000315784
0.00138014
-0.000394011
0.00143608
-0.000472598
0.0014707
-0.000549277
0.00148368
-0.000621614
0.0014756
-0.000687443
0.00144822
-0.00074535
0.00140465
-0.000795008
0.00134908
-0.000837156
0.00128624
-0.000873199
0.00122076
-0.000904643
0.00115654
-0.000932676
0.00109646
-0.000958032
0.00104239
-0.000981102
0.000995377
-0.00100211
0.000955873
-0.00102126
0.000923956
-0.00103875
0.000899462
-0.00105483
0.000882106
-0.00106977
0.000871561
-0.00108389
0.000867496
-0.00109752
0.000869559
-0.00111099
0.000877261
-0.00112464
0.000889795
-0.00113884
-0.0011539
0.000906057
0.00067747
-0.00043123
0.001695
-0.000621634
0.00256337
-0.000355313
0.00316784
4.52681e-05
0.00350333
0.00042921
0.00360711
0.000713736
0.00357574
0.00081554
0.00352442
0.000720986
0.00351477
0.000516438
0.00352459
0.000324606
0.00348869
0.000211292
0.00335386
0.000167912
0.00309829
0.000158652
0.00272306
0.000156845
0.00224083
0.000150072
0.00167064
0.000133155
0.00102989
0.000109543
0.000340765
7.47245e-05
-0.000372182
3.35717e-05
-0.00108753
-1.2302e-05
-0.0017862
-6.26481e-05
-0.00245478
-0.00011953
-0.00307836
-0.000185298
-0.00362973
-0.00025681
-0.00407238
-0.000324092
-0.00437678
-0.000376787
-0.00453005
-0.000412571
-0.00453747
-0.000433914
-0.00442066
-0.000442481
-0.00421524
-0.000436841
-0.00396109
-0.000417035
-0.00369211
-0.00038373
-0.00343253
-0.000340355
-0.00319086
-0.00029361
-0.00297049
-0.000244238
-0.0027727
-0.000193463
-0.00259518
-0.000145645
-0.00243429
-0.000103066
-0.00228069
-7.22415e-05
-0.00212744
-5.1001e-05
-0.00196905
-3.77678e-05
-0.00180099
-3.15234e-05
-0.00161979
-3.15518e-05
-0.00142267
-3.80392e-05
-0.00120874
-5.04839e-05
-0.000979325
-6.82828e-05
-0.00073671
-9.19636e-05
-0.000490133
-0.000115568
-0.000243041
-0.000145264
-1.19891e-06
-0.000178688
0.000230269
-0.000215583
0.000447706
-0.000255845
0.000647024
-0.000299494
0.00082581
-0.00034637
0.000982048
-0.000396052
0.00111402
-0.000447759
0.00122032
-0.000500308
0.00129988
-0.000552158
0.00135224
-0.000601636
0.00137792
-0.000647297
0.00137881
-0.000688334
0.00135831
-0.00072485
0.00132111
-0.000757802
0.00127254
-0.00078859
0.00121781
-0.000818471
0.00116129
-0.000848124
0.0011062
-0.000877584
0.00105465
-0.000906485
0.00100794
-0.000934387
0.000966806
-0.000960983
0.000931693
-0.000986146
0.000902825
-0.00100988
0.000880254
-0.00103226
0.000863861
-0.00105338
0.000853366
-0.0010734
0.000848352
-0.00109251
0.000848309
-0.00111095
0.000852673
-0.00112901
0.000860879
-0.00114705
-0.00116552
0.000872493
-0.000584839
0.000153608
-0.00149136
0.000284886
-0.00233596
0.000489288
-0.00310388
0.000813185
-0.00380221
0.00112754
-0.00442281
0.00133434
-0.00494722
0.00133995
-0.00536067
0.00113443
-0.00565081
0.000806583
-0.00581414
0.000487931
-0.00585296
0.000250115
-0.00578158
9.65291e-05
-0.00562505
2.12275e-06
-0.00541347
-5.47322e-05
-0.00517482
-8.85794e-05
-0.00493332
-0.000108342
-0.00470443
-0.00011935
-0.00450477
-0.00012494
-0.00434275
-0.000128441
-0.00421968
-0.000135373
-0.00413076
-0.000151567
-0.00406682
-0.000183473
-0.00401747
-0.000234643
-0.00397083
-0.000303451
-0.00391098
-0.000383941
-0.00382018
-0.000467593
-0.00369131
-0.000541439
-0.00351701
-0.00060821
-0.00331111
-0.000648385
-0.00308763
-0.000660316
-0.00286142
-0.000643249
-0.00264248
-0.000602672
-0.00243593
-0.0005469
-0.00224569
-0.000483846
-0.00207011
-0.000419823
-0.00190386
-0.000359712
-0.00174298
-0.000306529
-0.00158345
-0.000262591
-0.00142672
-0.000228975
-0.00127191
-0.000205814
-0.00111717
-0.000192502
-0.000960714
-0.000187983
-0.000801081
-0.000191185
-0.000638244
-0.000200877
-0.000472827
-0.000215901
-0.000306146
-0.000234964
-0.000141097
-0.000257012
2.4491e-05
-0.000281156
0.000186204
-0.000306977
0.000341731
-0.000334216
0.000488963
-0.000362815
0.000625938
-0.00039282
0.000750669
-0.000424226
0.000861153
-0.000456854
0.000955368
-0.000490268
0.00103138
-0.000523775
0.00108761
-0.000556535
0.00112322
-0.00058777
0.00113862
-0.00061703
0.00113574
-0.000644422
0.00111807
-0.000670659
0.00109008
-0.00069686
0.00105641
-0.000724135
0.00102099
-0.000753164
0.000986473
-0.000783958
0.000954289
-0.000815939
0.000924951
-0.000848247
0.000898539
-0.000880073
0.00087502
-0.000910867
0.000854399
-0.000940362
0.000836747
-0.000968494
0.000822168
-0.000995301
0.000810772
-0.00102086
0.000802649
-0.00104526
0.000797854
-0.0010686
0.000796393
-0.00109105
0.00079822
-0.00111277
0.000803229
-0.00113402
0.000811253
-0.00115507
-0.00117628
0.000822011
0.000173465
-1.9857e-05
0.000386308
7.20431e-05
0.000621204
0.000254392
0.00095063
0.000483759
0.00139235
0.000685821
0.00195193
0.000774761
0.00255273
0.000739154
0.00306505
0.000622112
0.00339122
0.000480414
0.00352482
0.000354327
0.00351464
0.000260293
0.00341775
0.000193425
0.00327927
0.000140605
0.00312943
9.50998e-05
0.00299131
4.95425e-05
0.00288069
2.27768e-06
0.00280705
-4.57092e-05
0.00277323
-9.11247e-05
0.0027752
-0.000130406
0.0028023
-0.000162469
0.00283661
-0.000185881
0.002863
-0.000209867
0.00286742
-0.000239061
0.00283591
-0.000271944
0.00276109
-0.000309118
0.00264103
-0.000347534
0.00247824
-0.000378651
0.00226009
-0.000390057
0.00199524
-0.00038353
0.00169638
-0.00036146
0.00138107
-0.000327941
0.00106766
-0.000289261
0.00077253
-0.000251766
0.000508794
-0.00022011
0.000285292
-0.000196321
0.000106091
-0.000180511
-2.8308e-05
-0.00017213
-0.000120476
-0.000170423
-0.000174894
-0.000174557
-0.000197031
-0.000183678
-0.000192563
-0.000196969
-0.000166871
-0.000213674
-0.000125037
-0.000233019
-7.15426e-05
-0.000254371
-1.0357e-05
-0.000277086
5.53256e-05
-0.000300646
0.000122975
-0.000324661
0.000190743
-0.000348924
0.000257132
-0.000373366
0.000320956
-0.00039804
0.000381155
-0.000423014
0.000436647
-0.000448311
0.00048628
-0.000473858
0.000528909
-0.000499483
0.000563604
-0.000524963
0.000589948
-0.000550119
0.000608337
-0.000574924
0.000620152
-0.000599585
0.000627662
-0.00062454
0.000633604
-0.000650363
0.000640513
-0.000677569
0.000650057
-0.000706404
0.000662643
-0.00073672
0.000677483
-0.000768005
0.000693082
-0.000799558
0.00070786
-0.000830718
0.000720638
-0.000861026
0.000730833
-0.000890269
0.000738394
-0.000918428
0.000743625
-0.000945593
0.000747014
-0.000971883
0.000749118
-0.000997407
0.000750512
-0.00102225
0.000751754
-0.0010465
0.000753367
-0.00107022
0.00075581
-0.00109349
0.000759451
-0.00111641
0.000764551
-0.00113912
0.000771235
-0.00116176
-0.00118447
0.000779427
-4.50026e-05
2.51456e-05
-7.07024e-05
9.77429e-05
5.48569e-05
0.000128832
0.000355999
0.000182617
0.000772557
0.000269262
0.0012399
0.000307421
0.00170189
0.000277158
0.00211414
0.000209865
0.00244829
0.000146264
0.00269159
0.000111026
0.00284513
0.000106754
0.0029191
0.00011945
0.0029268
0.000132906
0.00287931
0.000142592
0.00278677
0.000142084
0.00266241
0.000126639
0.0025193
9.73991e-05
0.00238352
4.46511e-05
0.00231216
-5.90373e-05
0.00235031
-0.000200622
0.00248942
-0.000324995
0.00267435
-0.000394792
0.00283289
-0.000397603
0.00289803
-0.000337083
0.00283958
-0.000250674
0.0026419
-0.000149852
0.00231636
-5.31038e-05
0.00189995
2.63482e-05
0.00143685
7.95671e-05
0.000972545
0.000102848
0.00054883
9.57734e-05
0.000194792
6.47768e-05
-8.22739e-05
2.53002e-05
-0.000284983
-1.74013e-05
-0.000422173
-5.91307e-05
-0.000505271
-9.74127e-05
-0.000546146
-0.000131256
-0.000555828
-0.00016074
-0.000543735
-0.000186649
-0.00051739
-0.000210023
-0.000482429
-0.00023193
-0.000442854
-0.00025325
-0.000401297
-0.000274576
-0.000359429
-0.000296238
-0.000318157
-0.000318358
-0.000277857
-0.000340945
-0.000238546
-0.000363972
-0.000200043
-0.000387426
-0.000162086
-0.000411323
-0.000124427
-0.000435698
-8.68611e-05
-0.00046058
-4.92022e-05
-0.00048597