/*--------------------------------*- C++ -*----------------------------------*\
| =========                 |                                                 |
| \\      /  F ield         | OpenFOAM: The Open Source CFD Toolbox           |
|  \\    /   O peration     | Version:  2012                                  |
|   \\  /    A nd           | Website:  www.openfoam.com                      |
|    \\/     M anipulation  |                                                 |
\*---------------------------------------------------------------------------*/
FoamFile
{
    version     2.0;
    format      ascii;
    class       volVectorField;
    location    "0.71";
    object      U;
}
// * * * * * * * * * * * * * * * * * * * * * * * * * * * * * * * * * * * * * //

dimensions      [0 1 -1 0 0 0 0];


internalField   nonuniform List<vector> 
42400
(
(0.830641 -4.48858 1.52393e-16)
(0.559233 -12.1588 2.22609e-16)
(4.41865 -18.2639 -2.26963e-16)
(11.5321 -30.0371 0)
(24.9811 -41.6496 0)
(38.0272 -52.5406 -8.15813e-19)
(48.5023 -62.1153 0)
(55.5109 -70.3077 6.72833e-19)
(57.4342 -75.1984 0)
(52.1454 -72.4487 4.97968e-19)
(39.2772 -59.7496 4.14493e-19)
(22.0734 -40.5286 -3.45355e-19)
(5.93626 -21.3249 -6.73349e-17)
(-5.25201 -6.4201 6.87278e-17)
(-10.9362 3.55404 -2.23102e-19)
(-12.6189 9.63325 0)
(-12.0676 13.0303 0)
(-10.6162 14.7552 0)
(-9.06846 15.5415 0)
(-7.72215 15.8141 0)
(-6.55783 15.755 0)
(-5.49861 15.4229 -1.56273e-19)
(-4.48423 14.8464 -6.61047e-18)
(-3.52023 14.0854 2.8927e-18)
(-2.63388 13.2394 3.63927e-18)
(-1.8491 12.4118 -6.27474e-20)
(-1.17734 11.6847 -4.94928e-20)
(-0.616616 11.1089 7.95379e-20)
(-0.15274 10.7053 0)
(0.237785 10.4718 0)
(0.582924 10.3897 -2.45398e-18)
(0.911427 10.4282 2.47826e-18)
(1.24911 10.5472 4.96687e-20)
(1.61382 10.7004 1.33182e-18)
(2.0106 10.8427 -1.39301e-18)
(2.4305 10.9369 0)
(2.8564 10.9579 0)
(3.27013 10.8922 0)
(3.65848 10.7334 0)
(4.01532 10.4784 -6.1635e-19)
(4.34083 10.1234 6.18385e-19)
(4.63925 9.66301 -9.07513e-19)
(4.91655 9.09022 5.07647e-22)
(5.17747 8.39764 2.00229e-18)
(5.42532 7.58329 -9.94058e-19)
(5.65452 6.64533 1.14561e-18)
(5.85061 5.59018 -2.46867e-18)
(5.99792 4.44721 1.22181e-18)
(6.07727 3.26557 1.04063e-19)
(6.0522 2.10338 -1.5875e-18)
(5.87968 1.03451 3.23412e-18)
(5.52497 0.14102 2.78143e-19)
(4.97586 -0.512405 -1.91187e-18)
(4.25699 -0.906341 2.22957e-19)
(3.43577 -1.08246 0)
(2.60942 -1.13071 0)
(1.87524 -1.15144 0)
(1.30223 -1.21639 -1.78958e-19)
(0.91913 -1.35393 -1.64817e-19)
(0.720439 -1.55948 0)
(0.684498 -1.81346 -2.22037e-18)
(0.78538 -2.09227 2.3101e-18)
(0.998871 -2.37481 1.91097e-18)
(1.30387 -2.64403 -1.8753e-18)
(1.68148 -2.88648 0)
(2.11398 -3.0915 0)
(2.58422 -3.25085 1.5063e-18)
(3.07564 -3.35854 -1.47223e-18)
(3.57241 -3.41073 -1.65605e-19)
(4.05986 -3.40569 0)
(4.52515 -3.34339 0)
(4.95718 -3.22588 -1.53564e-19)
(5.34684 -3.05716 -1.49947e-19)
(5.68781 -2.84239 0)
(5.97636 -2.58797 -1.4139e-19)
(6.21139 -2.30144 -1.09556e-18)
(6.39431 -1.99123 1.06247e-18)
(6.52964 -1.66599 2.46697e-19)
(6.62798 -1.33049 9.07511e-19)
(6.6467 -1.06459 8.08216e-19)
(-17.426 15.8326 0)
(-19.9519 16.9388 1.01511e-17)
(11.0348 -9.18992 -1.04966e-17)
(46.0543 -41.6913 0)
(63.4793 -57.8634 0)
(60.0336 -55.6516 3.12519e-18)
(42.6229 -41.4367 -2.35771e-18)
(23.7284 -26.4839 -6.7886e-19)
(11.5095 -18.3266 0)
(6.4853 -16.9904 -5.01385e-19)
(5.41467 -18.7095 -4.16491e-19)
(5.42541 -20.1795 -3.55454e-19)
(5.06561 -19.8294 -1.74474e-18)
(3.85108 -17.4223 2.1343e-18)
(1.85976 -13.4777 4.88167e-18)
(-0.493644 -8.80474 -4.76463e-18)
(-2.71257 -4.14771 0)
(-4.44606 0.0111687 1.02479e-19)
(-5.56516 3.47245 0)
(-6.09882 6.23147 0)
(-6.14009 8.36887 0)
(-5.7908 9.9806 -7.89637e-18)
(-5.14774 11.1485 2.37476e-19)
(-4.29822 11.9478 8.52089e-18)
(-3.31899 12.4382 0)
(-2.27247 12.6842 -1.65033e-19)
(-1.20852 12.7413 4.94663e-20)
(-0.165071 12.6669 -7.94681e-20)
(0.831025 12.5102 -6.50449e-18)
(1.75956 12.3164 6.57659e-18)
(2.60608 12.1237 -3.25423e-19)
(3.36104 11.9611 -2.95232e-19)
(4.01938 11.8461 -4.70937e-18)
(4.58161 11.7844 4.9668e-18)
(5.05188 11.7723 4.22001e-18)
(5.43585 11.7992 -4.38468e-18)
(5.74018 11.8511 0)
(5.97204 11.9122 1.43853e-19)
(6.14071 11.967 0)
(6.25501 11.9978 2.20795e-19)
(6.32413 11.9882 -2.27004e-18)
(6.35669 11.9232 2.46998e-18)
(6.35903 11.7889 -9.91517e-20)
(6.33271 11.5731 9.79579e-20)
(6.27461 11.2655 2.9359e-20)
(6.17779 10.8573 9.75572e-20)
(6.03436 10.347 -9.87156e-20)
(5.82686 9.7299 -1.76547e-18)
(5.53491 8.99542 1.75653e-18)
(5.15307 8.14286 0)
(4.6872 7.18172 -1.04528e-19)
(4.14604 6.13689 -2.24085e-19)
(3.53603 5.06432 -1.66337e-18)
(2.86664 4.04478 1.65163e-18)
(2.17183 3.14625 1.93541e-19)
(1.52282 2.38582 -3.08134e-18)
(1.00738 1.73136 3.40011e-18)
(0.691348 1.13802 1.78746e-19)
(0.598419 0.579271 1.64637e-19)
(0.711604 0.0457195 -2.26454e-18)
(0.994248 -0.458059 2.22925e-18)
(1.41254 -0.919423 -1.26441e-19)
(1.93492 -1.32916 -1.01548e-19)
(2.53274 -1.68137 0)
(3.1801 -1.97188 1.29341e-18)
(3.85308 -2.1978 -5.07962e-20)
(4.52928 -2.3575 -1.51565e-18)
(5.18798 -2.45076 0)
(5.81052 -2.47891 3.14409e-19)
(6.38064 -2.44487 -1.4625e-19)
(6.88486 -2.35334 -1.20491e-18)
(7.31296 -2.21078 1.32661e-18)
(7.65802 -2.0251 1.31283e-18)
(7.91671 -1.80544 -1.26748e-18)
(8.08924 -1.56174 2.7445e-19)
(8.17946 -1.30421 -1.06498e-18)
(8.1942 -1.04267 7.83852e-19)
(8.14384 -0.786367 -2.464e-19)
(8.04407 -0.532782 1.13986e-18)
(7.86297 -0.39164 -8.88292e-19)
(1.53882 0.610145 7.03421e-17)
(8.01368 6.7105 -3.23809e-19)
(9.94181 2.58899 -3.61856e-19)
(19.7879 -0.176627 -2.81841e-19)
(26.6758 -7.71126 0)
(32.0392 -12.0099 1.49209e-16)
(34.2764 -12.5154 -2.84205e-16)
(34.3954 -10.2719 1.34585e-16)
(33.8654 -7.14198 -9.47966e-17)
(33.176 -4.25748 1.95098e-17)
(31.9945 -1.70843 7.89717e-17)
(29.8838 0.748573 2.12332e-19)
(26.7691 3.2341 1.51296e-19)
(22.9662 5.62465 -2.21852e-17)
(18.9603 7.72943 2.26308e-17)
(15.1744 9.39828 1.17177e-19)
(11.8624 10.559 -3.46556e-18)
(9.12568 11.2167 -5.99082e-18)
(6.97282 11.4367 9.07718e-18)
(5.35109 11.3117 2.90119e-19)
(4.1771 10.931 -2.97419e-19)
(3.35498 10.3689 -2.99508e-19)
(2.7876 9.69236 0)
(2.38758 8.97112 5.10803e-20)
(2.09 8.25596 2.17854e-17)
(1.85677 7.59346 -4.26529e-17)
(1.66367 6.99959 2.13363e-17)
(1.50118 6.47433 -1.8714e-17)
(1.35976 6.00809 1.89359e-17)
(1.23673 5.5972 1.6142e-17)
(1.13002 5.24448 -2.98203e-17)
(1.03691 4.95531 1.64142e-18)
(0.954623 4.73199 1.28331e-17)
(0.879629 4.57237 0)
(0.810619 4.47158 0)
(0.747619 4.42281 1.88531e-19)
(0.691242 4.41731 0)
(0.641633 4.44463 -6.15541e-21)
(0.598596 4.49382 -4.69576e-18)
(0.560629 4.55302 8.70074e-18)
(0.524243 4.61043 -4.21267e-18)
(0.485942 4.65809 0)
(0.443705 4.69391 0)
(0.390036 4.71321 -2.22693e-18)
(0.310241 4.70818 2.09822e-18)
(0.188929 4.67713 9.0239e-20)
(0.0120816 4.62284 0)
(-0.231455 4.54865 0)
(-0.546048 4.45852 -1.50772e-18)
(-0.92097 4.35121 1.50066e-18)
(-1.32545 4.2139 1.05113e-19)
(-1.7092 4.02297 0)
(-2.01018 3.75367 1.53065e-18)
(-2.16943 3.39474 -1.37656e-18)
(-2.14632 2.95666 2.38683e-18)
(-1.92556 2.46632 -2.6041e-18)
(-1.51472 1.95395 2.13019e-18)
(-0.93833 1.44253 -4.41657e-18)
(-0.229564 0.946827 4.10016e-18)
(0.582256 0.481931 -1.23065e-19)
(1.46915 0.060739 -1.80372e-18)
(2.4032 -0.311753 -1.56123e-18)
(3.36083 -0.630947 1.63449e-18)
(4.32077 -0.892283 0)
(5.26243 -1.09226 -1.11121e-18)
(6.16565 -1.22858 2.84138e-20)
(7.01115 -1.30037 1.50609e-18)
(7.78112 -1.30827 0)
(8.45993 -1.25458 -2.85551e-19)
(9.03476 -1.14331 -9.77598e-19)
(9.49599 -0.980236 9.63823e-19)
(9.83759 -0.772961 0)
(10.0572 -0.530924 0)
(10.1565 -0.26542 1.36365e-19)
(10.1408 0.010375 -1.33014e-19)
(10.0202 0.282007 -7.6486e-19)
(9.80708 0.533854 1.2135e-18)
(9.52261 0.750283 0)
(9.17257 0.930568 -2.26758e-19)
(8.82631 0.970523 -8.4248e-19)
(10.4935 -9.55965 -2.29254e-17)
(10.1409 -6.16563 3.72445e-17)
(-7.72304 -0.203789 -1.95536e-17)
(-6.00059 -2.77159 -2.03141e-17)
(5.53623 -15.4072 2.16628e-17)
(14.7563 -24.2777 0)
(17.6888 -27.069 -4.34358e-17)
(15.5846 -24.7005 4.34138e-17)
(10.6498 -18.6955 -4.35953e-17)
(4.78821 -10.4916 4.44972e-17)
(-0.567198 -1.36841 -4.14553e-17)
(-4.63454 7.62166 8.39174e-17)
(-7.4222 15.8318 -8.02251e-17)
(-9.36884 22.8136 7.6435e-17)
(-10.9531 28.1796 -7.15076e-17)
(-12.3306 31.4552 3.46111e-17)
(-13.4151 32.4394 2.79783e-17)
(-14.066 31.3883 -5.28945e-17)
(-14.269 28.9025 2.53458e-17)
(-14.1593 25.6933 -2.87856e-19)
(-13.8807 22.3087 2.65506e-19)
(-13.4695 19.0066 1.71049e-17)
(-12.8769 15.8324 -1.70762e-17)
(-12.0368 12.8384 -2.87678e-19)
(-11.0303 10.038 0)
(-9.9598 7.55299 -2.62593e-19)
(-8.93315 5.4412 0)
(-7.99419 3.70446 -9.21169e-18)
(-7.14703 2.3002 1.06228e-18)
(-6.37713 1.17994 7.97831e-18)
(-5.68082 0.296673 6.61798e-18)
(-5.06811 -0.386942 -6.37744e-18)
(-4.55493 -0.90645 -2.6906e-19)
(-4.1456 -1.28099 9.05715e-21)
(-3.84247 -1.53389 4.13172e-18)
(-3.63727 -1.67911 -4.17393e-18)
(-3.52128 -1.73278 0)
(-3.48434 -1.7097 -2.936e-18)
(-3.51561 -1.62397 2.80945e-18)
(-3.60266 -1.48846 -2.06738e-19)
(-3.73459 -1.31642 2.0668e-20)
(-3.90308 -1.12079 0)
(-4.10017 -0.913759 0)
(-4.31632 -0.704237 0)
(-4.53813 -0.494086 1.68332e-20)
(-4.74978 -0.28333 -1.07367e-18)
(-4.93628 -0.0765354 9.8072e-19)
(-5.08058 0.121399 0)
(-5.16231 0.30573 0)
(-5.15704 0.470481 -8.48722e-19)
(-5.0393 0.608719 8.13849e-19)
(-4.78605 0.711712 -8.74791e-19)
(-4.3809 0.769977 6.53564e-19)
(-3.81802 0.776408 -7.5936e-20)
(-3.1036 0.729124 8.09247e-19)
(-2.254 0.631993 -1.01179e-18)
(-1.29143 0.493087 1.69261e-18)
(-0.239919 0.322872 -1.58841e-18)
(0.874968 0.133826 0)
(2.02867 -0.0611791 7.90772e-20)
(3.19958 -0.251067 1.40229e-18)
(4.36633 -0.425574 -1.19379e-19)
(5.50735 -0.575537 -2.65647e-18)
(6.60123 -0.693131 2.39886e-18)
(7.62711 -0.772029 -1.0574e-18)
(8.56537 -0.80757 -1.13999e-18)
(9.39849 -0.79679 8.38811e-19)
(10.1119 -0.738332 1.28675e-19)
(10.6945 -0.632286 1.06262e-18)
(11.1391 -0.480013 -1.02512e-18)
(11.4423 -0.284037 2.46999e-19)
(11.6041 -0.0480736 1.07444e-18)
(11.6278 0.22268 -9.37321e-19)
(11.5193 0.521094 0)
(11.2875 0.837111 8.68409e-19)
(10.9457 1.15786 -2.33515e-19)
(10.5077 1.46424 -1.80605e-18)
(10.0076 1.73976 7.8784e-19)
(9.42499 1.94981 -7.6967e-19)
(8.96453 2.08561 7.40951e-19)
(-22.5614 11.5714 -8.57506e-17)
(-48.9479 20.8556 0)
(-58.4971 21.7537 0)
(-56.5889 9.81658 -7.01439e-19)
(-45.6546 -4.80276 0)
(-29.4255 -23.2105 0)
(-10.2051 -42.9287 0)
(9.82539 -61.9129 6.41313e-19)
(28.6839 -79.0127 0)
(44.7784 -93.2209 2.39931e-19)
(56.4763 -103.521 -1.10385e-16)
(61.9732 -108.578 1.97775e-16)
(59.2952 -106.901 -8.77438e-17)
(47.2997 -97.6032 0)
(27.063 -81.5453 2.68461e-19)
(2.7192 -62.0584 -2.47466e-19)
(-19.954 -43.6733 0)
(-36.2851 -29.7281 6.25065e-18)
(-44.7948 -21.0882 -1.81298e-17)
(-47.1351 -16.6594 -3.25413e-18)
(-46.0575 -14.6605 1.48354e-17)
(-43.4934 -13.7002 -1.04808e-20)
(-40.2643 -13.1745 0)
(-36.6436 -12.8971 -1.45478e-17)
(-32.8461 -12.8427 1.54314e-17)
(-29.0318 -12.8653 -1.24182e-17)
(-25.369 -12.8538 1.28477e-17)
(-21.9888 -12.75 9.88331e-18)
(-18.9751 -12.5409 -9.99936e-18)
(-16.3792 -12.2277 0)
(-14.1964 -11.8217 -6.57034e-18)
(-12.3959 -11.3222 6.63685e-18)
(-10.9513 -10.7483 -6.35756e-21)
(-9.81184 -10.1246 -4.05335e-18)
(-8.92188 -9.48384 4.07562e-18)
(-8.22584 -8.84443 1.4573e-19)
(-7.68124 -8.21442 -1.17887e-19)
(-7.25572 -7.59395 -2.01423e-18)
(-6.92309 -6.98306 2.0234e-18)
(-6.65951 -6.38669 1.34566e-18)
(-6.4417 -5.81544 -2.50697e-19)
(-6.24833 -5.28202 -1.34882e-18)
(-6.06285 -4.79414 0)
(-5.87521 -4.34942 1.09123e-19)
(-5.68104 -3.93832 -4.56935e-19)
(-5.47774 -3.54934 1.01224e-18)
(-5.25928 -3.16973 -6.70454e-19)
(-5.0134 -2.79462 2.181e-19)
(-4.72456 -2.42836 0)
(-4.3749 -2.07696 3.07637e-20)
(-3.94336 -1.74663 1.94652e-19)
(-3.41297 -1.44719 -1.42718e-19)
(-2.7728 -1.18939 8.15397e-20)
(-2.01904 -0.981882 4.2716e-19)
(-1.1558 -0.82914 -2.57013e-19)
(-0.194805 -0.731284 4.41806e-19)
(0.847232 -0.685117 5.39457e-19)
(1.95096 -0.684711 -1.01283e-18)
(3.09408 -0.721286 1.02178e-18)
(4.25356 -0.784529 -1.0851e-18)
(5.40573 -0.863554 0)
(6.52634 -0.947817 7.52197e-20)
(7.59094 -1.02767 1.0807e-18)
(8.57588 -1.09475 -9.1426e-19)
(9.45953 -1.14226 -2.59579e-19)
(10.2236 -1.16507 0)
(10.8545 -1.15956 -9.90401e-19)
(11.3436 -1.12328 8.52621e-19)
(11.6878 -1.05442 1.24749e-19)
(11.8886 -0.951412 1.07682e-19)
(11.951 -0.812602 -2.18386e-19)
(11.8822 -0.636307 -1.47479e-20)
(11.6906 -0.421202 8.45564e-19)
(11.3852 -0.167089 -7.34189e-19)
(10.9755 0.123727 7.97918e-20)
(10.4735 0.445681 0)
(9.89277 0.785161 8.04718e-19)
(9.26406 1.13208 -6.06159e-19)
(8.5759 1.42735 0)
(8.04948 1.76567 6.17345e-19)
(-16.9442 13.3728 -8.87439e-19)
(-25.2409 23.6273 -9.59064e-17)
(-15.6217 16.4187 9.02678e-17)
(1.52681 7.02133 -1.77196e-16)
(19.7768 -5.54736 8.753e-17)
(39.356 -18.0886 1.00283e-18)
(54.3743 -27.7974 6.34587e-17)
(60.2312 -32.3759 -6.55731e-17)
(56.4748 -31.969 -7.65304e-19)
(46.4471 -28.9295 -9.23746e-19)
(34.4407 -26.0691 -3.32081e-17)
(23.1447 -25.0258 -2.04473e-17)
(13.1271 -25.884 5.53778e-17)
(3.94839 -27.6871 -3.77507e-17)
(-4.66195 -29.276 7.03139e-17)
(-12.3707 -30.0874 -3.34802e-17)
(-18.5318 -30.3859 0)
(-22.4021 -30.7 0)
(-23.2919 -31.1733 3.30258e-17)
(-21.4498 -31.8054 4.22483e-19)
(-18.3357 -32.8423 -3.33798e-17)
(-15.1841 -34.1473 3.10475e-17)
(-12.1602 -35.0575 -6.08458e-17)
(-9.11871 -35.1661 2.94089e-17)
(-6.20347 -34.5056 2.47512e-17)
(-3.69328 -33.1822 -2.77699e-18)
(-1.78709 -31.3192 -2.31926e-17)
(-0.534397 -29.0795 8.09847e-20)
(0.139602 -26.6383 -6.8925e-20)
(0.345772 -24.1407 1.27119e-19)
(0.201733 -21.7195 0)
(-0.201792 -19.4917 8.96439e-18)
(-0.789767 -17.5203 -1.67014e-17)
(-1.47574 -15.8473 7.72705e-18)
(-2.16126 -14.4875 0)
(-2.76825 -13.424 -5.30686e-18)
(-3.25772 -12.5972 5.32357e-18)
(-3.62513 -11.914 0)
(-3.88745 -11.2765 0)
(-4.06906 -10.6076 -3.7395e-18)
(-4.18935 -9.86445 3.83678e-18)
(-4.25531 -9.04006 -1.74973e-19)
(-4.26155 -8.15543 0)
(-4.19751 -7.24768 2.46748e-18)
(-4.056 -6.35569 -4.19171e-19)
(-3.83741 -5.5109 -2.32513e-18)
(-3.54806 -4.73189 -1.504e-19)
(-3.19524 -4.02816 1.77053e-19)
(-2.78239 -3.39982 0)
(-2.30968 -2.84569 -9.18149e-19)
(-1.77479 -2.36953 1.61317e-18)
(-1.17103 -1.97362 -7.33461e-19)
(-0.492317 -1.65874 -1.02337e-20)
(0.265225 -1.42437 -2.15565e-19)
(1.09955 -1.26782 1.03356e-19)
(2.00257 -1.18338 9.14427e-20)
(2.96206 -1.16253 -1.66036e-20)
(3.96167 -1.19514 0)
(4.98143 -1.26992 0)
(5.99847 -1.37491 -2.37022e-20)
(6.98771 -1.49819 -3.18631e-20)
(7.92283 -1.62863 0)
(8.77778 -1.75658 -7.77164e-19)
(9.5288 -1.87442 7.60001e-19)
(10.1567 -1.97677 1.01734e-18)
(10.6489 -2.06033 1.32037e-19)
(10.9999 -2.12326 -7.65487e-19)
(11.2114 -2.16435 8.76988e-19)
(11.2907 -2.1821 -8.56597e-19)
(11.2484 -2.17396 -4.03435e-21)
(11.0963 -2.13599 -6.62084e-19)
(10.8454 -2.06288 6.48171e-19)
(10.5047 -1.94852 5.79344e-19)
(10.0814 -1.78701 -7.36831e-19)
(9.58226 -1.57405 5.09453e-19)
(9.01568 -1.30886 -5.72317e-19)
(8.39545 -0.995974 5.48328e-19)
(7.74259 -0.647479 -1.07935e-18)
(7.08845 -0.289451 -2.93734e-20)
(6.53727 0.124677 -3.15949e-20)
(-28.8666 17.8051 3.64056e-17)
(-93.7854 60.2368 5.76184e-19)
(-143.559 90.9887 -5.31068e-17)
(-151.74 100.298 1.05883e-16)
(-130.323 90.5835 -5.33041e-17)
(-99.2424 75.1297 4.91488e-17)
(-70.2851 60.2904 -1.90474e-18)
(-47.4998 48.7529 -4.97552e-17)
(-31.0678 41.1832 4.48127e-17)
(-19.777 37.3525 -4.44713e-17)
(-12.2169 36.6277 3.85661e-17)
(-7.25907 38.2426 -3.93854e-17)
(-4.10862 41.4554 3.2507e-17)
(-2.19033 45.6123 -3.27089e-17)
(-1.0167 50.1848 3.52728e-19)
(-0.124741 54.7184 3.14455e-19)
(0.869513 58.7798 4.09596e-17)
(2.17786 62.0504 -4.16651e-17)
(3.85344 64.4351 -4.9727e-19)
(5.91215 65.8536 -1.93728e-21)
(8.4639 65.8644 1.61985e-17)
(11.6525 63.9526 -1.64825e-17)
(15.2738 60.1429 0)
(18.6916 55.0279 -3.87887e-21)
(21.1673 49.2445 0)
(22.1874 43.2107 0)
(21.6326 37.1863 -6.37576e-20)
(19.7609 31.3339 7.91805e-18)
(17.05 25.7199 -7.94009e-18)
(14.001 20.3816 -4.89976e-18)
(10.9607 15.3835 4.83058e-18)
(8.02804 10.8274 1.29074e-19)
(5.14244 6.84658 -1.37582e-19)
(2.30227 3.48193 0)
(-0.270578 0.633168 -4.58625e-19)
(-2.23254 -1.87434 0)
(-3.36854 -4.15749 0)
(-3.71068 -6.20736 -4.15668e-19)
(-3.4619 -7.92946 0)
(-2.86369 -9.21729 0)
(-2.12028 -9.99905 6.95849e-18)
(-1.37676 -10.2571 -6.65904e-18)
(-0.719431 -10.0289 0)
(-0.186101 -9.396 0)
(0.220066 -8.46795 0)
(0.518943 -7.36628 -2.49054e-19)
(0.743934 -6.20878 1.5015e-19)
(0.932031 -5.09506 2.1229e-18)
(1.11733 -4.09625 -2.23652e-18)
(1.33073 -3.25327 1.47102e-18)
(1.59559 -2.5802 -1.60411e-18)
(1.9289 -2.07197 1.11948e-19)
(2.34095 -1.71317 4.75232e-20)
(2.83722 -1.48468 0)
(3.41697 -1.36766 0)
(4.07344 -1.34413 -2.32341e-19)
(4.7948 -1.39677 1.09922e-19)
(5.5642 -1.50866 1.45411e-19)
(6.35981 -1.66334 5.90625e-20)
(7.15528 -1.84486 -4.77152e-20)
(7.92093 -2.03837 -4.03575e-19)
(8.62596 -2.23097 -1.31063e-19)
(9.24163 -2.41265 1.17106e-18)
(9.74484 -2.57694 -6.47785e-19)
(10.121 -2.721 -4.88813e-20)
(10.3654 -2.84492 -1.0682e-19)
(10.4822 -2.95043 -8.5898e-19)
(10.4826 -3.03946 1.70577e-18)
(10.3805 -3.11272 -8.45884e-19)
(10.1904 -3.16882 -1.04017e-19)
(9.92435 -3.20384 -8.17436e-19)
(9.59129 -3.21128 9.05181e-19)
(9.1971 -3.18265 0)
(8.746 -3.10842 8.52497e-20)
(8.24294 -2.97962 0)
(7.6967 -2.7898 -6.63764e-19)
(7.12278 -2.53756 -4.03451e-21)
(6.54654 -2.22819 6.28145e-19)
(6.00959 -1.86901 -4.67748e-19)
(5.57032 -1.49701 -2.05754e-19)
(0.502254 -2.0985 5.4191e-17)
(4.72976 -4.20773 -8.12886e-17)
(15.5718 -4.99905 -8.96565e-20)
(30.1328 -7.40114 -7.66391e-17)
(43.5137 -8.70437 7.82232e-17)
(52.4475 -10.3492 -6.86813e-17)
(57.2164 -12.861 1.34145e-16)
(59.0897 -16.1447 -6.52339e-17)
(58.7845 -20.2223 5.55334e-17)
(56.7225 -24.7119 -5.64604e-17)
(53.0914 -29.1654 0)
(47.9664 -33.0534 -1.72605e-19)
(41.3984 -35.9204 2.2328e-19)
(33.5876 -37.5355 0)
(25.0498 -37.9583 0)
(16.4739 -37.4909 0)
(8.42443 -36.4953 0)
(1.17217 -35.2083 -1.2392e-19)
(-5.24677 -33.6966 0)
(-10.9249 -31.9603 1.13581e-17)
(-16.0042 -29.9435 -1.15324e-17)
(-20.6541 -27.566 -9.47666e-18)
(-25.0009 -24.8312 9.62426e-18)
(-29.0115 -21.872 -3.04117e-18)
(-32.498 -18.8682 3.05953e-18)
(-35.1744 -15.9867 -1.35457e-17)
(-36.7488 -13.3616 1.37994e-17)
(-37.0369 -11.0737 -2.11819e-17)
(-36.0437 -9.15721 -2.30516e-18)
(-33.9508 -7.5937 2.40659e-17)
(-31.0463 -6.33364 0)
(-27.6434 -5.32122 3.07532e-19)
(-24.0099 -4.50096 3.26592e-19)
(-20.3282 -3.83605 0)
(-16.6549 -3.28149 4.48855e-19)
(-13.0008 -2.81591 0)
(-9.40618 -2.48859 0)
(-5.90188 -2.34772 1.8332e-17)
(-2.53068 -2.41918 -3.34754e-17)
(0.60903 -2.70517 1.57964e-17)
(3.40305 -3.12339 1.11905e-17)
(5.74792 -3.52817 -1.14428e-17)
(7.55364 -3.78065 -1.51968e-19)
(8.75791 -3.78683 0)
(9.34624 -3.50772 5.04722e-18)
(9.36465 -2.96376 -4.59834e-18)
(8.92159 -2.22951 0)
(8.1716 -1.41553 0)
(7.28584 -0.637645 -1.65555e-18)
(6.42041 0.0106982 1.7788e-18)
(5.69408 0.473011 1.15475e-18)
(5.17864 0.734117 -1.0871e-18)
(4.90326 0.808768 -6.59321e-19)
(4.86282 0.729414 1.06551e-18)
(5.03313 0.53189 -4.54405e-19)
(5.38139 0.249834 -5.00601e-20)
(5.87037 -0.0874212 0)
(6.46069 -0.455162 -6.91889e-21)
(7.11104 -0.832463 5.11749e-20)
(7.77845 -1.20148 -1.98365e-19)
(8.41974 -1.54742 1.43362e-19)
(8.99484 -1.85925 0)
(9.471 -2.13049 3.83002e-20)
(9.8266 -2.3596 0)
(10.0529 -2.54951 4.89062e-20)
(10.1532 -2.70621 5.96365e-20)
(10.1395 -2.83689 1.24857e-19)
(10.0283 -2.94811 9.65019e-19)
(9.83709 -3.04445 -8.12137e-19)
(9.58142 -3.12769 1.31149e-19)
(9.27406 -3.19643 9.67919e-19)
(8.92476 -3.24607 -1.18045e-18)
(8.54093 -3.26897 9.27371e-19)
(8.12902 -3.25525 -9.01993e-19)
(7.69647 -3.19425 9.9288e-19)
(7.25397 -3.0765 -7.33118e-19)
(6.81754 -2.89575 -8.23527e-19)
(6.41035 -2.6514 7.9825e-19)
(6.06355 -2.35925 -1.76332e-19)
(5.83439 -2.0554 1.77948e-19)
(24.9043 -11.2263 4.56731e-17)
(71.3048 -23.2207 6.05741e-17)
(86.9073 -34.7504 -1.16769e-16)
(78.5353 -26.6894 1.05331e-16)
(53.9703 -18.3396 -5.02197e-17)
(28.2095 -9.18377 1.27102e-19)
(5.81581 -2.02866 3.2315e-17)
(-12.1351 2.98886 -6.07334e-17)
(-25.5045 5.89236 4.66554e-18)
(-34.3736 6.67526 2.39462e-17)
(-39.1772 5.55976 -1.90092e-19)
(-40.6454 3.00463 -1.35778e-17)
(-39.6787 -0.404366 1.38886e-17)
(-37.2065 -4.08497 -9.84322e-18)
(-34.0493 -7.55432 1.00349e-17)
(-30.8182 -10.4648 6.6073e-18)
(-27.8559 -12.6142 -6.72404e-18)
(-25.2783 -13.9563 1.29605e-19)
(-23.0575 -14.5105 0)
(-21.0984 -14.3162 -5.93999e-20)
(-19.3159 -13.4539 4.92774e-21)
(-17.6603 -12.0472 2.46283e-20)
(-16.0998 -10.198 -3.93985e-18)
(-14.6076 -8.02018 4.03091e-18)
(-13.1585 -5.63297 -2.9853e-20)
(-11.7352 -3.1461 0)
(-10.3366 -0.659985 8.06974e-20)
(-8.97224 1.74171 9.62033e-21)
(-7.65544 3.99333 1.01799e-17)
(-6.40109 6.04423 -1.03598e-17)
(-5.22668 7.85759 -7.97008e-18)
(-4.13852 9.41593 7.69388e-18)
(-3.10962 10.7202 -3.7356e-19)
(-2.09668 11.759 3.68592e-18)
(-1.01387 12.5272 -6.01699e-18)
(0.178142 13.02 2.33285e-18)
(1.45984 13.2211 2.21106e-19)
(2.80403 13.1015 -1.74318e-19)
(4.18553 12.6623 -2.20985e-19)
(5.58918 11.9697 -4.8468e-20)
(6.97426 11.0867 2.13339e-19)
(8.25744 10.0548 -1.25519e-18)
(9.32852 8.92535 2.74278e-19)
(10.0643 7.77727 1.13686e-18)
(10.3527 6.70232 -1.01439e-18)
(10.1402 5.76984 8.17497e-19)
(9.46779 5.02839 0)
(8.46853 4.48194 4.18243e-19)
(7.33508 4.08866 -5.30998e-19)
(6.26099 3.788 2.47592e-19)
(5.3943 3.51542 -1.13135e-19)
(4.81578 3.23018 -6.95796e-20)
(4.55259 2.91231 -6.89391e-20)
(4.58613 2.55713 -6.45941e-20)
(4.8667 2.15831 -2.79133e-20)
(5.33901 1.72235 4.2099e-20)
(5.9499 1.26408 0)
(6.64719 0.798538 2.0774e-19)
(7.37978 0.340683 -1.82335e-19)
(8.09768 -0.0951461 0)
(8.75405 -0.496382 4.1516e-19)
(9.30914 -0.853652 -2.85106e-19)
(9.73487 -1.16197 0)
(10.018 -1.42115 6.95e-20)
(10.1602 -1.63514 0)
(10.1752 -1.81052 1.01616e-18)
(10.0842 -1.95472 -2.2131e-18)
(9.91063 -2.07443 1.08625e-18)
(9.67686 -2.17471 -1.3061e-19)
(9.40208 -2.25856 -1.3113e-19)
(9.10182 -2.32679 1.12995e-18)
(8.78801 -2.37802 -9.72427e-19)
(8.46958 -2.40865 1.43583e-19)
(8.15325 -2.41314 1.39629e-19)
(7.84459 -2.38466 -2.54327e-19)
(7.54955 -2.31602 -1.15301e-19)
(7.27583 -2.20134 -1.08816e-18)
(7.03361 -2.04002 5.10297e-21)
(6.83543 -1.84615 1.01472e-18)
(6.70778 -1.63481 2.27346e-19)
(-7.93993 1.94165 0)
(-35.2226 9.24106 -1.88872e-19)
(-71.528 18.751 1.32843e-19)
(-101.362 24.0222 9.3397e-18)
(-116.227 24.8097 -1.58547e-17)
(-117.949 21.5246 9.56422e-18)
(-110.457 15.9127 -3.11034e-18)
(-98.6513 9.86519 0)
(-86.1699 4.73305 2.23236e-19)
(-74.6337 1.08644 -5.46532e-18)
(-64.3646 -1.10256 5.75566e-18)
(-55.1318 -2.14556 7.2999e-18)
(-46.5922 -2.39846 -1.53583e-17)
(-38.3906 -2.17493 -3.27836e-19)
(-30.2641 -1.706 -7.37233e-20)
(-22.0336 -1.14551 8.72108e-18)
(-13.5921 -0.611915 7.31553e-20)
(-4.95513 -0.199221 -7.44678e-18)
(3.6023 0.126189 7.48139e-18)
(11.7265 0.499441 5.29445e-20)
(19.027 1.07366 1.03229e-19)
(25.188 1.98441 1.82019e-19)
(30.03 3.31628 -2.27547e-18)
(33.5191 5.05088 9.33263e-19)
(35.7591 7.05928 1.42466e-18)
(36.9691 9.15997 1.81347e-19)
(37.4427 11.1759 -7.89027e-19)
(37.4917 12.9725 1.00623e-18)
(37.36 14.4886 -1.13568e-18)
(37.1582 15.761 5.24379e-19)
(36.8611 16.8997 0)
(36.3561 18.0091 -2.74679e-18)
(35.5629 19.1382 6.10728e-18)
(34.4231 20.2777 -3.29741e-18)
(32.966 21.3822 3.49137e-18)
(31.2561 22.3571 -4.01555e-18)
(29.3553 23.087 -4.70009e-20)
(27.3385 23.5013 0)
(25.2601 23.5816 1.31363e-19)
(23.1351 23.3138 -1.36569e-18)
(20.9636 22.7078 1.57912e-18)
(18.7312 21.7963 -9.96853e-20)
(16.4221 20.6188 7.16273e-20)
(14.0515 19.2379 0)
(11.6765 17.7243 0)
(9.40233 16.1349 -1.6111e-18)
(7.36269 14.5251 1.6279e-18)
(5.67179 12.938 4.04801e-20)
(4.40087 11.4092 1.74898e-18)
(3.56904 9.97596 -3.45715e-18)
(3.15014 8.66435 1.56188e-18)
(3.08648 7.48891 0)
(3.30977 6.43564 -1.26704e-18)
(3.75589 5.49048 1.1847e-18)
(4.37043 4.646 0)
(5.10263 3.89014 -8.68572e-19)
(5.90643 3.20907 8.29458e-19)
(6.73757 2.59079 -7.09254e-19)
(7.5514 2.02701 5.96985e-19)
(8.30377 1.5136 0)
(8.95424 1.04939 -1.56883e-19)
(9.4714 0.63443 -6.34555e-20)
(9.83795 0.268381 6.53454e-19)
(10.0531 -0.0504301 -4.99122e-20)
(10.1311 -0.325072 -6.48153e-19)
(10.0962 -0.559391 0)
(9.97626 -0.75725 -7.54642e-20)
(9.7977 -0.922028 0)
(9.58233 -1.0565 0)
(9.34666 -1.16293 1.3015e-18)
(9.10253 -1.24331 -1.26918e-18)
(8.85818 -1.29933 -1.08071e-18)
(8.61926 -1.33229 -1.41491e-19)
(8.38959 -1.34284 1.03586e-18)
(8.17175 -1.3308 1.26606e-18)
(7.96777 -1.29532 -1.09794e-18)
(7.77995 -1.23548 1.26019e-19)
(7.61109 -1.15244 1.00545e-18)
(7.46348 -1.05449 -2.17875e-18)
(7.34307 -0.944831 7.17871e-19)
(-9.25218 3.09611 -2.7501e-17)
(-16.4582 4.95112 2.05695e-17)
(-15.8112 6.28372 2.01006e-17)
(-13.6442 6.26824 -2.05256e-17)
(-12.8737 8.05734 -1.08943e-19)
(-12.0625 9.61931 -9.3577e-20)
(-9.99054 10.3709 0)
(-6.02579 10.1957 -1.70379e-17)
(-0.219314 9.1087 1.73082e-17)
(6.93296 7.42287 0)
(14.623 5.50336 1.22669e-17)
(22.0422 3.65183 -2.25704e-17)
(28.6209 2.04712 2.52616e-18)
(34.1396 0.746853 1.31595e-17)
(38.5766 -0.240279 -5.37637e-18)
(41.9436 -0.909047 5.44011e-20)
(44.2376 -1.27379 -7.03431e-20)
(45.5142 -1.34882 0)
(45.7896 -1.16602 5.96819e-18)
(45.1521 -0.848983 -5.99087e-18)
(43.8213 -0.552349 -3.36912e-20)
(42.0685 -0.318164 9.46421e-18)
(39.8033 0.0856466 -9.77345e-18)
(36.4111 0.974436 1.05355e-17)
(31.5486 2.35055 -1.07381e-17)
(25.7126 4.06265 -1.82811e-19)
(19.6966 5.86447 1.04394e-17)
(14.1071 7.36939 -7.6061e-19)
(9.37431 8.26898 -1.85419e-17)
(5.72307 8.46928 7.49293e-19)
(3.09622 8.07628 8.19311e-18)
(1.21314 7.32523 7.23585e-18)
(-0.258187 6.42375 -7.47434e-18)
(-1.60962 5.52819 0)
(-2.95962 4.71373 2.61086e-19)
(-4.28093 4.01254 2.5128e-19)
(-5.48722 3.43999 0)
(-6.50008 2.98646 9.98945e-18)
(-7.27712 2.63217 -1.02316e-17)
(-7.81455 2.36338 -1.62095e-19)
(-8.13304 2.17318 0)
(-8.26233 2.0576 1.02183e-19)
(-8.22682 2.01337 4.29578e-18)
(-8.03462 2.03704 -4.28654e-18)
(-7.67952 2.12377 0)
(-7.1496 2.26409 -1.33431e-18)
(-6.43774 2.44365 1.33125e-18)
(-5.55104 2.64452 0)
(-4.51119 2.84695 0)
(-3.35047 3.03186 7.0855e-20)
(-2.10751 3.18384 7.46005e-20)
(-0.820265 3.2895 0)
(0.479713 3.33895 -1.00357e-18)
(1.76577 3.33009 1.06612e-18)
(3.0182 3.26613 1.08649e-18)
(4.2193 3.1493 -9.34029e-20)
(5.35024 2.98076 -2.06897e-18)
(6.39055 2.76557 1.99446e-18)
(7.31717 2.5115 8.08643e-20)
(8.1065 2.22774 -8.04123e-19)
(8.73925 1.92445 9.62269e-20)
(9.20611 1.61187 0)
(9.51174 1.29954 0)
(9.6748 0.995898 -8.38761e-19)
(9.72338 0.708151 9.34114e-19)
(9.68808 0.442342 0)
(9.59595 0.203264 -1.05117e-19)
(9.46739 -0.0057461 0)
(9.31622 -0.18295 -7.46762e-19)
(9.15129 -0.328131 7.28881e-19)
(8.97841 -0.442308 -1.83711e-19)
(8.80171 -0.527401 -1.51892e-18)
(8.62448 -0.585932 1.32002e-18)
(8.44956 -0.620753 -1.63471e-19)
(8.27951 -0.634797 0)
(8.11659 -0.630825 0)
(7.96273 -0.611364 0)
(7.81937 -0.579482 1.2018e-18)
(7.68681 -0.540605 1.11452e-19)
(7.56717 -0.493356 -1.98024e-18)
(9.14791 -0.306326 4.50098e-17)
(15.0551 2.78255 6.31879e-17)
(4.36607 10.0844 -6.46828e-17)
(-9.7106 19.693 5.71643e-17)
(-20.7304 25.8403 -5.85501e-17)
(-26.2987 29.1 -7.66353e-20)
(-25.8486 29.1626 -8.45481e-20)
(-20.7303 26.9814 0)
(-14.0367 24.0856 3.90453e-20)
(-8.68988 21.692 0)
(-5.65037 20.1742 -6.81938e-20)
(-4.20273 19.0624 -7.17574e-18)
(-3.31535 17.671 7.26846e-18)
(-2.39847 15.6426 1.75743e-18)
(-1.29822 12.9725 -1.70798e-18)
(-0.0570431 9.7681 -5.52371e-19)
(1.21549 6.1994 4.22939e-19)
(2.40267 2.44038 0)
(3.37145 -1.40736 0)
(4.00635 -5.27947 0)
(4.37054 -8.94194 -8.20182e-19)
(4.73284 -12.1963 2.09265e-18)
(5.23562 -15.2887 3.96392e-19)
(5.61489 -18.389 -4.28277e-18)
(5.43465 -20.9148 2.52102e-18)
(4.47683 -22.2732 0)
(2.97601 -22.6013 7.86691e-20)
(1.38195 -22.2097 0)
(0.0143399 -21.2628 -4.44285e-18)
(-0.991977 -19.945 4.41392e-18)
(-1.68133 -18.4635 1.37154e-19)
(-2.14634 -16.9511 0)
(-2.4752 -15.5119 3.25832e-18)
(-2.71308 -14.1772 -5.87647e-18)
(-2.88593 -12.9689 2.77061e-18)
(-3.00567 -11.8919 -2.03952e-18)
(-3.07864 -10.9399 3.77277e-18)
(-3.11573 -10.0939 -1.73008e-18)
(-3.11667 -9.32011 0)
(-3.07684 -8.58442 0)
(-2.99092 -7.86292 0)
(-2.84893 -7.13788 3.80536e-19)
(-2.63829 -6.39764 -7.85138e-19)
(-2.34573 -5.63436 3.19918e-19)
(-1.96157 -4.84653 0)
(-1.48124 -4.03819 7.43817e-19)
(-0.906653 -3.22032 -7.59237e-19)
(-0.247755 -2.41413 -1.22972e-18)
(0.477288 -1.64031 -5.16246e-20)
(1.25184 -0.913366 -1.09631e-19)
(2.05787 -0.247544 -6.61896e-20)
(2.87938 0.345523 1.52806e-18)
(3.70356 0.856597 0)
(4.51808 1.27965 0)
(5.3107 1.61262 1.35905e-18)
(6.06803 1.85569 -1.46022e-18)
(6.77349 2.01161 0)
(7.40781 2.08537 0)
(7.95117 2.08389 -8.28285e-20)
(8.38705 2.01582 -1.3151e-19)
(8.70718 1.89128 0)
(8.91521 1.72151 0)
(9.02704 1.51853 1.38094e-19)
(9.06659 1.29462 1.32411e-19)
(9.05866 1.06181 -1.0664e-18)
(9.02253 0.831132 1.85602e-18)
(8.96937 0.611839 9.12656e-20)
(8.90365 0.410825 -1.72201e-18)
(8.82646 0.232486 1.76478e-18)
(8.73826 0.0790488 -1.59345e-18)
(8.64008 -0.0488375 2.93983e-19)
(8.53362 -0.151557 7.40222e-19)
(8.42085 -0.230188 -1.3988e-18)
(8.30379 -0.286362 1.02637e-20)
(8.18443 -0.322184 2.58511e-18)
(8.06463 -0.340122 -1.40383e-18)
(7.94617 -0.342845 0)
(7.83062 -0.33345 -2.81432e-19)
(7.71918 -0.316363 0)
(7.61538 -0.290079 1.0285e-18)
(6.97515 -3.1032 0)
(4.51452 -8.65604 -1.18388e-19)
(-14.7841 -4.13102 1.21667e-19)
(-44.2755 -2.27269 4.13977e-17)
(-70.3115 1.76639 -7.6419e-17)
(-87.5906 3.1934 3.52178e-17)
(-89.3484 1.18839 8.44814e-20)
(-75.2575 -4.39712 0)
(-53.0959 -12.0718 0)
(-32.752 -19.2684 0)
(-19.071 -24.0275 6.83703e-20)
(-11.3737 -26.1188 1.52419e-19)
(-7.29683 -26.4542 0)
(-5.11881 -25.9332 -6.75119e-20)
(-3.90235 -25.0028 -2.0682e-19)
(-3.13218 -23.9319 9.23446e-18)
(-2.53758 -22.8582 -9.28637e-18)
(-1.98169 -21.8951 9.9297e-20)
(-1.37779 -21.1193 0)
(-0.653424 -20.5639 -9.27987e-20)
(0.291942 -20.3085 -3.78828e-20)
(1.61225 -20.3357 3.14472e-18)
(3.39124 -20.5687 -7.08177e-19)
(5.53168 -20.93 -2.56299e-18)
(7.85007 -21.2877 -7.23914e-20)
(10.1237 -21.499 -6.55298e-20)
(12.1332 -21.4452 -8.72519e-19)
(13.6714 -21.0469 1.05653e-18)
(14.5533 -20.2924 -1.25025e-19)
(14.6809 -19.2159 6.20917e-20)