/*--------------------------------*- C++ -*----------------------------------*\
| =========                 |                                                 |
| \\      /  F ield         | OpenFOAM: The Open Source CFD Toolbox           |
|  \\    /   O peration     | Version:  2012                                  |
|   \\  /    A nd           | Website:  www.openfoam.com                      |
|    \\/     M anipulation  |                                                 |
\*---------------------------------------------------------------------------*/
FoamFile
{
    version     2.0;
    format      ascii;
    class       volScalarField;
    location    "0.25";
    object      p;
}
// * * * * * * * * * * * * * * * * * * * * * * * * * * * * * * * * * * * * * //

dimensions      [0 2 -2 0 0 0 0];


internalField   nonuniform List<scalar> 
42400
(
1580.16
1823.46
2136.02
2482.59
2914.64
3419.88
3939.53
4347.62
4548.79
4540.61
4379.74
4123.99
3807.82
3447.81
3053.79
2634.63
2201.08
1768.48
1357.98
992.392
689.121
453.852
281.079
159.31
76.0221
20.2341
-16.7696
-41.4154
-58.2798
-71.0828
-82.3767
-91.9914
-97.5478
-96.6831
-89.5271
-76.3844
-59.7309
-42.1729
-25.9935
-12.2297
-1.01873
7.86543
14.6803
19.6277
22.8912
24.6715
25.1898
24.6716
23.3328
21.3695
18.9512
16.2209
13.2979
10.2932
7.36184
4.47549
1.73188
-0.820802
-3.14618
-5.2162
-7.01324
-8.52947
-9.76616
-10.7329
-11.4464
-11.929
-12.2069
-12.3082
-12.2612
-12.0928
-11.8281
-11.4891
-11.0952
-10.6623
-10.2023
-9.72125
-9.2166
-8.66854
-8.03134
-7.2569
11480.9
10994.4
10257
9225.11
7880.73
6451.81
5061.16
3766.97
2604.37
1608.85
806.64
204.263
-210.877
-463.71
-583.953
-601.292
-543.35
-435.502
-300.729
-158.799
-25.8197
86.4067
170.806
224.409
246.891
239.633
208.136
166.033
130.414
108.589
93.0255
74.613
53.6361
35.1133
22.9972
16.981
15.422
16.3197
18.1552
20.1536
22.0855
23.9147
25.5663
26.8898
27.7171
27.9277
27.4751
26.3821
24.7233
22.6077
20.1594
17.4938
14.7088
11.8847
9.09428
6.46844
3.98844
1.69593
-0.373842
-2.19608
-3.75354
-5.03744
-6.04813
-6.7954
-7.29798
-7.582
-7.67861
-7.6208
-7.44016
-7.16464
-6.81766
-6.4181
-5.98075
-5.51696
-5.03508
-4.5403
-4.03265
-3.50235
-2.94203
-2.36984
-14425.6
-14035.2
-13521.9
-12803.9
-11880.9
-10760.7
-9484.14
-8065.63
-6491.17
-4766.15
-2971.81
-1263.24
195.854
1301.03
2039.85
2464.57
2646.97
2651.79
2530.71
2325.83
2070.86
1791.97
1508.18
1231.75
969.743
727.757
513.425
335.74
199.323
101.915
35.4345
-6.50799
-28.2283
-33.5453
-27.4975
-15.1819
-1.11112
11.6597
21.6962
28.7855
33.3444
35.9215
36.9964
36.9265
35.9659
34.3114
32.1353
29.5893
26.7545
23.7398
20.7097
17.7406
14.8694
12.1149
9.48811
7.02357
4.74378
2.67313
0.835845
-0.747002
-2.05919
-3.09178
-3.84537
-4.33179
-4.57429
-4.60605
-4.46669
-4.19721
-3.83475
-3.40931
-2.94314
-2.45021
-1.9401
-1.41983
-0.895884
-0.374918
0.137751
0.637595
1.09985
1.51443
13564.8
13227.3
12777.5
12126.8
11101
9852.97
8494.14
7147.36
5902.63
4793.86
3811.84
2923.72
2097.08
1318.52
596.789
-45.9368
-585.044
-1003.07
-1291.04
-1448
-1481.89
-1413.64
-1275.15
-1103.08
-928.101
-769.284
-633.58
-518.517
-419.801
-340.704
-282.452
-239.544
-205.947
-178.534
-155.133
-134.407
-115.358
-97.3069
-79.6016
-62.039
-45.0325
-29.4457
-16.1126
-5.57543
2.06607
7.10109
10.0376
11.4336
11.8304
11.6022
10.9313
9.97607
8.84535
7.61022
6.32784
5.04693
3.80684
2.64089
1.58011
0.654487
-0.109413
-0.691227
-1.07962
-1.27473
-1.28941
-1.14838
-0.884683
-0.53392
-0.12792
0.309978
0.766499
1.23654
1.71897
2.21246
2.71277
3.21217
3.70079
4.16548
4.57724
4.94444
-3048.69
-2687.45
-2373.95
-2243.06
-2152.52
-1975.65
-1706.61
-1401.14
-1092.12
-799.981
-548.285
-357.067
-236.496
-186.541
-197.388
-251.107
-324.33
-394.527
-447.195
-478.752
-494.063
-500.719
-502.989
-501.104
-494.299
-483.938
-470.432
-455.255
-439.232
-420.471
-396.165
-364.173
-324.686
-281.209
-238.571
-199.874
-166.579
-138.825
-115.803
-96.2666
-79.0559
-63.6867
-50.1651
-38.5898
-28.9214
-21.0086
-14.6272
-9.52974
-5.48089
-2.29025
0.181382
2.0451
3.39567
4.31657
4.88384
5.16798
5.23426
5.14315
4.95037
4.7062
4.45449
4.23152
4.06459
3.97072
3.95602
4.01611
4.13859
4.30739
4.50802
4.73187
4.97759
5.2493
5.55239
5.88922
6.25634
6.64435
7.03984
7.42677
7.78201
8.1097
-10446.1
-10138.9
-9763.12
-9374.9
-8974.13
-8581.11
-8171.17
-7729.4
-7250.74
-6737.93
-6191.8
-5607.46
-4977.95
-4299.4
-3574.21
-2810.02
-2020.8
-1235.93
-508.473
93.5722
517.603
751.36
823.116
778.752
660.453
502.167
330.541
166.442
24.7495
-86.5976
-166.62
-218.395
-246.893
-257.535
-255.207
-244.223
-227.977
-209.323
-189.795
-170.183
-150.993
-132.478
-114.714
-97.7964
-81.9229
-67.3039
-54.1105
-42.4425
-32.328
-23.7153
-16.4994
-10.5477
-5.71283
-1.84538
1.19832
3.55211
5.33736
6.6614
7.61729
8.28456
8.73062
9.01208
9.17607
9.26104
9.29695
9.30556
9.30132
9.2934
9.28891
9.29601
9.32541
9.38937
9.49841
9.65759
9.86432
10.1087
10.3761
10.65
10.91
11.1534
8886.64
8805.42
8719.04
8599.42
8408.27
8136.64
7757
7255.43
6645.95
5968.68
5271.31
4593.31
3959.42
3379.05
2849.14
2359.24
1897.25
1457.67
1044.6
668.709
342.202
73.1326
-136.472
-288.968
-389.281
-445.01
-464.722
-460.413
-446.155
-433.58
-426.755
-420.965
-407.539
-380.523
-339.387
-288.16
-233.091
-180.155
-133.452
-94.8721
-64.6828
-42.0756
-25.7146
-14.0127
-5.7293
0.0687386
4.11898
6.97149
9.0184
10.5294
11.6827
12.5904
13.3201
13.9107
14.3846
14.7548
15.0303
15.218
15.3245
15.3569
15.3227
15.2307
15.0903
14.9118
14.7061
14.4839
14.2556
14.0316
13.8225
13.6394
13.494
13.3969
13.3555
13.372
13.4417
13.5543
13.6958
13.851
14.0027
14.1475
6219.78
5975.22
5618.22
5140.04
4555.49
3974.56
3467.44
3063.84
2758.6
2527.2
2344.89
2196.09
2072.18
1966.61
1874.24
1791.44
1715.34
1641.93
1567.39
1489.99
1409.48
1326.7
1242.96
1160.02
1079.97
1004.81
935.149
870.402
808.71
747.279
683.784
617.333
548.428
478.486
409.45
343.487
282.671
228.643
182.378
144.118
113.486
89.8369
72.0878
58.8977
49.1857
42.1107
36.9898
33.2891
30.6067
28.6467
27.1946
26.0968
25.2432
24.5554
23.9773
23.4687
23.0012
22.5546
22.1157
21.6764
21.2327
20.7842
20.3332
19.8843
19.4434
19.017
18.612
18.2351
17.8934
17.5943
17.3443
17.1487
17.0093
16.9239
16.8863
16.887
16.9153
16.9602
17.0103
17.0659
-10260.2
-9741.84
-9057.88
-8300.95
-7442.83
-6594.53
-5805.72
-5100.09
-4473.64
-3914
-3413.6
-2970.18
-2583.97
-2250.28
-1954.96
-1680.22
-1419.45
-1184.54
-991.216
-840.421
-718.178
-607.449
-494.981
-373.219
-242.332
-110.343
11.5974
113.656
190.205
240.531
267.891
277.083
273.082
260.3
242.337
221.648
199.995
178.593
158.205
139.316
122.323
107.222
94.0135
82.633
72.9576
64.8272
58.0602
52.4681
47.867
44.0863
40.9738
38.3981
36.2483
34.4333
32.8794
31.5283
30.3341
29.2614
28.2835
27.3807
26.5394
25.7505
25.0092
24.3134
23.6638
23.0625
22.5125
22.0173
21.5794
21.2006
20.8807
20.6178
20.4078
20.245
20.1225
20.0329
19.9691
19.924
19.8909
19.8723
1995.78
1920.95
1794.2
1611.43
1402.06
1188.27
984.528
799.562
640.694
513.712
421.235
360.719
322.87
292.141
253.344
197.046
121.118
27.9607
-79.9201
-199.37
-322.959
-438.108
-529.776
-584.88
-596.562
-567.415
-508.063
-432.154
-351.433
-273.791
-203.522
-142.247
-90.2722
-47.2435
-12.6794
14.4569
35.1073
50.1812
60.588
67.1998
70.7375
71.8508
71.1594
69.2082
66.4473
63.2271
59.8105
56.3861
53.0821
49.9786
47.1185
44.5192
42.1776
40.0792
38.2024
36.5223
35.0137
33.653
32.4194
31.2956
30.2681
29.3272
28.4666
27.682
26.9708
26.3303
25.7577
25.2493
24.8006
24.407
24.0636
23.7662
23.5106
23.2932
23.1099
22.9566
22.8287
22.7217
22.6304
22.5567
4132.97
4353.01
4661.37
4933.81
5147.66
5211.97
5137.02
4955.75
4697.77
4385.39
4036.45
3667.83
3296.35
2937
2600.75
2293.91
2017.91
1771.21
1550.78
1352.74
1172.36
1004.32
843.743
687.696
536.348
393.971
267.332
162.382
82.2255
26.5478
-8.26719
-27.3195
-35.521
-36.6323
-33.0224
-26.3624
-17.8762
-8.57357
0.727737
9.4305
17.1566
23.6728
28.9233
32.9684
35.9317
37.9664
39.2331
39.886
40.0644
39.8883
39.4572
38.8505
38.1294
37.3395
36.5139
35.6757
34.841
34.021
33.2239
32.4558
31.7222
31.0275
30.3757
29.7694
29.2098
28.6967
28.2285
27.8027
27.4165
27.0674
26.7532
26.4719
26.2218
26.001
25.807
25.6371
25.4879
25.3559
25.2367
25.1337
493.819
260.061
-32.2213
-344.11
-687.424
-1026.11
-1340.55
-1600.67
-1775.6
-1848.21
-1823.16
-1723.15
-1575.95
-1404.12
-1223.03
-1043.3
-872.075
-713.944
-570.044
-439.895
-322.625
-217.784
-125.684
-47.2968
16.6098
65.8904
101.179
124.525
138.225
144.36
144.462
139.687
131.132
119.911
107.016
93.6284
80.818
69.3933
59.7605
52.0202
46.0694
41.6868
38.6047
36.5525
35.2811
34.575
34.2563
34.1832
34.2467
34.3663
34.4849
34.5652
34.5847
34.5326
34.4063
34.2091
33.9479
33.6329
33.2753
32.8877
32.4825
32.071
31.6633
31.2671
30.8879
30.5291
30.1927
29.8794
29.5894
29.3223
29.0778
28.8549
28.6521
28.4679
28.3002
28.1466
28.005
27.8728
27.7464
27.6334
-9077.77
-8809.73
-8450.14
-7995.37
-7408.29
-6758.7
-6105.88
-5495.11
-4943.11
-4448.27
-4008.69
-3628.58
-3313.95
-3065.28
-2872.9
-2718.42
-2581.09
-2441.21
-2287.22
-2114.33
-1922.93
-1717.75
-1506.87
-1299.91
-1106.86
-936.706
-795.435
-682.523
-591.388
-512.758
-439.388
-368.444
-300.758
-238.796
-184.722
-139.714
-103.485
-75.316
-53.7415
-37.2048
-24.3971
-14.2962
-6.14864
0.575774
6.23554
11.0646
15.2108
18.7667
21.7927
24.3339
26.431
28.1264
29.465
30.4935
31.258
31.8022
32.166
32.3851
32.4908
32.5105
32.4675
32.3809
32.2655
32.1321
31.988
31.8378
31.6851
31.5325
31.3823
31.2364
31.0963
30.9625
30.835
30.7129
30.5955
30.4814
30.3697
30.2588
30.1462
30.0434
3248.46
3124.42
2990.67
2877.17
2788.12
2735.28
2703.89
2679.08
2653.65
2623.81
2582.95
2520.27
2425.25
2293.4
2128.95
1943.64
1752.24
1564.09
1384.09
1212.8
1049.05
894.275
753.633
634.038
541.204
475.087
427.357
384.904
339.275
290.419
242.37
198.432
159.761
126.489
98.1252
74.2662
54.4988
38.8633
27.0793
18.7489
13.4013
10.5119
9.54563
9.99378
11.4022
13.3889
15.6521
17.97
20.1936
22.2348
24.0516
25.6343
26.9925
28.1452
29.1148
29.9238
30.5934
31.1431
31.5912
31.9539
32.2456
32.4782
32.6609
32.8003
32.9015
32.9688
33.0066
33.02
33.0141
32.9938
32.9631
32.9248
32.8803
32.8302
32.7744
32.7126
32.6442
32.568
32.4827
32.4018
14296.8
14100.4
13857
13497.8
13019.3
12441.9
11791.5
11076.4
10288.3
9416.62
8463.94
7454.69
6433.35
5456.4
4578.91
3840.99
3258.72
2825.08
2516.91
2303.52
2153.25
2033.31
1910.93
1762.11
1579.71
1373.12
1158.05
949.333
757.557
588.872
446.246
329.671
236.773
164.635
110.365
70.8877
43.2757
24.9198
13.5508
7.27334
4.57507
4.29295
5.55219
7.70416
10.2781
12.9485
15.5109
17.8583
19.9541
21.8056
23.4411
24.893
26.1891
27.3495
28.3875
29.3127
30.1332
30.8578
31.4964
32.059
32.5546
32.9906
33.3719
33.7016
33.9818
34.215
34.4045
34.5553
34.6728
34.7627
34.8299
34.8783
34.9103
34.9274
34.9304
34.9194
34.8943
34.8545
34.7993
34.7429
-17444.4
-16808.4
-16043.8
-15219.7
-14247.2
-13055.8
-11538
-9694.62
-7672.21
-5708.09
-4011.73
-2682.62
-1719.65
-1074.09
-686.996
-500.816
-459.982
-511.845
-610.675
-720.929
-817.692
-886.171
-921.203
-925.149
-903.922
-863.498
-808.617
-743.079
-670.315
-593.612
-516.221
-440.699
-368.845
-301.953
-241.445
-188.102
-142.24
-103.773
-72.2912
-47.1593
-27.6015
-12.7559
-1.72629
6.35757
12.2717
16.6465
19.9481
22.4926
24.4849
26.0591
27.3109
28.3157
29.1389
29.836
30.4514
31.0178
31.5569
32.0812
32.5959
33.1013
33.5938
34.0674
34.5153
34.9309
35.3088
35.6461
35.9422
36.1986
36.4184
36.605
36.7621
36.8924
36.9981
37.0804
37.1403
37.178
37.1937
37.1872
37.1585
37.1221
-960.976
-1249.97
-1682.07
-2246.43
-2952.4
-3700.99
-4435.16
-5118.34
-5740.59
-6306.2
-6804.97
-7192.15
-7401.89
-7387.07
-7148.29
-6730.42
-6197.89
-5607.55
-4998.48
-4396.97
-3821.05
-3284.13
-2795.34
-2357.89
-1971.8
-1635.26
-1344.17
-1095.29
-885.3
-710.178
-566.075
-449.276
-355.755
-281.414
-222.273
-174.649
-135.422
-102.291
-73.8872
-49.6559
-29.5031
-13.3821
-1.01829
8.13613
14.7754
19.5708
23.0636
25.6387
27.5542
28.9865
30.0645
30.8884
31.5385
32.0778
32.5531
32.9973
33.4313
33.867
34.3096
34.7594
35.2138
35.6677
36.1148
36.5487
36.9633
37.3536
37.716
38.0478
38.3479
38.6155
38.8507
39.0535
39.2242
39.3632
39.4709
39.5479
39.5948
39.6118
39.6002
39.5735
4521.29
4716.62
5035.92
5417.63
5818.52
6156.42
6412.9
6578.39
6637.95
6577.01
6386.7
6069.01
5642.25
5140.79
4609.18
4091.93
3621.37
3211.21
2858.96
2554.57
2287.9
2050.21
1834.79
1635.16
1446.91
1269.37
1103.81
951.65
813.441
687.921
574.068
472.114
382.383
305.386
241.146
189.096
148.189
117.046
94.1276
77.9503
66.8959
59.3436
53.9655
49.8738
46.5451
43.7207
41.2874
39.2006
37.4464
36.0301
34.9551
34.2069
33.7528
33.5494
33.5514
33.7174
34.012
34.4067
34.878
35.4059
35.9727
36.5623
37.1598
37.7519
38.327
38.8757
39.3904
39.8657
40.2979
40.6845
41.0244
41.3174
41.5639
41.7648
41.9216
42.0359
42.1096
42.1442
42.1424
42.1166
5840.02
5711.02
5550.55
5343.97
5069.29
4754.86
4425.68
4105.68
3810.92
3548
3316.27
3109.37
2919.62
2740.85
2569.74
2404.99
2245.05
2087.67
1929.07
1762.73
1583.67
1393.33
1198.51
1008.21
831.451
673.453
536.108
417.755
315.627
227.887
155.729
103.001
73.2443
64.6844
72.1558
88.4857
106.587
121.461
130.889
134.279
131.928
124.714
114.076
101.874
89.1346
76.988
66.3791
57.4247
50.1111
44.3503
40.0038
36.8998
34.8434
33.6369
33.096
33.0597
33.3919
33.982
34.742
35.6031
36.5129
37.4323
38.3331
39.1954
40.0064
40.7579
41.4452
42.0661
42.6201
43.1075
43.5295
43.8878
44.1844
44.4219
44.6031
44.7311
44.8091
44.8402
44.8284
44.7836
-7738.2
-7590.97
-7397.31
-7133.31
-6780.57
-6353.34
-5870.9
-5357.91
-4836.58
-4324.8
-3837.71
-3388.37
-2989.19
-2649.67
-2376.69
-2168.36
-2008.61
-1871.34
-1732.79
-1579.87
-1409.68
-1226.45
-1038.79
-856.872
-692.912
-559.16
-461.851
-401.579
-372.615
-365.347
-369.317
-375.818
-378.86
-374.098
-360.273
-337.788
-308.332
-274.723
-239.888
-206.482
-176.511
-151.103
-130.547
-114.006
-99.1748
-85.1961
-71.6128
-58.6299
-45.9881
-33.8133
-22.3119
-11.6744
-2.0621
6.41324
13.7062
19.8441
24.9153
29.0465
32.3808
35.0615
37.2203
38.9716
40.4099
41.6095
42.6268
43.5026
44.2653
44.9333
45.5184
46.0274
46.4644
46.8319
47.1318
47.3664
47.5381
47.65
47.7057
47.7091
47.6651
47.5792
-3251.14
-3049.72
-2773.26
-2490.41
-2193.69
-1904.76
-1604.14
-1291.75
-985.686
-710.513
-485.414
-314.947
-188.613
-90.6726
-7.98407
67.5643
139.367
208.489
274.527
336.144
390.956
434.688
462.75
469.88
453.079
413.179
354.273
282.149
202.864
121.668
42.8539
-30.1983
-95.7395
-152.886
-201.31
-241.101
-272.983
-297.581
-315.539
-327.608
-334.628
-337.506
-337.062
-334.122
-329.339
-323.207
-316.096
-308.287
-300.016
-291.49
-282.888
-274.34
-265.927
-257.676
-249.571
-241.573
-233.645
-225.768
-217.952
-210.229
-202.642
-195.23
-188.026
-181.055
-174.334
-167.874
-161.68
-155.752
-150.084
-144.669
-139.498
-134.56
-129.845
-125.346
-121.052
-116.957
-113.053
-109.324
-105.772
-102.351
-8182.9
-7845.36
-7390.04
-6852.89
-6200.82
-5510.92
-4811.61
-4127.65
-3472.89
-2845.98
-2241.02
-1660.61
-1120.44
-642.505
-243.779
69.4027
300.943
461.599
564.166
622.381
649.702
655.352
643.101
613.3
565.389
500.825
423.965
340.726
256.631
175.921
101.265
33.9905
-25.4559
-77.0596
-121.267
-158.725
-189.972
-215.778
-236.851
-253.858
-267.414
-278.046
-286.208
-292.279
-296.579
-299.368
-300.846
-301.159
-300.411
-298.686
-296.035
-292.465
-287.923
-282.309
-275.526
-267.555
-258.541
-248.803
-238.765
-228.82
-219.23
-210.103
-201.445
-193.228
-185.433
-178.049
-171.07
-164.482
-158.261
-152.378
-146.803
-141.507
-136.47
-131.673
-127.102
-122.745
-118.593
-114.629
-110.854
-107.219
10444.7
10140.1
9727.46
9166.26
8415.07
7548.44
6601.96
5604.64
4591.27
3606.79
2698.98
1898.37
1203.94
594.169
47.6807
-445.447
-885.043
-1265.22
-1577.79
-1814.96
-1971.88
-2048.2
-2050.49
-1991.64
-1887.65
-1753.89
-1603.73
-1447.41
-1292.56
-1144.46
-1006.88
-882.272
-771.987
-676.556
-595.676
-528.533
-473.839
-430.085
-395.88
-369.852
-350.678
-336.781
-326.948
-320.139
-315.505
-312.408
-310.371
-309.006
-307.953
-306.849
-305.332
-303.049
-299.684
-294.964
-288.7
-280.845
-271.565
-261.258
-250.457
-239.663
-229.208
-219.229
-209.738
-200.717
-192.169
-184.118
-176.588
-169.574
-163.04
-156.933
-151.193
-145.771
-140.626
-135.729
-131.059
-126.602
-122.348
-118.282
-114.404
-110.668
-460.764
-564.377
-657.227
-670.149
-612.256
-504.098
-397.718
-320.758
-274.883
-251.47
-239.841
-233.492
-233.275
-243.909
-266.519
-297.078
-329.871
-359.584
-383.112
-400.187
-412.582
-422.982
-433.674
-445.533
-457.991
-469.684
-478.436
-482.963
-482.522
-477.294
-468.059
-455.9
-441.98
-427.367
-412.944
-399.381
-387.141
-376.49
-367.537
-360.142
-353.999
-349.033
-344.872
-341.125
-337.541
-333.941
-330.138
-325.986
-321.393
-316.293
-310.638
-304.392
-297.526
-290.003
-281.792
-272.904
-263.459
-253.713
-244.008
-234.632
-225.707
-217.188
-208.951
-200.91
-193.065
-185.488
-178.264
-171.446
-165.041
-159.02
-153.337
-147.951
-142.827
-137.938
-133.266
-128.798
-124.525
-120.434
-116.526
-112.761
-6823.37
-6434.47
-5891.69
-5299.27
-4661.85
-4075.29
-3524.15
-2983.55
-2449
-1930.91
-1448.78
-1010.11
-598.807
-211.597
119.584
366.774
536.035
649.982
726.385
774.766
798.057
795.147
766.611
714.931
644.135
559.632
467.284
372.301
278.802
189.971
108.064
34.1957
-31.5683
-89.7618
-141.038
-185.929
-224.851
-258.19
-286.316
-309.563
-328.211
-342.519
-352.757
-359.229
-362.171
-361.863
-358.692
-353.058
-345.357
-336.002
-325.428
-314.065
-302.314
-290.52
-278.969
-267.865
-257.334
-247.428
-238.138
-229.407
-221.136
-213.212
-205.532
-198.039
-190.738
-183.681
-176.928
-170.518
-164.456
-158.717
-153.267
-148.07
-143.099
-138.333
-133.758
-129.367
-125.156
-121.114
-117.243
-113.515
1592.6
1510.11
1421.54
1304.63
1118
828.183
449.782
27.8588
-387.466
-755.917
-1048.74
-1250.24
-1358.69
-1387.14
-1359.59
-1299.9
-1224.28
-1142.41
-1061.51
-986.018
-921.596
-873.734
-845.368
-835.709
-841.827
-859.607
-884.814
-912.542
-937.221
-953.73
-959.187
-953.806
-939.362
-916.987
-886.904
-849.735
-807.196
-761.572
-715.045
-669.674
-626.191
-584.521
-544.923
-507.81
-473.574
-442.417
-414.357
-389.261
-366.849
-346.745
-328.558
-311.967
-296.752
-282.782
-269.981
-258.287
-247.628
-237.906
-229.003
-220.786
-213.119
-205.878
-198.96
-192.294
-185.841
-179.59
-173.542
-167.704
-162.081
-156.675
-151.48
-146.489
-141.693
-137.083
-132.649
-128.387
-124.291
-120.355
-116.579
-112.945
2261.22
2154.03
1960.93
1643.66
1207.12
690.848
121.181
-476.143
-1069.83
-1622.65
-2095.65
-2454.86
-2677.47
-2759.67
-2724.45
-2614.81
-2475.33
-2340.12
-2229.57
-2149.94
-2096.35
-2058.12
-2023.85
-1983.24
-1927.25
-1848.56
-1739.91
-1597.81
-1425.03
-1234.22
-1049.04
-894.797
-784.52
-715.15
-675.18
-652.904
-639.783
-629.807
-619.28
-605.589
-587.435
-564.698
-537.904
-508.335
-477.51
-446.825
-417.365
-389.834
-364.586
-341.703
-321.109
-302.654
-286.165
-271.465
-258.378
-246.724
-236.323
-226.993
-218.559
-210.857
-203.738
-197.076
-190.762
-184.714
-178.875
-173.211
-167.708
-162.367
-157.192
-152.189
-147.363
-142.711
-138.228
-133.907
-129.741
-125.723
-121.848
-118.112
-114.513
-111.046
-15072.1
-14572.1
-13976.4
-13312.7
-12516.7
-11551.5
-10378.2
-9015.44
-7537.13
-6041.54
-4613.89
-3313.24
-2190.33
-1287.78
-617.077
-150.438
144.375
283.232
283.825
172.635
-23.7008
-278.067
-559.784
-829.249
-1042.82
-1167.83
-1200.38
-1160.5
-1075.37
-968.843
-859.075
-758.065
-671.708
-601.139
-544.898
-500.546
-465.499
-437.722
-415.259
-396.502
-380.323
-365.91
-352.822
-340.532
-328.726
-317.229
-305.96
-294.916
-284.135
-273.677
-263.607
-253.981
-244.846
-236.231
-228.143
-220.572
-213.489
-206.851
-200.601
-194.68
-189.027
-183.588
-178.319
-173.188
-168.181
-163.292
-158.527
-153.892
-149.394
-145.034
-140.808
-136.711
-132.732
-128.864
-125.101
-121.441
-117.885
-114.433
-111.09
-107.865
11035.6
10787.5
10462.5
9945.04
9088.69
7908.31
6504.36
5072.96
3800.98
2778.18
2007.31
1453.72
1073.66
831.325
700.18
647.16
632.999
617.87
581.428
525.557
463.052
406.436
363.878
336.407
319.164
301.75
274.534
236.525
194.084
153.679
117.271
82.0492
45.7526
7.09534
-32.5311
-70.8389
-105.941
-136.713
-162.648
-183.664
-200.018
-212.095
-220.291
-225.259
-227.664
-228.083
-226.991
-224.777
-221.752
-218.16
-214.186
-209.971
-205.617
-201.199
-196.767
-192.357
-187.985
-183.66
-179.382
-175.149
-170.955
-166.799
-162.682
-158.612
-154.598
-150.653
-146.788
-143.013
-139.334
-135.751
-132.262
-128.863
-125.549
-122.308
-119.126
-115.984
-112.868
-109.771
-106.704
-103.71
4940.1
5110.94
5418.88
5828.89
6293.07
6727.76
7093.31
7364.84
7522.03
7552.71
7458.25
7243.96
6913.13
6474.2
5956.03
5403.37
4857.72
4342.04
3862.75
3419.86
3013.02
2640.85
2297.1
1974.37
1670.28
1389.57
1138.09
917.483
725.763
560.263
419.011
300.505
202.816
123.342
59.3596
8.20805
-32.5828
-65.0394
-90.8645
-111.422
-127.744
-140.616
-150.658
-158.435
-164.292
-168.533
-171.446
-173.271
-174.21
-174.428
-174.059
-173.209
-171.961
-170.351
-168.457
-166.32
-163.971
-161.439
-158.75
-155.932
-153.011
-150.013
-146.966
-143.899
-140.831
-137.783
-134.771
-131.807
-128.897
-126.042
-123.236
-120.471
-117.737
-115.02
-112.31
-109.596
-106.874
-104.14
-101.39
-98.6481
517.583
349.492
96.7881
-238.65
-646.582
-1110.04
-1603.42
-2087.89
-2524.02
-2879.73
-3124.86
-3210.47
-3088.99
-2783.23
-2408.49
-2088.34
-1864.24
-1707.2
-1577.99
-1453.23
-1321.14
-1177.41
-1024.38
-868.963
-718.071
-577.919
-454.066
-350.467
-268.375
-206.446
-161.905
-131.578
-112.415
-101.821
-97.5537
-97.6868
-100.601
-105.149
-110.467
-115.955
-121.243
-126.118
-130.473
-134.274
-137.529
-140.27
-142.538
-144.375
-145.82
-146.899
-147.634
-148.034
-148.109
-147.894
-147.369
-146.547
-145.445
-144.086
-142.494
-140.698
-138.732
-136.625
-134.421
-132.23
-129.974
-127.675
-125.354
-123.02
-120.674
-118.313
-115.929
-113.512
-111.054
-108.548
-105.995
-103.396
-100.76
-98.0978
-95.4367
-92.7471
-12883.9
-12149.7
-11189.1
-10162
-9077.83
-8096.15
-7241.27
-6503.95
-5862.38
-5292.6
-4775.09
-4296.58
-3851.66
-3448.84
-3103.43
-2823.73
-2599.83
-2409.65
-2230.29
-2046.68
-1853.11
-1650.75
-1444.16
-1239.25
-1043.79
-866.253
-712.705
-584.982
-481.03
-397.094
-329.584
-275.685
-233.241
-200.37
-175.493
-157.219
-144.304
-135.629
-130.212
-127.202
-125.898
-125.737
-126.293
-127.261
-128.432
-129.674
-130.9
-132.055
-133.093
-133.975
-134.666
-135.133
-135.354
-135.315
-135.012
-134.454
-133.656
-132.643
-131.445
-130.096
-128.631
-127.081
-125.465
-123.72
-121.963
-120.197
-118.418
-116.607
-114.735
-112.773
-110.699
-108.487
-106.116
-103.575
-100.872
-98.0299
-95.0987
-92.137
-89.2358
-86.3438
2821.46
2631.32
2385.71
2080.85
1670.7
1213.05
759.103
353.501
27.3143
-206.998
-350.936
-413.973
-408.832
-349.828
-254.328
-142.431
-33.7549
56.3835
119.489
153.126
158.443
139.62
104.424
62.0676
20.5021
-15.498
-44.1753
-65.5729
-80.7157
-91.1614
-98.5987
-104.412
-109.593
-115.027
-120.911
-126.617
-131.818
-136.239
-139.667
-141.991
-143.21
-143.423
-142.808
-141.592
-140.016
-138.302
-136.623
-135.093
-133.755
-132.593
-131.558
-130.58
-129.596
-128.557
-127.433
-126.212
-124.898
-123.505
-122.057
-120.577
-119.088
-117.609
-116.152
-114.722
-113.319
-111.936
-110.542
-109.108
-107.604
-105.983
-104.198
-102.205
-99.9644
-97.4541
-94.6783
-91.674
-88.5144
-85.3006
-82.158
-79.1168
10898.7
10807.4
10697.4
10506.7
10223
9849.4
9402.02
8895.76
8341.7
7749.05
7122.93
6465
5777.61
5067.34
4344.52
3620.98
2912.38
2248.78
1679.55
1250.28
961.492
764.654
609.627
477.696
367.029
273.152
189.694
113.519
44.5684
-16.0718
-67.1529
-108.651
-141.092
-165.222
-182.342
-194.246
-201.994
-206.222
-207.327
-205.644
-201.552
-195.512
-188.036
-179.654
-170.881
-162.202
-154.041
-146.722
-140.427
-135.179
-130.873
-127.327
-124.342
-121.745
-119.407
-117.239
-115.19
-113.236
-111.365
-109.58
-107.882
-106.275
-104.759
-103.328
-101.968
-100.661
-99.3767
-98.0786
-96.7256
-95.2736
-93.6022
-91.7329
-89.6241
-87.2503
-84.6174
-81.7667
-78.776
-75.7533
-72.8279
-70.1118
-7980.73
-7660.23
-7247.32
-6754.02
-6143.85
-5453.44
-4695.27
-3893.02
-3081.69
-2301.61
-1590.32
-975.18
-468.722
-69.6266
231.399
445.238
582.304
653.073
667.246
632.257
551.423
427.078
267.643
90.4703
-84.353
-241.46
-372.914
-476.752
-553.981
-605.994
-634.071
-639.607
-624.735
-593.61
-551.617
-504.244
-456.206
-410.878
-370.169
-334.714
-304.179
-277.666
-254.048
-232.346
-211.976
-192.834
-175.219
-159.611
-146.401
-135.687
-127.254
-120.681
-115.503
-111.318
-107.83
-104.835
-102.203
-99.8497
-97.7195
-95.7751
-93.9888
-92.338
-90.8017
-89.3579
-87.9823
-86.6476
-85.3222
-83.9702
-82.5486
-81.014
-79.4028
-77.6086
-75.6247
-73.4558
-71.1216
-68.6661
-66.158
-63.684
-61.3502
-59.2985
-814.323
-997.563
-1225.72
-1474.31
-1766.18
-2088.74
-2430.23
-2766.28
-3072.69
-3333.29
-3539.39
-3686.48
-3772.48
-3796.58
-3759.42
-3663.49
-3513.21
-3315.25
-3078.41
-2815.17
-2540.14
-2266.58
-2003.4
-1753.36
-1513.83
-1280.8
-1054.19
-840.633
-651.4
-497.079
-382.706
-304.82
-254.82
-223.542
-203.23
-188.8
-178.095
-170.769
-166.821
-165.511
-165.219
-164.086
-160.759
-154.765
-146.478
-136.795
-126.773
-117.342
-109.124
-102.382
-97.0719
-92.9703
-89.7955
-87.2891
-85.2491
-83.5159
-81.9927
-80.6105
-79.3237
-78.1029
-76.928
-75.784
-74.6577
-73.5355
-72.4029
-71.2433
-70.0388
-68.7705
-67.4195
-65.9687
-64.4074
-62.7396
-60.9606
-59.0825
-57.134
-55.1577
-53.2076
-51.3424
-49.6279
-48.1913
-463.022
-51.6768
554.144
1238.86
1958.19
2642.75
3298.59
3897.48
4383.18
4708.83
4853.45
4824.14
4650.96
4374.2
4032.2
3654.96
3263.3
2871.14
2487.95
2119.24
1771.24
1448.92
1155.45
891.88
657.749
453.089
276.798
126.478
-0.606247
-106.711
-193.154
-260.555
-308.877
-337.265
-346.494
-339.638
-321.496
-297.696
-273.347
-251.852
-233.922
-218.461
-204.018
-189.546
-174.355
-158.574
-142.838
-127.944
-114.559
-103.061
-93.5283
-85.8263
-79.707
-74.8928
-71.1242
-68.1773
-65.8676
-64.0443
-62.5848
-61.3891
-60.3762
-59.4802
-58.6476
-57.8353
-57.0086
-56.1397
-55.207
-54.1943
-53.0909
-51.8921
-50.599
-49.2198
-47.7691
-46.2696
-44.7515
-43.2517
-41.8111
-40.4692
-39.2719
-38.3091
9912.02
9644.35
9284.92
8763.53
7973.86
6933.29
5622.52
4114.87
2627.06
1399.11
532.984
-24.8206
-374.923
-587.398
-698.584
-731.423
-706.888
-645.194
-563.797
-475.975
-389.567
-309.851
-239.756
-180.314
-131.231
-92.849
-64.8595
-47.0278
-39.0453
-39.9679
-48.1771
-61.6806
-78.2473
-95.6196
-111.616
-124.227
-131.911
-133.951
-130.587
-122.721
-111.934
-99.5976
-86.271
-72.4787
-58.8494
-46.4044
-35.809
-27.4075
-21.5732
-18.3781
-17.5395
-18.5395
-20.7728
-23.6802
-26.8223
-29.8691
-32.6378
-35.0304
-37.0124
-38.5899
-39.7907
-40.652
-41.212
-41.5062
-41.5655
-41.416
-41.0802
-40.578
-39.9281
-39.1491
-38.2614
-37.2871
-36.2515
-35.1823
-34.1102
-33.0675
-32.0866
-31.1977
-30.4277
-29.868
-9066.98
-8619.69
-8018.31
-7316.71
-6530.9
-5741.84
-4976.61
-4240.44
-3542.78
-2917.36
-2405.35
-2023.77
-1764.99
-1611.3
-1540.25
-1525.33
-1537.39
-1548.28
-1535.82
-1487.95
-1403.84
-1291.09
-1160.81
-1023.23
-885.832
-753.699
-630.84
-519.739
-421.441
-336.097
-263.199
-201.645
-149.96
-106.614
-70.2573
-39.8559
-14.7041
5.59444
21.2406
32.4029
39.299
42.2802
41.8709
38.6784
33.371
26.9843
20.1965
13.3683
6.95371
1.26828
-3.58288
-7.60635
-10.8439
-13.6097
-16.0437
-18.2252
-20.2017
-21.9916
-23.5957
-25.0066
-26.2149
-27.2132
-27.998
-28.5708
-28.9374
-29.1077
-29.0952
-28.9162
-28.5895
-28.1362
-27.579
-26.9425
-26.2528
-25.5371
-24.8236
-24.1407
-23.5168
-22.9782
-22.5537
-22.3303
-4397.54
-4400.36
-4401.26
-4362.93
-4271.31
-4142.46
-3988.75
-3829.52
-3695.8
-3605.78
-3541.15
-3450.82
-3280.19
-2999.17
-2607.69
-2127.57
-1598.69
-1078.68
-628.66
-288.527
-63.6711
66.5501
129.877
149.22
140.739
115.874
82.9917
48.0424
14.961
-13.9424
-37.4889
-55.1004
-66.6501
-72.3797
-72.8757
-69.2048
-62.422
-53.5041
-43.29
-32.4672
-21.6321
-11.3238
-2.0233
5.87882
12.1193
16.5758
19.2479
20.2464
19.7875
18.153
15.6609
12.5675
9.03931
5.44557
1.89436
-1.49732
-4.6327
-7.47172
-9.99331
-12.1893
-14.061
-15.6171
-16.8714
-17.8418
-18.5495
-19.0184
-19.2739
-19.3427
-19.252
-19.0286
-18.6993
-18.2899
-17.8259
-17.3321
-16.8329
-16.3527
-15.9176
-15.5576
-15.3168
-15.3476
-96.0172
-87.6404
-80.4903
-74.3464
-69.0506
-64.4798
-60.542
-57.1594
-54.262
-51.778
-49.6302
-47.7351
-46.0085
-44.3726
-42.7639
-41.1369
-39.4651
-37.7401
-35.9698
-34.1627
-32.3368
-30.4979
-28.658
-26.8299
-25.0234
-23.2334
-21.4493
-19.6699
-17.8944
-16.1385
-14.4286
-12.7944
-11.2641
-9.8589
-8.58943
-7.45552
-6.44864
-5.55521
-4.75963
-4.04651
-3.4018
-2.81329
-2.27061
-1.76511
-1.28965
-0.838368
-0.406541
0.00959974
0.413037
0.806027
1.18997
1.56516
1.93048
2.28333
2.61972
2.93452
3.22194
3.47696
3.69429
3.87175
4.00785
4.10315
4.15998
4.18202
4.17373
4.13992
4.08526
4.014
3.92962
3.83482
3.73142
3.62049
3.5024
3.37684
3.24292
3.09925
2.94403
2.77509
2.58975
2.38474
2.15608
1.89899
1.60786
1.27648
0.898514
0.468374
-0.0178769
-0.561757
-1.1619
-1.81379
-2.50945
-3.23712
-3.98097
-4.7212
-5.43458
-6.0957
-6.67863
-7.159
-7.51618
-7.73469
-7.80508
-7.72701
-7.50663
-7.15719
-6.69741
-6.14974
-5.53832
-4.88717
-4.21862
-3.55219
-2.90391
-2.28599
-1.70683
-1.17136
-0.681466
-0.236677
0.165229
0.527562
0.854135
1.14882
1.41528
1.65678
1.87623
2.07616
2.25881
2.42619
2.58013
2.72225
2.85379
2.97555
3.08777
3.1903
3.28276
3.36481
3.43614
3.49653
3.54676
3.58757
3.61987
3.6447
3.66319
3.67642
3.68532
3.69071
3.69323
3.6934
3.69157
3.68797
3.68268
3.6757
3.6669
3.65612
3.64315
3.62772
3.60959
3.58857
3.56454
3.53748
3.50746
3.47458
3.43895
3.40063
3.35957
3.31557
3.26822
3.21683
3.16048
3.09804
3.02827
2.94985
2.8615
2.76197
2.65016
2.52518
2.38645
2.2338
2.06751
1.88833
1.69752
1.49684
1.28861
1.07564
0.861222
0.649012
0.442897
0.246851
0.0647926
-0.0995334
-0.242676
-0.361593
-0.453789
-0.517377
-0.5513
-0.555177
-0.529921
-0.47606
-0.398224
-0.294244
-0.182493
-0.0364071
-100.495
-91.6215
-84.1232
-77.7781
-72.4089
-67.8653
-64.0281
-60.7926
-58.0631
-55.7423
-53.7287
-51.9183
-50.2135
-48.5331
-46.8197
-45.04
-43.177
-41.2382
-39.2566
-37.2319
-35.194
-33.1422
-31.0874
-29.0916
-27.1276
-25.1957
-23.2833
-21.3796
-19.4809
-17.5955
-15.7459
-13.963
-12.2802
-10.7252
-9.3149