/*--------------------------------*- C++ -*----------------------------------*\
| =========                 |                                                 |
| \\      /  F ield         | OpenFOAM: The Open Source CFD Toolbox           |
|  \\    /   O peration     | Version:  2012                                  |
|   \\  /    A nd           | Website:  www.openfoam.com                      |
|    \\/     M anipulation  |                                                 |
\*---------------------------------------------------------------------------*/
FoamFile
{
    version     2.0;
    format      ascii;
    class       surfaceScalarField;
    location    "0.25";
    object      phi;
}
// * * * * * * * * * * * * * * * * * * * * * * * * * * * * * * * * * * * * * //

dimensions      [0 3 -1 0 0 0 0];
oriented        oriented;


internalField   nonuniform List<scalar> 
84340
(
0.000169533
-0.000406751
0.000237218
0.000508658
-0.000825437
0.000486312
0.00095678
-0.000915191
0.00046707
0.00142354
-0.000788853
0.000322095
0.00174249
-0.000465409
0.000146459
0.0017946
-7.33551e-06
-4.47752e-05
0.00156263
0.000411652
-0.000179686
0.00110339
0.000654941
-0.000195701
0.000511751
0.000705785
-0.000114144
-0.000114509
0.000640543
-1.42829e-05
-0.000702361
0.000542722
4.51305e-05
-0.00120682
0.000456988
4.74701e-05
-0.00160116
0.000389975
4.36184e-06
-0.00186518
0.000333279
-6.92517e-05
-0.0019835
0.000278392
-0.000160079
-0.00195
0.00021618
-0.000249679
-0.00178249
0.000141196
-0.00030871
-0.00153005
5.40824e-05
-0.00030652
-0.00125991
-4.24301e-05
-0.000227709
-0.00103388
-0.000138972
-8.70607e-05
-0.000872543
-0.00023053
6.91968e-05
-0.000759214
-0.000317016
0.000203687
-0.000663287
-0.000396554
0.000300626
-0.000560241
-0.000464319
0.000361272
-0.000439684
-0.000513322
0.000392765
-0.000304319
-0.00053611
0.000400746
-0.000164488
-0.000527897
0.000388066
-2.8713e-05
-0.000492073
0.000356298
0.000103749
-0.000439589
0.000307126
0.000232766
-0.000371192
0.000242175
0.000343426
-0.000274437
0.000163777
0.000415989
-0.000149788
7.7225e-05
0.000441264
-1.5084e-05
-1.01914e-05
0.000424435
0.000106948
-9.01188e-05
0.000353258
0.000227439
-0.000156262
0.000247098
0.000314938
-0.000208778
0.000127135
0.00036849
-0.000248528
1.16313e-05
0.000393569
-0.000278066
-8.62803e-05
0.000397554
-0.000299643
-0.000160966
0.000389409
-0.000314723
-0.000214102
0.000376416
-0.000323281
-0.000251381
0.000361932
-0.000324654
-0.000279483
0.000346404
-0.000318302
-0.000303578
0.00032842
-0.000304325
-0.00032691
0.000306903
-0.000283571
-0.000351068
0.000281479
-0.000257321
-0.000376424
0.000252375
-0.000227019
-0.000402819
0.000220426
-0.000194031
-0.000429806
0.000186518
-0.000159531
-0.000457319
0.000151977
-0.000124464
-0.000485139
0.000117338
-8.95172e-05
-0.000512748
8.2578e-05
-5.49696e-05
-0.000539742
4.78648e-05
-2.08712e-05
-0.000564962
1.24522e-05
1.27685e-05
-0.000586826
-2.29594e-05
4.48233e-05
-0.000606179
-5.69566e-05
7.631e-05
-0.000621432
-9.28527e-05
0.000108105
-0.000631705
-0.000129574
0.000139848
-0.000636128
-0.000167105
0.000171528
-0.00063388
-0.000205342
0.000203094
-0.000624231
-0.000244063
0.000234415
-0.000606579
-0.000282919
0.000265267
-0.000580482
-0.000321444
0.000295347
-0.000545686
-0.000359085
0.00032429
-0.000502132
-0.000395249
0.000351696
-0.000449938
-0.000429363
0.000377168
-0.000389359
-0.000460928
0.000400348
-0.000320725
-0.000489578
0.000420943
-0.000244382
-0.000515094
0.000438752
-0.000160644
-0.000537403
0.000453665
-6.97767e-05
-0.000556533
0.000465666
2.798e-05
-0.000572576
0.000474819
0.000132354
-0.000585637
0.000481262
0.000242965
-0.000595815
0.000485205
0.00035923
-0.000603203
0.000486938
0.000480282
-0.000607907
0.000486855
0.000604881
-0.000610088
0.00048549
0.000731343
-0.000610074
0.000483611
0.00085756
-0.000608739
0.000482523
-0.000609501
0.000484911
0.00098215
-0.000905507
0.000498755
-0.00240641
0.000675464
-0.00391143
0.000589826
-0.00526048
0.000560199
-0.0063366
0.000610712
-0.00704792
0.000703984
-0.00740822
0.000771952
-0.00750166
0.000748382
-0.00741561
0.000619733
-0.00718923
0.00041417
-0.00681494
0.000168429
-0.00627428
-8.36732e-05
-0.0055739
-0.000310403
-0.0047535
-0.000487128
-0.0038708
-0.000604301
-0.00298721
-0.000667408
-0.00215506
-0.000690963
-0.0014104
-0.000690572
-0.000773251
-0.000679581
-0.000244367
-0.000667856
0.000185881
-0.000660778
0.000527358
-0.000658494
0.000786858
-0.000656052
0.000967077
-0.000644538
0.00106608
-0.000612324
0.00107577
-0.000545804
0.000980638
-0.000432762
0.000766111
-0.000277546
0.000446463
-0.000119941
8.11108e-05
-5.83929e-06
-0.000263094
6.97682e-05
-0.000554241
0.000141358
-0.000791085
0.00022176
-0.000986022
0.000301884
-0.00112646
0.000367872
-0.00122419
0.000412668
-0.00128792
0.000432226
-0.00132243
0.000428078
-0.00133173
0.000406854
-0.0013195
0.000377182
-0.0012891
0.000346011
-0.00124407
0.000316904
-0.0011882
0.000290532
-0.00112562
0.000265845
-0.00106015
0.000241435
-0.000994984
0.00021631
-0.000932682
0.000190073
-0.000875054
0.000162798
-0.00082336
0.000134824
-0.000777881
0.000106498
-0.000738398
7.78547e-05
-0.000704411
4.85908e-05
-0.000675652
1.91067e-05
-0.000652168
-1.10323e-05
-0.000632883
-4.22451e-05
-0.000615143
-7.46965e-05
-0.00059921
-0.000108786
-0.000584062
-0.000144722
-0.000568581
-0.000182586
-0.000551618
-0.000222305
-0.000532056
-0.000263624
-0.000508879
-0.000306096
-0.000481234
-0.000349088
-0.0004485
-0.000391819
-0.000410317
-0.000433433
-0.000366584
-0.000473096
-0.000317397
-0.000510115
-0.000262969
-0.000544007
-0.000203459
-0.000574604
-0.000138942
-0.00060192
-6.92976e-05
-0.000626179
5.74674e-06
-0.000647621
8.65282e-05
-0.000666418
0.00017334
-0.000682627
0.000266331
-0.000696194
0.000365431
-0.000707007
0.000470322
-0.00071498
0.000580456
-0.000720207
0.000695261
-0.000723544
-0.000729614
0.000815374
0.00117234
-0.00067358
0.00299392
-0.00114612
0.00488017
-0.00129643
0.00677907
-0.0013387
0.00866751
-0.00127773
0.0105077
-0.00113616
0.0122261
-0.000946504
0.0137172
-0.000742693
0.0148787
-0.00054175
0.0156341
-0.000341272
0.0159419
-0.000139344
0.0157949
6.33051e-05
0.0152194
0.000265115
0.0142713
0.000460927
0.0130266
0.00064041
0.0115678
0.000791449
0.00996919
0.000907611
0.00830816
0.000970454
0.0066501
0.00097848
0.00505355
0.000928697
0.00355924
0.000833529
0.0021912
0.000709551
0.000959507
0.00057564
-0.000136081
0.00045105
-0.00109861
0.000350208
-0.00192887
0.000284457
-0.00262666
0.000265027
-0.0031983
0.000294087
-0.00366816
0.000349925
-0.00400958
0.000335577
-0.00420674
0.000266934
-0.00426432
0.000198937
-0.00420185
0.000159285
-0.0040378
0.000137835
-0.00380402
0.000134093
-0.00352949
0.000138141
-0.00323916
0.000141897
-0.00295185
0.00014076
-0.00267892
0.000133924
-0.00242444
0.000122709
-0.00218765
0.000109221
-0.00196669
9.59378e-05
-0.00175995
8.37936e-05
-0.0015667
7.25993e-05
-0.00138709
6.18197e-05
-0.00122165
5.08679e-05
-0.00107074
3.91641e-05
-0.000933764
2.58258e-05
-0.000811186
1.22457e-05
-0.000703297
-1.39105e-06
-0.000607931
-1.75117e-05
-0.000523445
-3.58952e-05
-0.000450024
-5.43142e-05
-0.000387207
-7.38489e-05
-0.000333266
-9.61863e-05
-0.000287052
-0.00012091
-0.000247605
-0.000148234
-0.000213931
-0.000178395
-0.000184973
-0.000211544
-0.000159592
-0.000247685
-0.000136594
-0.000286623
-0.000114774
-0.000327917
-9.29981e-05
-0.000370864
-7.02976e-05
-0.00041452
-4.59496e-05
-0.000457781
-1.95166e-05
-0.000499529
9.18009e-06
-0.000538811
4.02181e-05
-0.000575045
7.36676e-05
-0.000608053
0.000109881
-0.000638133
0.000149452
-0.00066575
0.000193209
-0.000691378
0.000242079
-0.000715287
0.000296924
-0.000737471
0.000358428
-0.000757698
0.000427054
-0.000775633
0.000503072
-0.000790999
0.000586626
-0.00080376
0.000677811
-0.000814728
-0.000827586
0.000775782
-0.000808856
0.000135276
-0.00198562
3.06504e-05
-0.00320777
-7.42767e-05
-0.00468143
0.000134963
-0.00637341
0.000414244
-0.00809567
0.000586097
-0.00969087
0.000648696
-0.0110845
0.000650916
-0.0122581
0.000631921
-0.0132108
0.00061137
-0.0139462
0.000596106
-0.0144696
0.000586669
-0.0147831
0.000578658
-0.0148846
0.000562345
-0.0147691
0.000524918
-0.0144355
0.000457876
-0.0138854
0.000357478
-0.0131448
0.000229912
-0.0122543
8.79708e-05
-0.0112743
-5.13263e-05
-0.0102712
-0.000169603
-0.00931
-0.000251606
-0.00844709
-0.000287275
-0.00771218
-0.00028386
-0.00710791
-0.000254055
-0.00661076
-0.000212696
-0.00617456
-0.000171172
-0.00575384
-0.000126638
-0.00531608
-8.78337e-05
-0.00491738
-6.31179e-05
-0.00459373
-5.67242e-05
-0.00433321
-6.15842e-05
-0.00411555
-5.83686e-05
-0.00393012
-4.75963e-05
-0.00375606
-3.99662e-05
-0.00357955
-3.83724e-05
-0.00339374
-4.39135e-05
-0.00319463
-5.83443e-05
-0.00297858
-8.2133e-05
-0.0027418
-0.00011407
-0.0024866
-0.00014598
-0.0022187
-0.000171956
-0.001947
-0.000187907
-0.00168132
-0.000193084
-0.00142978
-0.000189717
-0.00119738
-0.000181533
-0.000986041
-0.000172175
-0.000795949
-0.000164266
-0.000624469
-0.000159234
-0.000468293
-0.000157568
-0.000326808
-0.000158996
-0.000199474
-0.000163229
-8.39111e-05
-0.000169877
2.0957e-05
-0.000178717
0.00011456
-0.000189789
0.000196871
-0.000203221
0.000267912
-0.000219275
0.000327823
-0.000238306
0.000376955
-0.000260676
0.000415932
-0.000286662
0.000445672
-0.000316362
0.000467358
-0.000349602
0.000482363
-0.000385869
0.000492141
-0.000424297
0.000498097
-0.000463737
0.000501501
-0.000502933
0.00050348
-0.000540791
0.000505083
-0.000576647
0.000507461
-0.000610432
0.000511922
-0.000642595
0.000519997
-0.000673825
0.000533282
-0.000704663
0.000553218
-0.000735223
0.000580884
-0.000765138
0.000616898
-0.000793711
0.000661444
-0.000820179
0.0007144
-0.000843955
0.000775477
-0.000864837
0.00084411
-0.000883362
-0.000901554
0.000918078
8.05648e-05
5.47111e-05
0.000105121
6.09376e-06
4.28822e-05
-1.20376e-05
-3.04931e-05
0.000208338
-7.17295e-05
0.00045548
-4.92626e-05
0.00056363
2.95937e-05
0.00056984
0.000117869
0.000562641
0.000158677
0.000591113
0.000123743
0.000646304
-4.88061e-06
0.00072473
-0.000232458
0.000814246
-0.000544686
0.000890887
-0.000924068
0.000941727
-0.00134638
0.00094723
-0.00177252
0.000884019
-0.00214301
0.000727968
-0.00238257
0.000469471
-0.00242741
0.000132815
-0.00226182
-0.000216917
-0.00193186
-0.00049957
-0.00151841
-0.000665051
-0.00108975
-0.000715935
-0.000683927
-0.000689685
-0.000320039
-0.000617942
-4.2546e-06
-0.00052848
0.000261401
-0.000436827
0.000484374
-0.000349612
0.000669296
-0.000272755
0.000814321
-0.000208144
0.000910873
-0.000153275
0.000954795
-0.000105507
0.000960462
-6.40361e-05
0.000943422
-3.05556e-05
0.000908072
-4.61697e-06
0.000860229
9.47175e-06
0.000806438
9.87759e-06
0.000751906
-3.8129e-06
0.000699617
-2.9844e-05
0.000645136
-5.95891e-05
0.000589631
-9.04745e-05
0.000536726
-0.000119051
0.000488927
-0.000140107
0.000449223
-0.000153381
0.000420056
-0.000160551
0.000403
-0.000164477
0.000398676
-0.000167851
0.000407069
-0.000172659
0.000426972
-0.000179137
0.000456596
-0.000187192
0.000494551
-0.000196951
0.00053906
-0.000207738
0.000588245
-0.000219062
0.000640172
-0.000230643
0.000692825
-0.000242443
0.000744264
-0.00025466
0.000792675
-0.000267686
0.000836417
-0.000282048
0.000874082
-0.000298341
0.000904555
-0.000317136
0.000927066
-0.000338874
0.000941224
-0.00036376
0.000947036
-0.000391681
0.000944907
-0.000422169
0.000935649
-0.000454479
0.000920484
-0.000487769
0.000901062
-0.000521369
0.000879453
-0.000555038
0.000858074
-0.000589052
0.000839517
-0.000624038
0.000826281
-0.000660589
0.000820465
-0.000698847
0.000823522
-0.000738281
0.000836153
-0.000777769
0.000858357
-0.000815915
0.000889601
-0.000851423
0.000929029
-0.000883383
0.000975609
-0.000911418
0.00102803
-0.000935781
-0.000957622
0.0010841
0.000473456
-0.000418745
0.00116641
-0.00068686
0.00182452
-0.000670146
0.00261767
-0.000584814
0.00359932
-0.000526174
0.00467597
-0.000513013
0.00578421
-0.000538399
0.00690716
-0.000560309
0.00806425
-0.000565977
0.00925117
-0.000540619
0.0104514
-0.000475461
0.0116341
-0.000368536
0.0127506
-0.000225551
0.0137512
-5.88598e-05
0.0145838
0.000114571
0.0151896
0.000278245
0.0155137
0.000403863
0.0155114
0.000471823
0.0151557
0.000488513
0.0144504
0.000488323
0.0134363
0.000514555
0.012185
0.000586244
0.0107817
0.00068733
0.00930925
0.000782794
0.00783334
0.000857969
0.00641801
0.000886854
0.00510219
0.000878992
0.00391215
0.000840427
0.00285734
0.000782054
0.00193474
0.00071445
0.00113805
0.000643419
0.000464442
0.000568101
-8.23009e-05
0.000482707
-0.00049661
0.000383753
-0.000774948
0.000273721
-0.000925969
0.000160493
-0.000970157
5.40657e-05
-0.000936443
-3.75272e-05
-0.000856356
-0.000109931
-0.00075328
-0.000162666
-0.000645495
-0.000198259
-0.000544091
-0.000220455
-0.000450781
-0.000233417
-0.000362667
-0.000241495
-0.000276134
-0.000247084
-0.000188865
-0.000251745
-9.99327e-05
-0.000256782
-1.03713e-05
-0.00026222
7.86213e-05
-0.000268129
0.000165964
-0.000274534
0.000250335
-0.000281323
0.000330953
-0.000288356
0.000407418
-0.000295527
0.000479585
-0.00030281
0.000547431
-0.000310289
0.000610934
-0.000318164
0.000669999
-0.000326751
0.000724404
-0.000336454
0.000773783
-0.000347719
0.000817621
-0.000360974
0.000855302
-0.000376554
0.000886183
-0.000394641
0.000909729
-0.000415227
0.000925707
-0.000438147
0.0009344
-0.000463172
0.000936799
-0.000490168
0.00093467
-0.00051924
0.00093042
-0.000550788
0.000926741
-0.000585372
0.000926128
-0.000623426
0.000930451
-0.000664913
0.000940725
-0.00070912
0.000957141
-0.000754697
0.000979305
-0.000799933
0.00100653
-0.000843142
0.0010381
-0.00088299
0.00107339
-0.000918675
0.00111192
-0.000949945
0.00115319
-0.000977057
-0.00100091
0.00119648
-0.000287752
-0.000130993
-0.00052208
-0.000452532
-0.00041313
-0.000779096
3.71154e-05
-0.00103506
0.000731685
-0.00122074
0.0015365
-0.00131783
0.00228324
-0.00128513
0.00283316
-0.00111023
0.00309119
-0.00082401
0.00306311
-0.000512533
0.00283447
-0.000246826
0.00251227
-4.6336e-05
0.00218191
0.000104815
0.00189641
0.000226642
0.00168279
0.000328183
0.00155583
0.000405208
0.00149501
0.000464688
0.00145051
0.000516319
0.00136729
0.000571737
0.00120835
0.000647264
0.000982003
0.000740897
0.000730883
0.000837363
0.00049566
0.000922553
0.000291418
0.000987036
0.000122281
0.00102711
-3.13681e-05
0.0010405
-0.000178414
0.00102604
-0.000321761
0.000983774
-0.000453792
0.000914085
-0.000556068
0.000816727
-0.000607968
0.00069532
-0.00059646
0.000556592
-0.000522908
0.000409154
-0.00040203
0.000262876
-0.000256452
0.000128143
-0.000110165
1.42062e-05
1.72473e-05
-7.33467e-05
0.000113916
-0.000134196
0.00017682
-0.000172835
0.000211052
-0.000196898
0.000222409
-0.000209616
0.000217462
-0.000215508
0.000201037
-0.000216992
0.000181114
-0.000221571
0.000163623
-0.000229594
0.00015139
-0.000239513
0.000145321
-0.000250713
0.000145805
-0.000262704
0.000152758
-0.000275082
0.000165751
-0.000287528
0.000184225
-0.000299796
0.000207593
-0.000311724
0.000235298
-0.000323232
0.000266818
-0.00033433
0.000301648
-0.000345118
0.000339265
-0.000355781
0.000379095
-0.000366581
0.000420479
-0.000377838
0.000462664
-0.000389904
0.000504827
-0.000403138
0.000546154
-0.000417882
0.000585959
-0.000434445
0.000623847
-0.000453115
0.000659877
-0.000474178
0.000694662
-0.000497957
0.00072932
-0.000524826
0.00076525
-0.00055517
0.000803739
-0.000589278
0.000845537
-0.000627171
0.000890556
-0.000668445
0.000937843
-0.000712201
0.000985847
-0.000757124
0.00103285
-0.000801702
0.00107742
-0.000844501
0.00111869
-0.000884409
0.00115647
-0.000920771
0.00119118
-0.000953391
0.00122368
-0.000982446
0.00125502
-0.00100839
-0.001032
0.00128611
-0.000326703
0.000195711
-0.000768881
-1.03551e-05
-0.000961197
-0.00058678
-0.000852709
-0.00114355
-0.00056038
-0.00151307
-0.000203326
-0.00167488
0.000144444
-0.00163291
0.000438775
-0.00140456
0.000660685
-0.00104592
0.000801625
-0.000653473
0.000863743
-0.000308943
0.000856603
-3.91963e-05
0.000791906
0.000169512
0.000681193
0.000337355
0.000536411
0.000472965
0.00036542
0.000576199
0.000182032
0.000648076
-4.01172e-06
0.000702362
-0.000185951
0.000753676
-0.000350661
0.000811974
-0.000488985
0.000879222
-0.000594658
0.000943036
-0.000664676
0.00099257
-0.000700247
0.00102261
-0.000702712
0.00102957
-0.000667726
0.00100552
-0.000598427
0.000956738
-0.000499251
0.000884598
-0.000373835
0.000788669
-0.000231226
0.000674118
-8.61478e-05
0.000550242
4.34254e-05
0.000427019
0.0001401
0.00031248
0.000191326
0.000211649
0.000192907
0.000126562
0.000150097
5.70155e-05
7.56264e-05
1.12389e-06
-1.46511e-05
-4.3919e-05
-0.000106118
-8.13687e-05
-0.000188269
-0.000114747
-0.000256799
-0.000141087
-0.000306154
-0.000166154
-0.000333831
-0.000189316
-0.000343946
-0.000211457
-0.000340739
-0.0002328
-0.00032684
-0.000253412
-0.000304261
-0.000273292
-0.00027458
-0.000292386
-0.000239061
-0.000310601
-0.00019875
-0.000327839
-0.000154518
-0.000344028
-0.000107101
-0.000359141
-5.71143e-05
-0.000373219
-5.07203e-06
-0.000386373
4.85991e-05
-0.00039879
0.000103542
-0.000410724
0.000159453
-0.000422493
0.000216079
-0.000434464
0.000273227
-0.000447052
0.000330792
-0.000460703
0.000388803
-0.000475892
0.000447463
-0.000493105
0.000507165
-0.000512817
0.000568448
-0.000535461
0.000631866
-0.000561375
0.000697782
-0.000590741
0.000766118
-0.000623506
0.000836168
-0.000659329
0.000906549
-0.000697552
0.000975346
-0.000737242
0.00104043
-0.000777286
0.00109987
-0.000816559
0.00115225
-0.000854085
0.00119694
-0.000889186
0.00123407
-0.000921546
0.0012645
-0.000951198
0.00128954
-0.000978432
0.00131078
-0.00100368
0.00132983
-0.00102744
-0.00105023
0.00134806
0.00047358
-0.000277869
0.000959745
-0.00049652
0.00100272
-0.000629751
0.000570466
-0.000711298
-0.000234117
-0.000708489
-0.00128366
-0.000625337
-0.00241326
-0.000503307
-0.00343817
-0.00037965
-0.00421834
-0.000265754
-0.00471479
-0.00015702
-0.00497667
-4.70625e-05
-0.00508388
6.80102e-05
-0.00511358
0.000199206
-0.00511203
0.000335806
-0.00510922
0.000470162
-0.0051304
0.000597375
-0.00518868
0.000706352
-0.00528869
0.000802378
-0.00542748
0.000892464
-0.00558816
0.000972656
-0.00573669
0.00102775
-0.00582796
0.00103431
-0.00580738
0.00097199
-0.00562301
0.000838239
-0.00525086
0.00065742
-0.0047183
0.000472958
-0.00408454
0.000322976
-0.00342285
0.000222902
-0.00280003
0.000165858
-0.00226128
0.00013536
-0.00182071
0.000109673
-0.00147689
8.3205e-05
-0.00121867
5.42587e-05
-0.00103036
2.33359e-05
-0.000892397
-1.14004e-05
-0.000790471
-4.491e-05
-0.000712871
-7.64761e-05
-0.000650671
-0.00010612
-0.000597945
-0.000134095
-0.000552077
-0.000160614
-0.000507652
-0.000185512
-0.000464598
-0.000209208
-0.000421824
-0.000232089
-0.00037881
-0.000254471
-0.000335097
-0.000276513
-0.000290295
-0.000298213
-0.000244144
-0.000319444
-0.000196523
-0.000340007
-0.000147436
-0.000359687
-9.69677e-05
-0.000378307
-4.52387e-05
-0.000395757
7.64033e-06
-0.00041202
6.15979e-05
-0.000427176
0.000116619
-0.000441394
0.000172749
-0.000454919
0.000230079
-0.000468053
0.000288729
-0.000481143
0.000348829
-0.000494565
0.000410497
-0.000508719
0.000473816
-0.000524022
0.000538813
-0.000540889
0.000605422
-0.000559714
0.000673442
-0.000580837
0.000742476
-0.000604495
0.000811872
-0.000630772
0.000880689
-0.000659559
0.00094771
-0.000690527
0.00101152
-0.000723135
0.00107064
-0.000756676
0.00112376
-0.00079036
0.0011699
-0.000823425
0.00120859
-0.000855248
0.00123993
-0.000885431
0.00126459
-0.00091384
0.00128362
-0.000940583
0.00129837
-0.000965949
0.00131025
-0.00099031
0.0013206
-0.00101403
0.00133059
-0.00103743
-0.00106071
0.00134107
-4.57578e-05
-0.000232112
8.03036e-06
-0.000550307
4.83895e-05
-0.000670111
-5.89384e-05
-0.000603971
-0.000296981
-0.000470447
-0.00059997
-0.000322349
-0.000917769
-0.000185508
-0.00123605
-6.1373e-05
-0.00155962
5.78166e-05
-0.00189669
0.000180053
-0.00225219
0.000308438
-0.00262488
0.000440704
-0.00299703
0.000571351
-0.00335208
0.000690854
-0.00366964
0.000787722
-0.00393047
0.000858207
-0.0041259
0.000901784
-0.00424463
0.00092111
-0.0042716
0.000919425
-0.00419409
0.000895148
-0.00400574
0.000839407
-0.00371076
0.000739322
-0.00332729
0.000588529
-0.00288932
0.000400261
-0.00243136
0.00019946
-0.00198329
2.48945e-05
-0.00156669
-9.3626e-05
-0.00119447
-0.000149319
-0.000873529
-0.000155084
-0.000607843
-0.000130326
-0.000399686
-9.84835e-05
-0.000243853
-7.26275e-05
-0.00013246
-5.71347e-05
-5.61496e-05
-5.29745e-05
-1.16911e-05
-5.5859e-05
1.07539e-05
-6.73551e-05
1.95823e-05
-8.53045e-05
2.13495e-05
-0.000107887
2.05855e-05
-0.000133331
1.8419e-05
-0.000158447
1.79604e-05
-0.000185054
2.08318e-05
-0.000212079
2.79305e-05
-0.000239188
3.96965e-05
-0.000266237
5.62501e-05
-0.000293067
7.74835e-05
-0.000319447
0.000103132
-0.000345093
0.000132837
-0.000369711
0.000166198
-0.000393048
0.000202821
-0.000414929
0.000242345
-0.000435282
0.000284465
-0.00045414
0.000328928
-0.000471639
0.000375524
-0.00048799
0.000424065
-0.00050346
0.000474355
-0.000518344
0.000526162
-0.00053295
0.000579191
-0.000547593
0.000633061
-0.00056259
0.000687304
-0.000578265
0.000741367
-0.000594952
0.000794626
-0.000612973
0.000846409
-0.000632621
0.000896031
-0.000654117
0.000942826
-0.000677566
0.000986189
-0.000702922
0.00102562
-0.000729962
0.00106079
-0.000758299
0.00109153
-0.000787422
0.00111794
-0.000816763
0.0011403
-0.000845785
0.00115912
-0.000874069
0.00117505
-0.000901368
0.00118885
-0.000927631
0.00120124
-0.000952975
0.00121292
-0.00097763
0.00122448
-0.00100187
0.00123638
-0.00102594
0.00124899
-0.00105003
-0.00107431
0.00126259
-0.000128305
-0.000103807
-0.000316947
-0.000361665
-0.000421828
-0.000565229
-0.000435177
-0.000590622
-0.000433576
-0.000472047
-0.000436613
-0.000319312
-0.000438131
-0.000183989
-0.000430013
-6.94907e-05
-0.000414629
4.2433e-05
-0.000404578
0.000170002
-0.000413947
0.000317806
-0.000447934
0.000474691
-0.000497708
0.000621125
-0.000546186
0.000739333
-0.000577985
0.000819521
-0.000578497
0.000858719
-0.000541224
0.000864511
-0.000463422
0.000843308
-0.000344466
0.000800469
-0.000189463
0.000740144
-1.60619e-05
0.000666005
0.00014104
0.000582219
0.000235647
0.000493922
0.000229468
0.00040644
0.000105493
0.000323435
-0.000116
0.000246387
-0.000382141
0.000172516
-0.000638966
0.000107506
-0.000849478
5.54281e-05
-0.000995813
1.60094e-05
-0.00108305
-1.12495e-05
-0.00112738
-2.82987e-05
-0.00114617
-3.83386e-05
-0.00115186
-4.7285e-05
-0.00114564
-6.20767e-05
-0.00112537
-8.76248e-05
-0.00108696
-0.000123717
-0.00102825
-0.000166597
-0.000950787
-0.000210796
-0.000857119
-0.000252116
-0.000753416
-0.000288756
-0.000644713
-0.000320782
-0.000534767
-0.000349134
-0.000426175
-0.000374829
-0.000320638
-0.000398604
-0.000219228
-0.000420857
-0.000122582
-0.000441739
-3.10189e-05
-0.000461274
5.53895e-05
-0.000479456
0.00013677
-0.000496309
0.000213402
-0.000511913
0.000285667
-0.000526406
0.00035399
-0.000539962
0.000418771
-0.000552772
0.00048033
-0.000565018
0.000538854
-0.000576867
0.000594372
-0.000588469
0.000646761
-0.000599981
0.000695766
-0.000611594
0.000741061
-0.000623561
0.000782318
-0.000636208
0.000819274
-0.00064993
0.000851812
-0.000665159
0.000880002
-0.000682307
0.000904128
-0.000701693
0.000924681
-0.000723474
0.000942315
-0.000747596
0.00095779
-0.000773774
0.000971894
-0.000801526
0.000985377
-0.000830245
0.000998891
-0.000859298
0.00101295
-0.000888128
0.00102791
-0.000916325
0.00104395
-0.000943672
0.0010611
-0.000970126
0.00107926
-0.00099579
0.00109824
-0.00102085
0.00111783
-0.00104553
0.00113787
-0.00107007
-0.00109476
0.00115831
-0.000322743
0.000218936
-0.000952649
0.000268241
-0.00161861
0.000100735
-0.00210227
-0.000106964
-0.00227814
-0.000296177
-0.00215902
-0.00043843
-0.00182109
-0.000521924
-0.00134537
-0.00054521
-0.000792542
-0.000510396
-0.000204112
-0.000418428
0.000388434
-0.00027474
0.000958383
-9.52582e-05
0.00148345
9.6061e-05
0.00194671
0.000276074
0.00233726
0.000428965
0.00264863
0.000547352
0.00288356
0.000629576
0.00303974
0.000687132
0.00312393
0.000716279
0.00314596
0.000718115
0.00311831
0.000693652
0.00305586
0.00064467
0.00297546
0.000574321
0.00289018
0.000491725
0.00281082
0.000402798
0.00274144
0.000315765
0.00266867
0.000245281
0.00257358
0.000202593
0.00243733
0.000191685
0.00224709
0.000206246
0.00200294
0.0002329
0.00171799
0.000256654
0.0014143
0.000265352
0.00111642
0.00025059
0.000839674
0.00021467
0.000594507
0.000157543
0.00038635
8.44392e-05
0.000218591
1.16194e-06
9.03567e-05
-8.25625e-05
-9.5158e-07
-0.000160807
-5.89286e-05
-0.000230779
-8.77073e-05
-0.000292003
-9.16825e-05
-0.000345159
-7.52837e-05
-0.000391228
-4.27727e-05
-0.000431115
1.91632e-06
-0.000465546
5.52805e-05
-0.000495103
0.000114304
-0.000520297
0.000176478
-0.000541631
0.000239802
-0.000559632
0.00030275
-0.000574862
0.000364228
-0.000587883
0.000423485
-0.000599218
0.000480014
-0.000609301
0.00053345
-0.000618455
0.000583476
-0.000626893
0.000629768
-0.000634761
0.000671979
-0.000642193
0.000709768
-0.000649383
0.00074285
-0.000656644
0.000771076
-0.000664433
0.000794497
-0.000673351
0.000813419
-0.000684081
0.000828415
-0.000697302
0.000840293
-0.00071357
0.000850022
-0.000733204
0.000858631
-0.000756205
0.000867089
-0.000782232
0.000876215
-0.000810651
0.000886611
-0.00084064
0.000898642
-0.00087133
0.000912455
-0.00090194
0.000928009
-0.000931879
0.000945131
-0.000960794
0.000963567
-0.000988562
0.000983029
-0.00101525
0.00100324
-0.00104106
0.00102397
-0.00106626
0.00104506
-0.00109116
-0.00111614
0.00106644
0.000390548
-0.000171612
0.000821359
-0.00016257
0.000919529
2.56575e-06
0.000662738
0.000149827
0.000153764
0.000212797
-0.000505658
0.000220993
-0.0012418
0.000214213
-0.00200893
0.000221924
-0.00277648
0.000257153
-0.00351821
0.0003233
-0.00420949
0.000416541
-0.00483066
0.000525916
-0.00537168
0.000637077
-0.00583287
0.000737264
-0.0062208
0.000816901
-0.00653951
0.000866062
-0.00681097
0.000901028
-0.00702193
0.0008981
-0.00716629
0.000860636
-0.00723616
0.000787988
-0.00722292
0.00068041
-0.0071195
0.000541249
-0.00692031
0.000375132
-0.00661566
0.000187071
-0.00620183
-1.10317e-05
-0.00569515
-0.000190909
-0.0051351
-0.000314769
-0.00457288
-0.000359626
-0.00404809
-0.000333111
-0.00357791
-0.000263933
-0.00315871
-0.000186303
-0.00277934
-0.000122712
-0.00242887
-8.51174e-05
-0.0021018
-7.6478e-05
-0.00179478
-9.23562e-05
-0.0015128
-0.000124431
-0.00125435
-0.000174012
-0.00102695
-0.000226244
-0.000829581
-0.000279927
-0.000658279
-0.000332109
-0.000507927
-0.000381131
-0.000373822
-0.000426109
-0.000252338
-0.000466642
-0.000140971
-0.000502595
-3.80964e-05
-0.00053399
5.7286e-05
-0.000560928
0.000145726
-0.000583543
0.000227447
-0.000602019
0.000302451
-0.000616635
0.00037064
-0.000627821
0.000431945
-0.000636166
0.00048643
-0.000642369
0.000534351
-0.00064714
0.000576144
-0.000651094
0.000612356
-0.000654667
0.000643563
-0.0006581
0.000670289
-0.000661487
0.000692973
-0.000664876
0.000711972
-0.000668382
0.000727611
-0.000672282
0.000740243
-0.000677065
0.000750311
-0.000683419
0.000758384
-0.000692154
0.000765147
-0.000704065
0.000771353
-0.000719776
0.000777742
-0.000739592
0.000784946
-0.000763408
0.000793423
-0.000790709
0.000803419
-0.000820647
0.000814979
-0.0008522
0.000827992
-0.000884344
0.00084226
-0.000916208
0.000857557
-0.000947176
0.000873677
-0.000976915
0.000890465
-0.00100535
0.000907821
-0.00103261
0.000925693
-0.00105893
0.00094406
-0.00108463
0.000962919
-0.00111002
-0.00113546
0.000982235
-3.05496e-05
-0.000141062
-0.000130583
-6.25369e-05
-0.000261897
0.00013388
-0.000478779
0.000366708
-0.000853823
0.000587842
-0.00134841
0.00071558
-0.00187082
0.000736626
-0.00232934
0.000680446
-0.00266096
0.000588768
-0.00283517
0.000497509
-0.00284827
0.000429644
-0.00271741
0.000395053
-0.00247533
0.000395004
-0.002162
0.000423931
-0.00181507
0.000469967
-0.00146895
0.000519942
-0.00111944
0.000551522
-0.000771635
0.000550293
-0.000427368
0.000516368
-8.96051e-05
0.000450225
0.000215735
0.00037507
0.000438268
0.000318717
0.000532135
0.000281265
0.000488949
0.000230257
0.000338569
0.000139348
0.000117143
3.05167e-05
-0.00013495
-6.26763e-05
-0.000381992
-0.000112584
-0.000591308
-0.000123795
-0.000736247
-0.000118994
-0.000805322
-0.000117228
-0.000800779
-0.000127254
-0.000737388
-0.000148508
-0.000627418
-0.000186448
-0.00048941
-0.000230365
-0.000336057
-0.000277785
-0.000182655
-0.000327414
-3.31262e-05
-0.000375773
0.00010766
-0.000420713
0.000236416
-0.000460866
0.000350932
-0.000495648
0.000449982
-0.000525158
0.000533323
-0.000549983
0.000601667
-0.000570939
0.000656464
-0.000588787
0.000699559
-0.000604023
0.000732822
-0.000616807
0.000757843
-0.00062704
0.000775782
-0.000634573
0.000787397
-0.000639437
0.000793209
-0.000641978
0.000793697
-0.000642857
0.000789461
-0.000642904
0.000781285
-0.000642919
0.000770124
-0.000643505
0.000757024
-0.000645
0.000743046
-0.000647509
0.000729196
-0.000651026
0.000716386
-0.000655573
0.000705419
-0.000661316
0.000696978
-0.000668624
0.000691608
-0.00067805
0.000689691
-0.000690237
0.000691403
-0.000705777
0.000696682
-0.000725055
0.000705216
-0.000748126
0.000716473
-0.000774665
0.000729769
-0.000804004
0.000744368
-0.000835247
0.000759595
-0.000867427
0.00077492
-0.000899668
0.000790007
-0.000931296
0.000804727
-0.000961895
0.000819115
-0.000991303
0.000833328
-0.00101956
0.000847574
-0.00104685
0.000862064
-0.00107342
0.000876973
-0.00109954
0.000892412
-0.00112546
-0.00115144
0.000908396
-0.000887224
0.000746163
-0.00219729
0.00124753
-0.00335602
0.00129261
-0.00428394
0.00129462
-0.00499309
0.00129699
-0.00548246
0.00120496
-0.00572547
0.000979631
-0.00569128
0.000646258
-0.00537927
0.000276754
-0.00482635
-5.54118e-05
-0.00408461
-0.000312098
-0.00320006
-0.000489494
-0.0022211
-0.000583951
-0.00119
-0.000607173
-0.00014523
-0.000574802
0.000884619
-0.000509908
0.00187275
-0.000436609
0.00279276
-0.000369716
0.00361708
-0.000307951
0.00429971
-0.000232404
0.00478809
-0.000113316
0.00504156
6.52469e-05
0.00504562
0.000277212
0.00481247
0.000463405
0.00437596
0.000575854
0.00379978
0.000606703
0.00316026
0.000576843
0.00253653
0.000511144
0.00198559
0.000427143
0.00153311