/*--------------------------------*- C++ -*----------------------------------*\
| =========                 |                                                 |
| \\      /  F ield         | OpenFOAM: The Open Source CFD Toolbox           |
|  \\    /   O peration     | Version:  2012                                  |
|   \\  /    A nd           | Website:  www.openfoam.com                      |
|    \\/     M anipulation  |                                                 |
\*---------------------------------------------------------------------------*/
FoamFile
{
    version     2.0;
    format      ascii;
    class       surfaceScalarField;
    location    "1.5";
    object      phi;
}
// * * * * * * * * * * * * * * * * * * * * * * * * * * * * * * * * * * * * * //

dimensions      [0 3 -1 0 0 0 0];
oriented        oriented;


internalField   nonuniform List<scalar> 
84340
(
-0.000328468
0.0002375
9.09682e-05
-0.00100005
0.000388023
0.000283556
-0.00174322
0.000276455
0.000466722
-0.00244747
8.40381e-05
0.000620206
-0.00306782
-6.28967e-05
0.000683252
-0.00356809
-0.000106923
0.000607191
-0.0039336
-5.37566e-05
0.000419262
-0.0041664
3.84698e-05
0.00019433
-0.00427651
0.000112122
-2.01122e-06
-0.00427606
0.000145867
-0.00014631
-0.00417519
0.000144202
-0.000245072
-0.00398781
0.000123882
-0.000311265
-0.00373323
9.89518e-05
-0.000353535
-0.00343391
7.81955e-05
-0.00037751
-0.00310966
6.69915e-05
-0.00039124
-0.00278295
6.81117e-05
-0.00039483
-0.00247246
8.21298e-05
-0.000392618
-0.00219083
0.000104974
-0.000386602
-0.00194555
0.000131721
-0.000376997
-0.00174515
0.000162942
-0.000363351
-0.00159359
0.000192367
-0.000343926
-0.00149275
0.000216942
-0.000317779
-0.00144316
0.000235107
-0.000284695
-0.00144662
0.000249336
-0.000245881
-0.00149731
0.000255762
-0.00020507
-0.00158288
0.000254319
-0.000168754
-0.00168382
0.000244899
-0.000143958
-0.00177769
0.000227941
-0.000134072
-0.00184526
0.000203891
-0.000136315
-0.00187579
0.000174372
-0.000143849
-0.00186761
0.000141661
-0.000149841
-0.00182538
0.00010804
-0.000150268
-0.0017567
7.54067e-05
-0.00014408
-0.00166981
4.5101e-05
-0.000131991
-0.00157162
1.72794e-05
-0.000115469
-0.00146987
-5.61043e-06
-9.61458e-05
-0.00137029
-2.39432e-05
-7.5638e-05
-0.00127488
-3.99554e-05
-5.54512e-05
-0.00118501
-5.28188e-05
-3.70549e-05
-0.00110035
-6.25674e-05
-2.20891e-05
-0.00101869
-6.87834e-05
-1.2876e-05
-0.000940456
-7.09418e-05
-7.29388e-06
-0.000864632
-6.9614e-05
-6.20997e-06
-0.00079094
-6.46229e-05
-9.06981e-06
-0.000719228
-5.72684e-05
-1.44441e-05
-0.000650617
-4.80571e-05
-2.05538e-05
-0.000585069
-3.77962e-05
-2.77517e-05
-0.000523761
-2.71673e-05
-3.41403e-05
-0.000467868
-1.75105e-05
-3.83821e-05
-0.000417927
-1.02218e-05
-3.9719e-05
-0.000374348
-6.26074e-06
-3.73182e-05
-0.0003377
-6.06848e-06
-3.05794e-05
-0.00030688
-1.16271e-05
-1.9193e-05
-0.00028062
-2.32743e-05
-2.98559e-06
-0.00025614
-4.06619e-05
1.61829e-05
-0.000231814
-6.22515e-05
3.79249e-05
-0.000206098
-8.61262e-05
6.04109e-05
-0.000177621
-0.000110146
8.16691e-05
-0.000145203
-0.000132475
0.000100057
-0.000107586
-0.000151882
0.000114266
-6.3525e-05
-0.000167827
0.000123765
-1.17092e-05
-0.000180299
0.000128483
4.91068e-05
-0.000189566
0.00012875
0.000119969
-0.000195975
0.000125113
0.000201531
-0.000199837
0.000118275
0.000294013
-0.000201407
0.000108925
0.000397164
-0.000200899
9.77481e-05
0.000510308
-0.00019852
8.53762e-05
0.000632408
-0.000194509
7.24093e-05
0.00076211
-0.00018915
5.9448e-05
0.000897902
-0.00018278
4.69865e-05
0.00103811
-0.00017579
3.55796e-05
0.00118103
-0.000168617
2.57029e-05
0.00132499
-0.00016171
1.77407e-05
0.00146876
-0.000155529
1.17642e-05
0.0016105
-0.000150568
8.83071e-06
0.00174987
-0.000147241
7.86224e-06
0.00188522
-0.000146066
1.07176e-05
0.0020148
-0.000147856
1.82764e-05
-0.0001493
3.48023e-05
0.0021293
0.00026917
-3.16693e-05
0.000559195
9.79969e-05
0.000623472
0.000212178
0.000449319
0.000258191
0.000120769
0.000265654
-0.000232409
0.000246254
-0.000505882
0.000219717
-0.000665695
0.000198282
-0.000738031
0.000184458
-0.00076792
0.000175756
-0.000792265
0.000168547
-0.00082971
0.000161328
-0.0008861
0.000155342
-0.000961184
0.000153279
-0.00105232
0.000158125
-0.00115741
0.000173207
-0.0012825
0.000207214
-0.00141526
0.000237734
-0.00155603
0.000272491
-0.0016984
0.000305314
-0.0018387
0.000332669
-0.00197378
0.000352023
-0.00209936
0.000360686
-0.00220568
0.00035566
-0.00228423
0.00033431
-0.00232477
0.000294862
-0.00231774
0.000237864
-0.00225696
0.000167164
-0.00214191
8.8838e-05
-0.00197767
1.01304e-05
-0.00177351
-6.24914e-05
-0.00154036
-0.00012511
-0.00129021
-0.000174747
-0.00103505
-0.00021006
-0.000786683
-0.000231086
-0.00055337
-0.000238923
-0.000341726
-0.000235588
-0.000158072
-0.000223609
-5.30369e-06
-0.000205586
0.000116017
-0.000183887
0.00020761
-0.000160377
0.000272999
-0.000136331
0.0003159
-0.000112515
0.000340403
-8.91252e-05
0.000349427
-6.62924e-05
0.000345515
-4.41445e-05
0.000330337
-2.26179e-05
0.000305986
-2.81626e-06
0.000277004
1.1471e-05
0.000244901
2.18808e-05
0.000210152
2.84886e-05
0.000174763
2.93202e-05
0.000139697
2.34382e-05
0.000105779
1.06441e-05
7.32501e-05
-8.13324e-06
4.40775e-05
-3.30789e-05
1.87979e-05
-6.08468e-05
-1.14074e-06
-9.02081e-05
-1.3894e-05
-0.000119722
-1.74266e-05
-0.000148349
-9.81085e-06
-0.000175442
1.04943e-05
-0.000200604
4.44734e-05
-0.000223546
9.25058e-05
-0.000244007
0.000154418
-0.000261749
0.000229582
-0.00027657
0.000317024
-0.000288341
0.000415519
-0.000297015
0.000523652
-0.000302642
0.000639868
-0.000305366
0.000762519
-0.00030543
0.000889901
-0.000303172
0.00102031
-0.000299025
0.0011521
-0.000293497
0.00128373
-0.000287164
0.0014138
-0.000280639
0.00154111
-0.000274551
0.00166454
-0.000269496
0.00178302
-0.000266331
-0.000261457
0.00189517
2.97811e-05
-6.14504e-05
0.00037273
-0.000244952
0.00101359
-0.000428678
0.00175294
-0.000481164
0.00243094
-0.000412344
0.00297712
-0.000299931
0.00339146
-0.00019462
0.00369794
-0.000108191
0.003916
-3.36047e-05
0.00405498
3.67772e-05
0.00411833
0.000105195
0.00410877
0.000170889
0.00403125
0.000232855
0.00388429
0.000300248
0.00367428
0.00036813
0.00341248
0.00043501
0.00312409
0.0004956
0.0028187
0.000543128
0.00251908
0.000572103
0.00224472
0.000579681
0.00201162
0.000565763
0.00183186
0.000531787
0.0017126
0.000479941
0.00165523
0.000413033
0.00165496
0.000334584
0.00170137
0.000248446
0.00178084
0.000158398
0.00187528
7.27243e-05
0.00196478
-6.67245e-07
0.00203159
-5.66771e-05
0.00206957
-0.00010047
0.002076
-0.000131537
0.00205109
-0.00014984
0.00199822
-0.000157195
0.00192297
-0.000155834
0.00183125
-0.000147206
0.00172828
-0.000132616
0.00161819
-0.000113512
0.00150324
-9.06439e-05
0.0013841
-6.47449e-05
0.00126142
-3.76966e-05
0.00113565
-1.05562e-05
0.0010092
1.39262e-05
0.000878835
4.12435e-05
0.000748157
6.43852e-05
0.00061966
8.4353e-05
0.000496379
0.000100663
0.00038098
0.000112583
0.00027327
0.000119181
0.000175437
0.000119713
9.0321e-05
0.000113605
1.91109e-05
0.00010053
-3.80156e-05
8.05647e-05
-8.15877e-05
5.42162e-05
-0.000112101
2.238e-05
-0.000131297
-1.38835e-05
-0.000139219
-5.29243e-05
-0.000135638
-9.37891e-05
-0.000120297
-0.000135063
-9.29921e-05
-0.000175654
-5.38484e-05
-0.000214586
-3.42353e-06
-0.000251028
5.73614e-05
-0.00028433
0.000127386
-0.000314032
0.000205502
-0.000339865
0.000290647
-0.000361715
0.000381887
-0.000379581
0.0004784
-0.000393528
0.000579424
-0.000403666
0.000684197
-0.00041014
0.000791917
-0.000413151
0.000901726
-0.000412982
0.00101273
-0.000410027
0.00112404
-0.000404812
0.00123488
-0.000397997
0.00134461
-0.000390371
0.00145289
-0.000382827
0.00155972
-0.000376331
0.00166546
-0.000372073
-0.000367879
0.00177188
-6.66299e-05
5.17954e-06
-0.000122015
-0.000189567
-0.000144201
-0.000406492
-0.000158098
-0.000467267
-0.000195045
-0.000375398
-0.000287368
-0.000207608
-0.000456123
-2.58648e-05
-0.000705359
0.000141045
-0.00102096
0.000281999
-0.00137349
0.000389306
-0.00172751
0.000459217
-0.00204822
0.0004916
-0.00231552
0.000500152
-0.00251607
0.000500797
-0.00264903
0.000501093
-0.00271581
0.000501791
-0.0027195
0.000499284
-0.00266616
0.000489788
-0.00256477
0.000470718
-0.0024283
0.000443206
-0.00227072
0.000408183
-0.00210516
0.00036623
-0.00194125
0.000316028
-0.00178692
0.000258702
-0.00164789
0.000195557
-0.00152887
0.000129429
-0.00143523
6.47522e-05
-0.00136499
2.48231e-06
-0.00131735
-4.83079e-05
-0.00128516
-8.88637e-05
-0.00126494
-0.000120689
-0.00125132
-0.000145158
-0.0012378
-0.000163356
-0.00121923
-0.000175764
-0.00119284
-0.000182225
-0.00115778
-0.000182269
-0.00111495
-0.00017545
-0.00106674
-0.000161721
-0.00101578
-0.000141602
-0.000964384
-0.00011614
-0.000915909
-8.61712e-05
-0.000870421
-5.60442e-05
-0.000829503
-2.69915e-05
-0.000788385
1.25371e-07
-0.000748821
2.48213e-05
-0.000710436
4.59674e-05
-0.000672784
6.30103e-05
-0.000635659
7.54585e-05
-0.000599105
8.26276e-05
-0.000563027
8.36342e-05
-0.000527034
7.76123e-05
-0.000490456
6.39526e-05
-0.000452354
4.24629e-05
-0.000411563
1.34249e-05
-0.000366769
-2.24132e-05
-0.000316704
-6.39484e-05
-0.000260046
-0.000109582
-0.000196144
-0.000157691
-0.000124788
-0.000206418
-4.64949e-05
-0.000253947
3.75837e-05
-0.000298664
0.000125883
-0.000339328
0.000216714
-0.000375161
0.000308554
-0.000405872
0.000400262
-0.000431572
0.000491182
-0.000452636
0.00058114
-0.000469538
0.000670338
-0.000482726
0.000759211
-0.000492539
0.000848273
-0.000499202
0.000937987
-0.000502865
0.00102869
-0.000503684
0.00112056
-0.000501898
0.00121366
-0.000497908
0.00130798
-0.000492319
0.00140356
-0.000485953
0.00150058
-0.000479846
0.00159945
-0.000475207
0.00170096
-0.000473582
-0.000473199
0.00180628
0.000180994
-0.000175814
0.000352004
-0.000360577
0.000331521
-0.000386009
0.000192959
-0.000328705
5.45801e-05
-0.00023702
-4.23374e-05
-0.000110691
-9.87585e-05
3.05563e-05
-0.000118251
0.000160538
-9.34766e-05
0.000257224
-2.17518e-05
0.000317581
9.43319e-05
0.000343134
0.000236226
0.000349706
0.000379219
0.000357159
0.000499143
0.000380873
0.000575784
0.000424452
0.000594199
0.000483377
0.000543849
0.000549634
0.00041823
0.000615407
0.000212845
0.000676104
-7.2413e-05
0.000728463
-0.000433068
0.000768838
-0.000858254
0.000791416
-0.00132825
0.000786026
-0.00180657
0.000737021
-0.00224067
0.000629653
-0.00257363
0.000462393
-0.00276659
0.000257712
-0.00281865
5.45396e-05
-0.00275372
-0.000113236
-0.00261001
-0.000232571
-0.00241907
-0.000311634
-0.00220817
-0.000356051
-0.00199381
-0.000377724
-0.00178563
-0.000383946
-0.0015896
-0.000378248
-0.00140922
-0.000362654
-0.00124613
-0.000338538
-0.00110085
-0.000307006
-0.000973251
-0.000269198
-0.0008628
-0.000226591
-0.000767431
-0.00018154
-0.000685952
-0.000137523
-0.000622619
-9.0325e-05
-0.000580596
-4.18972e-05
-0.000553629
-2.14621e-06
-0.000537334
2.96731e-05
-0.000527695
5.33713e-05
-0.000520963
6.87256e-05
-0.000513767
7.54316e-05
-0.000503238
7.31044e-05
-0.000487058
6.14332e-05
-0.000463384
4.02781e-05
-0.00043074
9.81864e-06
-0.000387958
-2.93573e-05
-0.000334258
-7.61135e-05
-0.000269107
-0.000129099
-0.000192572
-0.000186118
-0.000105539
-0.000244724
-9.7054e-06
-0.000302252
9.24626e-05
-0.000356114
0.000197948
-0.000404149
0.000303543
-0.000444923
0.000406293
-0.000477911
0.000503899
-0.000503478
0.000594993
-0.000522667
0.000679228
-0.000536871
0.000757179
-0.000547489
0.000830117
-0.000555663
0.000899716
-0.000562138
0.000967781
-0.000567267
0.00103602
-0.000571108
0.00110592
-0.000573585
0.00117868
-0.000574653
0.0012552
-0.000574427
0.00133616
-0.000573279
0.00142207
-0.000571861
0.00151332
-0.000571103
0.00161026
-0.000572143
0.00171311
-0.000576433
-0.0005822
0.00182211
-0.000253413
7.75992e-05
-0.000966833
0.000352843
-0.0021159
0.000763062
-0.00356114
0.00111653
-0.00507888
0.00128072
-0.00646498
0.00127541
-0.00757582
0.00114139
-0.00834668
0.000931402
-0.00879016
0.000700708
-0.00896019
0.000487602
-0.00892002
0.00030297
-0.00872401
0.000153699
-0.00839818
3.1327e-05
-0.00794961
-6.77014e-05
-0.00737912
-0.000146039
-0.00669168
-0.000204062
-0.00590319
-0.000238855
-0.00504164
-0.00024614
-0.0041457
-0.000219836
-0.00325937
-0.000157873
-0.00242667
-6.38588e-05
-0.00168752
5.2268e-05
-0.00107667
0.000175171
-0.00062364
0.000283993
-0.000332296
0.00033831
-0.000188432
0.000318529
-0.000163199
0.000232479
-0.000221383
0.000112724
-0.000329091
-5.52808e-06
-0.000458756
-0.000102905
-0.000590649
-0.000179741
-0.000716295
-0.000230405
-0.000827966
-0.000266053
-0.000925938
-0.000285973
-0.00100284
-0.00030135
-0.00105167
-0.000313823
-0.00107024
-0.000319961
-0.00105903
-0.000318218
-0.00102073
-0.000307502
-0.000960056
-0.000287263
-0.000883843
-0.000257753
-0.000801364
-0.000220002
-0.000715832
-0.000175858
-0.000629663
-0.000128066
-0.000553613
-7.8196e-05
-0.000488079
-3.58611e-05
-0.000431958
-2.74912e-06
-0.000385767
2.25352e-05
-0.000347074
3.67382e-05
-0.000312956
3.89862e-05
-0.000280427
2.89042e-05
-0.000246655
6.50612e-06
-0.000208624
-2.82121e-05
-0.000164755
-7.32266e-05
-0.000112586
-0.000128282
-5.06502e-05
-0.000191035
2.17777e-05
-0.000258545
0.000104295
-0.000327241
0.000195253
-0.00039321
0.000291833
-0.000452694
0.000390375
-0.00050269
0.000486952
-0.0005415
0.000578058
-0.000569017
0.000661206
-0.000586625
0.000735276
-0.000596736
0.000800538
-0.000602132
0.000858381
-0.000605332
0.000910891
-0.000608174
0.000960415
-0.000611663
0.00100921
-0.000616063
0.00105924
-0.000621133
0.00111207
-0.000626416
0.00116892
-0.000631505
0.00123073
-0.000636236
0.00129824
-0.000640794
0.00137212
-0.000645737
0.00145295
-0.000651935
0.00154126
-0.000660453
0.00163733
-0.000672501
-0.000686927
0.00174206
5.00448e-05
2.75545e-05
1.1522e-05
0.000391366
-6.89178e-05
0.000843502
-0.0001298
0.00117742
-0.000188183
0.0013391
-0.00023893
0.00132616
-0.000276743
0.0011792
-0.000306444
0.000961103
-0.000338608
0.000732872
-0.000381132
0.000530125
-0.000436046
0.000357885
-0.00048879
0.000206442
-0.000524786
6.73231e-05
-0.000530187
-6.23002e-05
-0.000495307
-0.000180919
-0.00041522
-0.000284148
-0.000290672
-0.000363404
-0.000131432
-0.00040538
4.57662e-05
-0.000397034
0.000230626
-0.000342732
0.00042073
-0.000253963
0.000625028
-0.00015203
0.000856907
-5.67075e-05
0.00110239
3.85039e-05
0.00130549
0.000135217
0.0013961
0.00022792
0.00133219
0.000296389
0.00112217
0.000322745
0.000810735
0.000305902
0.000450527
0.000257303
7.95614e-05
0.000191224
-0.000256876
0.000106033
-0.000533475
1.05464e-05
-0.000739846
-7.96018e-05
-0.000880534
-0.000160662
-0.000961587
-0.00023277
-0.000987666
-0.000293881
-0.000964297
-0.000341586
-0.000898165
-0.000373633
-0.00079704
-0.000388388
-0.000669561
-0.000385232
-0.000524763
-0.0003648
-0.000371552
-0.000329068
-0.000218386
-0.000281232
-7.10451e-05
-0.000225537
5.98817e-05
-0.000166788
0.000168041
-0.000110909
0.000251577
-6.10011e-05
0.000312307
-2.39919e-05
0.000352293
-1.00054e-06
0.000376375
4.82224e-06
0.000390125
-7.24418e-06
0.00039975
-3.78382e-05
0.000411024
-8.45007e-05
0.000427766
-0.000145024
0.000452912
-0.000216181
0.000488014
-0.000293648
0.000533197
-0.000372424
0.000587143
-0.000447156
0.000647189
-0.00051274
0.00070974
-0.00056524
0.000770992
-0.000602752
0.000827802
-0.000625827
0.000878369
-0.000637192
0.00092249
-0.000640858
0.000961332
-0.000640974
0.000996874
-0.000640875
0.00103129
-0.000642586
0.00106644
-0.000646819
0.00110368
-0.000653299
0.00114376
-0.000661215
0.001187
-0.000669651
0.00123341
-0.000677925
0.00128298
-0.0006858
0.00133577
-0.000693583
0.00139212
-0.000702093
0.00145271
-0.000712527
0.00151849
-0.000726225
0.00159042
-0.000744432
-0.000766997
0.00167049
-0.000321987
0.000349541
-0.000461923
0.000531301
-0.000122116
0.000503695
0.000577278
0.000478021
0.00142528
0.000491101
0.00224011
0.000511321
0.00288804
0.00053128
0.00330262
0.000546522
0.00348441
0.000551085
0.00347663
0.000537904
0.00333577
0.000498742
0.00311768
0.000424537
0.00287704
0.000307957
0.00266944
0.000145302
0.00254966
-6.11419e-05
0.00256583
-0.000300311
0.002742
-0.000539577
0.00304642
-0.000709799
0.00339735
-0.000747964
0.00367285
-0.00061823
0.0037678
-0.000348915
0.0036435
-2.77343e-05
0.0033341
0.000252696
0.00292128
0.000451324
0.00247887
0.000577627
0.00205372
0.000653067
0.00166672
0.000683396
0.00132561
0.000663849
0.00103592
0.00059559
0.000803114
0.000490114
0.000625663
0.000368675
0.000501803
0.000229894
0.000431423
8.0926e-05
0.000404895
-5.30736e-05
0.000419289
-0.000175056
0.000469483
-0.000282965
0.000549408
-0.000373807
0.000652671
-0.000444848
0.000772681
-0.000493644
0.00090288
-0.000518588
0.00103696
-0.00051931
0.00116933
-0.000497169
0.00129534
-0.00045508
0.00141138
-0.00039727
0.00151443
-0.000328592
0.00160101
-0.00025336
0.00167031
-0.000180216
0.00172037
-0.000111055
0.00173901
-4.26339e-05
0.00173335
4.66341e-06
0.00170685
3.13167e-05
0.00166479
3.48175e-05
0.00161287
1.40802e-05
0.0015593
-3.0931e-05
0.00150501
-9.0732e-05
0.00145713
-0.000168304
0.00141851
-0.000255027
0.00139017
-0.000344081
0.00137127
-0.00042826
0.00135956
-0.000501033
0.00135216
-0.000557835
0.0013465
-0.000597098
0.00134117
-0.000620496
0.00133616
-0.000632184
0.00133264
-0.000637332
0.00133226
-0.000640591
0.00133647
-0.000645085
0.00134604
-0.000652162
0.00136096
-0.000661733
0.00138052
-0.00067286
0.00140363
-0.000684327
0.00142905
-0.00069507
0.00145559
-0.000704468
0.00148232
-0.00071253
0.00150873
-0.000719995
0.00153494
-0.0007283
0.00156179
-0.000739377
0.00159084
-0.000755272
0.00162408
-0.00077768
-0.000807112
0.0016642
0.000367431
-1.78897e-05
0.000901185
-2.4524e-06
0.00135204
5.28428e-05
0.00173902
9.10355e-05
0.00209122
0.000138902
0.00237743
0.00022511
0.00254088
0.000367836
0.00252278
0.000564625
0.00227803
0.000795828
0.00178794
0.001028
0.00106951
0.00121717
0.000181248
0.0013128
-0.000787121
0.00127633
-0.00172873
0.00108692
-0.0025465
0.00075662
-0.00317722
0.00033041
-0.00358638
-0.000130418
-0.00376171
-0.000534463
-0.00373187
-0.000777811
-0.00355265
-0.00079745
-0.00328693
-0.000614627
-0.0029881
-0.000326564
-0.00268766
-4.77508e-05
-0.00238663
0.000150292
-0.00205795
0.000248949
-0.00167526
0.000270375
-0.00123467
0.000242814
-0.00075614
0.000185315
-0.000268959
0.000108409
0.000203105
1.80495e-05
0.000646651
-7.48709e-05
0.00102584
-0.000149293
0.00132741
-0.00022065
0.001559
-0.000284658
0.00172385
-0.000339908
0.00182753
-0.000386648
0.00187874
-0.000425016
0.00188812
-0.000454232
0.00186691
-0.000472432
0.00182669
-0.000478364
0.00177837
-0.00047099
0.00173175
-0.000450547
0.00169488
-0.000418215
0.00167352
-0.00037591
0.00166993
-0.000324998
0.00168503
-0.000268462
0.00171575
-0.000210935
0.00175768
-0.00015299
0.00181087
-9.58248e-05
0.00187006
-5.45205e-05
0.0019269
-2.55284e-05
0.00197662
-1.48994e-05
0.00201315
-2.24475e-05
0.0020414
-5.91804e-05
0.00206385
-0.000113182
0.00207741
-0.000181867
0.00208194
-0.000259561
0.00207666
-0.000338796
0.00206048
-0.000412088
0.00203301
-0.000473563
0.00199553
-0.000520347
0.00195143
-0.000553003
0.00190569
-0.000574752
0.00186343
-0.00058993
0.00182856
-0.000602455
0.00180288
-0.000614913
0.00178616
-0.000628368
0.0017767
-0.000642706
0.00177214
-0.000657169
0.0017701
-0.00067082
0.00176861
-0.000682833
0.00176619
-0.00069266
0.00176188
-0.000700156
0.00175512
-0.000705767
0.00174586
-0.000710734
0.00173473
-0.000717176
0.00172326
-0.0007279
0.00171385
-0.000745861
0.00170957
-0.000773403
-0.000811239
0.0017137
0.000133697
-0.000151587
0.000424105
-0.00029286
0.000783272
-0.000306324
0.00123673
-0.000362421
0.00174842
-0.000372793
0.00217995
-0.000206421
0.00240913
0.000138656
0.0023649
0.000608858
0.00202377
0.00113696
0.00139269
0.00165907
0.000490186
0.00211967
-0.000645923
0.00244891
-0.00188302
0.00251342
-0.0029599
0.0021638
-0.00364954
0.00144626
-0.00394717
0.000628041
-0.00400103
-7.65602e-05
-0.00391418
-0.000621312
-0.00369189
-0.0010001
-0.0032829
-0.00120644
-0.00264131
-0.00125621
-0.00177515
-0.00119273
-0.000754959
-0.00106794
0.000318054
-0.000922721
0.00135035
-0.000783348
0.002281
-0.000660269
0.00308093
-0.000557116
0.00374185
-0.000475606
0.00426615
-0.000415891
0.00466006
-0.00037586
0.00493561
-0.000350422
0.00512097
-0.000334655
0.00523004
-0.000329716
0.00526919
-0.000323815
0.00524718
-0.000317898
0.00517243
-0.000311889
0.00505183
-0.000304421
0.00489084
-0.00029324
0.00469518
-0.000276777
0.00446891
-0.000252087
0.00421823
-0.000220308
0.00395135
-0.000183671
0.00367873
-0.000145593
0.00341179
-0.000108975
0.00316232
-7.55194e-05
0.00293892
-4.50707e-05
0.00275043
-2.24409e-05
0.00259941
-1.96524e-06
0.00248953
1.40554e-05
0.00241171
2.3296e-05
0.00236325
2.29361e-05
0.00233828
1.00644e-05
0.00233318
-1.73442e-05
0.00233297
-5.89719e-05
0.00233327
-0.000113485
0.00232835
-0.000176939
0.0023134
-0.00024461
0.00228611
-0.000311508
0.00224741
-0.000373391
0.00220148
-0.000427633
0.00215467
-0.000473531
0.00211357
-0.000511905
0.00208308
-0.00054426
0.00206512
-0.000571976
0.00205856
-0.000595893
0.00205997
-0.000616318
0.00206488
-0.000633279
0.00206897
-0.000646797
0.00206885
-0.000657045
0.00206239
-0.000664361
0.00204872
-0.000669161
0.00202791
-0.000671858
0.00200069
-0.000672934
0.00196814
-0.000673215
0.00193168
-0.000674274
0.00189321
-0.000678714
0.00185532
-0.00069001
0.00182124
-0.000711774
0.00179448
-0.000746642
-0.000794808
0.00177805
0.000169014
-0.000320601
0.000635729
-0.000759576
0.00148452
-0.00115512
0.00276896
-0.00164685
0.00432422
-0.00192806
0.00584776
-0.00172996
0.00715948
-0.00117307
0.00826735
-0.000499016
0.0092602
0.000144117
0.0101991
0.00072022
0.0110749
0.00124383
0.0118608
0.00166305
0.0125396
0.00183456
0.013137
0.00156646
0.0136109
0.000972343
0.0138455
0.000393443
0.0137554
1.35072e-05
0.0133438
-0.000209694
0.0126826
-0.00033896
0.011877
-0.000400833
0.0110264
-0.000405625
0.0102016
-0.000367896
0.00943431
-0.000300635
0.00872922
-0.00021764
0.00807704
-0.000131163
0.00746821
-5.14377e-05
0.00689642
1.46663e-05
0.00635778
6.30436e-05
0.00585071
9.11734e-05
0.00537696
9.78903e-05
0.00494267
8.38733e-05
0.00455656
5.14455e-05
0.0042214
5.45002e-06
0.00394205
-4.44719e-05
0.00371706
-9.2902e-05
0.00354312
-0.00013795
0.00340819
-0.000169489
0.00329665
-0.000181702
0.00319323
-0.00017336
0.00308903
-0.000147883
0.00298131
-0.000112588
0.00286039
-6.2751e-05
0.0027181
-3.30416e-06
0.00256199
4.71307e-05
0.00240008
8.63931e-05
0.00224261
0.000112402
0.00209576
0.000124401
0.00197065
0.00012315
0.00187475
0.00010995
0.00181183
8.62167e-05
0.00178213
5.26353e-05
0.00178423
7.96669e-06
0.00180733
-4.0444e-05
0.00184638
-9.80235e-05
0.00189326
-0.000160361
0.00194109
-0.000224765
0.00198505
-0.000288578
0.00202312
-0.000349576
0.00205592
-0.00040619
0.00208574
-0.000457455
0.002115
-0.00050279
0.00214488
-0.000541789
0.00217477
-0.000574143
0.00220248
-0.000599688
0.00222509
-0.000618504
0.00223976
-0.000630991
0.00224437
-0.000637889
0.00223779
-0.000640222
0.00221992
-0.000639173
0.00219148
-0.000635914
0.00215376
-0.000631444
0.00210843
-0.000626524
0.00205734
-0.000621849
0.00200258
-0.000618454
0.00194655
-0.000618241
0.0018921
-0.000624265
0.00184251
-0.000640418
0.00180111
-0.000670378
0.00177066
-0.000716197
-0.000776574
0.00175243
-0.000443747
0.000123146
-0.00139594
0.000192619
-0.00242878
-0.000122279
-0.00334012
-0.00073551
-0.00398532
-0.00128286
-0.00404333
-0.00167195
-0.00330604
-0.00191035
-0.0020044
-0.00180066
-0.000632788
-0.00122749
0.000602381
-0.000514949
0.00174328
0.000102931
0.00280865
0.000597677
0.00375413
0.000889088
0.0043852
0.000935387
0.00452384
0.000833703
0.00418952
0.000727765
0.00354082
0.000662204
0.00272635
0.000604782
0.00184376
0.000543622
0.000966808
0.000476124
0.000148623
0.000412559
-0.000575012
0.00035574
-0.00118096
0.000305313
-0.00166112
0.00026252
-0.00201795
0.000225663
-0.00225712
0.000187737
-0.00238336
0.000140908
-0.00240232
8.20001e-05
-0.00231315
1.99813e-06
-0.00212753
-8.77271e-05
-0.00185954
-0.000184111
-0.00152604
-0.000282057
-0.00114817
-0.000372426
-0.000749557
-0.000443082
-0.00036215
-0.000480308
-2.33445e-05
-0.000476756
0.000240402
-0.000433236
0.000414378
-0.000355678
0.000497871
-0.000256853
0.000503972
-0.000153984
0.000456536
-6.51517e-05
0.000389622
4.16314e-06
0.000333233
5.30845e-05
0.000294713
8.56517e-05
0.000280849
0.000100258
0.000296908
9.63422e-05
0.000340615
8.06946e-05
0.000410459
5.33052e-05
0.000507029
1.33797e-05
0.000623111
-2.98655e-05
0.000754199
-7.84525e-05
0.000893185
-0.00013102
0.0010392
-0.000186461
0.00118463
-0.00024345
0.00132461
-0.000300341
0.00145539
-0.000355548
0.0015745
-0.000407687
0.00168054
-0.000455619
0.00177281
-0.000498453
0.00185087
-0.000535519
0.00191443
-0.000566347
0.00196331
-0.000590675
0.00199764
-0.000608471
0.00201791
-0.000619956
0.00202501
-0.000625604
0.00202015
-0.000626135
0.00200475
-0.000622484
0.00198026
-0.000615732
0.00194809
-0.000607005
0.00190954
-0.000597362
0.00186582
-0.000587721
0.00181823
-0.000578943
0.00176848
-0.000572099
0.00171893
-0.000568903
0.00167274
-0.000572044
0.00163357
-0.000585101
0.00160495
-0.000611794
0.00158926
-0.000654687
0.00158695
-0.000713888
-0.000785956
0.00159633
-0.000788149
0.000911296
-0.00202549
0.00142996
-0.00333822
0.00119046
-0.00473725
0.000663518
-0.00601291
-7.20318e-06
-0.00685078
-0.000834081
-0.00718944
-0.00157169
-0.00726944
-0.00172066
-0.00723742
-0.00125952
-0.00707058
-0.00068179
-0.00664073
-0.000326914
-0.00585649
-0.000186561
-0.0048077
-0.000159706
-0.00366851
-0.000203802
-0.00254472
-0.000290089
-0.00142251
-0.000394447
-0.000268963
-0.00049134
0.000897587
-0.000561769
0.00203504
-0.000593834
0.00309336
-0.000582195
0.00402968
-0.000523757
0.004806
-0.000420582
0.00538695
-0.000275633
0.00575241
-0.000102947
0.00591919
5.88884e-05
0.00595586
0.000151066
0.00594638
0.000150384
0.00592483
0.000103551
0.00586129
6.5545e-05
0.00572555
4.80056e-05
0.00551709
2.4357e-05
0.00522856
6.46873e-06
0.00486194
-5.80542e-06
0.00443064
-1.17814e-05
0.00394467
5.66364e-06
0.00343016
3.77532e-05
0.00291214
8.47861e-05
0.00241119
0.000145266
0.00194179
0.000212552
0.00151815
0.000269651
0.00114519
0.000307815
0.000829993
0.000319356
0.000579364
0.000303713
0.000398276
0.000266739
0.000280025
0.000218509
0.000218331
0.000158036
0.000208986
9.00396e-05
0.000242679
1.96122e-05
0.00030779
-5.17311e-05
0.000399842
-0.000121918
0.000510993
-0.000189604
0.000633683
-0.000253709
0.000760699
-0.000313477
0.000885505
-0.000368256
0.00100277
-0.000417606
0.00110848
-0.000461259
0.00119995
-0.000499159
0.00127577
-0.000531435
0.00133566
-0.00055834
0.0013803
-0.000580167
0.00141113
-0.000597177
0.00143001
-0.000609547
0.00143892
-0.000617387
0.00143977
-0.000620808
0.0014342
-0.000620025
0.0014235
-0.000615444
0.00140873
-0.00060771
0.00139068
-0.000597679
0.00137003
-0.000586355
0.00134749
-0.000574826
0.00132405
-0.000564285
0.00130128
-0.000556171
0.00128157
-0.00055239
0.00126814
-0.00055547
0.00126455
-0.000568451
0.00127378
-0.000594333
0.00129713
-0.000635142
0.0013334
-0.000690961
0.00137888
-0.00075937
-0.000835475
0.0014284
0.00178492
-0.000873621
0.0048345
-0.00161963
0.0079218
-0.00189685
0.0106719
-0.00208661
0.0129683
-0.00230361
0.0145834
-0.00244916
0.0153367
-0.00232498
0.0154384
-0.00182239
0.0153174
-0.0011385
0.0152128
-0.00057721
0.0151394
-0.000253519
0.0150512
-9.83098e-05
0.0149135
-2.20408e-05
0.0146759
3.38043e-05
0.0142968
8.90444e-05
0.0137509
0.000151441
0.0130301
0.000229493
0.0121365
0.00033182
0.011077
0.000465689
0.00985532
0.000639436
0.00846774
0.000863829
0.0068997
0.00114745
0.00512728
0.00149679
0.00314019
0.00188414
0.00109126
0.00210782
-0.000602998
0.00184533
-0.00159061
0.00113799
-0.00194206
0.000455009
-0.00197733
0.000100815
-0.00193126
1.93468e-06
-0.00192381
1.69071e-05
-0.00199339
7.60415e-05
-0.00214535
0.000146157
-0.0023729
0.000215766
-0.0026365
0.000269269
-0.00289029
0.00029154
-0.0030856
0.000280102
-0.00318711
0.000246772
-0.0031798
0.000205241
-0.0030727
0.000162551
-0.00288361
0.000118726
-0.00264112
7.68665e-05
-0.00236695
2.95455e-05
-0.00207896
-2.12574e-05
-0.00178631
-7.41349e-05
-0.0014992
-0.000129075
-0.00122387
-0.000185289
-0.000962664
-0.000241597
-0.00071761
-0.000296785
-0.000489923
-0.000349606
-0.000280626
-0.000398901
-9.06303e-05
-0.000443705
7.91431e-05
-0.00048325
0.000227997
-0.00051711
0.000355581
-0.00054519
0.000462103
-0.000567782
0.000548453
-0.00058551
0.000616232
-0.000599215
0.000667661
-0.000609768
0.000705365
-0.000617871
0.000732091
-0.000623903
0.000750436
-0.000627892
0.000762656
-0.000629607
0.000770596
-0.000628748
0.000775723
-0.000625151
0.000779225
-0.000618946
0.000782133
-0.000610618
0.000785455
-0.000601001
0.000790315
-0.000591215
0.000798116
-0.000582627
0.000810681
-0.000576851
0.000830287
-0.000575778
0.00085945
-0.000581552
0.000900397
-0.000596416
0.000954269
-0.000622324
0.00102032
-0.000660384
0.00109547
-0.000710296
0.00117455
-0.000770043
0.00125126
-0.000836078
-0.000903883
0.00131967
-0.000496585
-0.000377036
-0.00103577
-0.00108044
-0.00141202
-0.00152059
-0.0018971
-0.00160152
-0.00268803
-0.00151268
-0.00374439
-0.0013928
-0.00480818
-0.00126119
-0.00558098
-0.0010496
-0.00596833
-0.000751147
-0.00611312
-0.000432424
-0.00620224
-0.000164401
-0.00632477
2.42256e-05
-0.00647687
0.000130053
-0.00660378
0.000160719
-0.00667313
0.000158392
-0.00667658
0.000154895
-0.00662675
0.000179665
-0.0065472
0.000252264
-0.00646607
0.00038456
-0.00640693
0.000580295
-0.00639171
0.000848612
-0.00641712
0.00117286
-0.00648006
0.00155973
-0.00657715
0.00198123
-0.00670292
0.00223359
-0.00684929
0.00199169
-0.0069998
0.00128851
-0.00712158
0.000576792
-0.00716274
0.000141976
-0.0070958
-6.50142e-05
-0.00692617
-0.000152723
-0.00667389
-0.000176234
-0.00636088
-0.000166852
-0.00599695
-0.000148165
-0.00559383
-0.000133855
-0.00517331
-0.000128973
-0.00475986
-0.000133353
-0.00436801
-0.000145079
-0.0040001
-0.000162671
-0.00365219
-0.000185359
-0.00332127
-0.000212189
-0.00300061
-0.000243792
-0.0026913
-0.000279764
-0.00239311
-0.00031945
-0.00210552
-0.000361721
-0.00182917
-0.000405427
-0.00156512
-0.000449343
-0.00131454
-0.000492179