/*--------------------------------*- C++ -*----------------------------------*\
| =========                 |                                                 |
| \\      /  F ield         | OpenFOAM: The Open Source CFD Toolbox           |
|  \\    /   O peration     | Version:  2012                                  |
|   \\  /    A nd           | Website:  www.openfoam.com                      |
|    \\/     M anipulation  |                                                 |
\*---------------------------------------------------------------------------*/
FoamFile
{
    version     2.0;
    format      ascii;
    class       volScalarField;
    location    "0.5";
    object      p;
}
// * * * * * * * * * * * * * * * * * * * * * * * * * * * * * * * * * * * * * //

dimensions      [0 2 -2 0 0 0 0];


internalField   nonuniform List<scalar> 
42400
(
8086.21
7796.83
7427.19
6943.79
6253.61
5427.61
4523.83
3619.35
2791.23
2091.74
1539.66
1127.08
838.534
658.031
562.472
522.393
512.338
513.822
514.34
506.004
484.556
448.736
399.738
340.684
276.137
211.394
151.365
99.7318
58.9215
29.5929
11.6315
3.74222
4.07039
11.0155
22.7336
37.4206
53.391
69.0603
83.0604
94.5179
103.375
109.461
113.224
115.291
116.216
116.334
115.756
114.537
112.839
110.952
109.173
107.618
106.168
104.572
102.628
100.288
97.658
94.9144
92.2204
89.6806
87.3351
85.1765
83.171
81.2765
79.4535
77.6707
75.9067
74.1496
72.395
70.6441
68.9015
67.1731
65.4645
63.7802
62.1237
60.4983
58.9069
57.349
55.8215
54.3538
-7712.81
-7465.73
-7164.57
-6794.22
-6305.61
-5661.06
-4839.91
-3891.9
-2945.55
-2143.07
-1567.26
-1241.14
-1134.75
-1149.85
-1176.78
-1172.65
-1151.04
-1126.87
-1100.74
-1067.46
-1019.49
-946.97
-841.223
-701.945
-540.633
-375.637
-223.575
-94.3259
8.9131
87.3169
144.145
183.325
208.986
224.315
231.927
233.728
231.131
225.295
217.217
207.743
197.42
186.911
176.817
167.591
159.444
152.294
145.847
139.78
133.915
128.267
122.956
118.084
113.687
109.729
106.141
102.851
99.799
96.9405
94.2444
91.6881
89.2556
86.9352
84.7178
82.596
80.5621
78.6077
76.7233
74.8985
73.124
71.3925
69.7001
68.0457
66.4303
64.8562
63.3262
61.8442
60.4153
59.0462
57.7505
56.567
-3283.24
-3332.85
-3423.2
-3525.22
-3626.85
-3694.06
-3699.66
-3622.05
-3471.2
-3287.39
-3105.43
-2935.26
-2773.01
-2609
-2425.78
-2208.53
-1949.14
-1647.61
-1309.84
-943.306
-553.35
-146.159
260.203
628.254
914.065
1094.18
1176.76
1186.5
1146.43
1073.18
979.832
877.817
776.304
681.411
596.323
522.065
458.317
404.075
358.102
319.166
286.148
258.078
234.135
213.628
195.981
180.723
167.473
155.938
145.899
137.185
129.645
123.131
117.485
112.55
108.179
104.247
100.656
97.3363
94.2454
91.3577
88.6593
86.1413
83.7959
81.6133
79.5803
77.6803
75.8941
74.2012
72.583
71.0242
69.5149
68.0498
66.6276
65.2491
63.9168
62.6338
61.4049
60.2365
59.1347
58.1183
3668.88
3889.31
4230.12
4644.57
5097.45
5522.28
5885
6158.8
6325.56
6377.29
6316.54
6153.72
5902.92
5579.47
5200.52
4786.5
4360.44
3941.27
3539.57
3156.24
2785.25
2418.87
2050.74
1679.25
1309.23
958.451
654.12
419.695
260.324
162.549
107.465
80.8227
73.1086
78.2215
90.976
106.939
122.808
136.508
147.001
154.002
157.699
158.53
157.043
153.792
149.297
144.016
138.331
132.553
126.915
121.583
116.651
112.157
108.088
104.402
101.041
97.9455
95.066
92.3652
89.8188
87.4126
85.1395
82.9959
80.9801
79.089
77.3179
75.6584
74.0994
72.6274
71.2288
69.8917
68.6071
67.369
66.1744
65.0218
63.911
62.8423
61.8176
60.8385
59.9023
59.0248
11995
11705
11264.3
10565
9515.86
8209.91
6755.77
5282.45
3903.51
2694
1689.16
895.031
297.178
-131.907
-422.071
-598.246
-684.947
-709.759
-699.835
-675.37
-643.289
-596.966
-524.879
-426.884
-316.653
-212.813
-125.434
-54.6206
2.68525
48.2339
82.4828
106.588
123.43
134.981
142.555
146.998
148.833
148.46
146.255
142.612
137.932
132.606
126.989
121.385
116.034
111.112
106.729
102.93
99.711
97.0162
94.7577
92.8271
91.1132
89.5185
87.9706
86.4271
84.8729
83.3123
81.76
80.2339
78.75
77.3201
75.9517
74.648
73.4082
72.2285
71.1029
70.0244
68.9862
67.9826
67.0096
66.065
65.1475
64.2568
63.3926
62.5547
61.7433
60.9566
60.1875
59.4541
-14577.9
-14095.6
-13483.4
-12764.7
-11929.9
-11007.9
-10014.8
-8965.18
-7853.08
-6656.48
-5369.77
-4051.5
-2839.67
-1878.45
-1223.51
-839.478
-675.892
-697.907
-856.358
-1067.03
-1234.45
-1296.13
-1243.92
-1107.17
-924.157
-726.637
-537.269
-370
-231.949
-124.725
-46.2154
7.8541
42.6412
63.202
73.932
78.2719
78.6014
76.6184
73.4448
69.8377
66.3152
63.2236
60.778
59.0887
58.1818
58.0171
58.5053
59.5229
60.9256
62.5608
64.2787
65.9431
67.4417
68.6938
69.6552
70.3167
70.6976
70.8357
70.7764
70.5647
70.2401
69.8343
69.3714
68.8688
68.3383
67.7876
67.2213
66.6424
66.0531
65.4556
64.8524
64.246
63.6392
63.0339
62.4319
61.8341
61.2413
60.6508
60.0561
59.4763
-863.885
-870.948
-862.16
-835.622
-819.324
-837.755
-927.87
-1102.46
-1321.49
-1497.78
-1547.77
-1449.23
-1250.3
-1030.71
-845.556
-706.482
-598.244
-497.264
-378.971
-238.313
-103.04
-6.74006
42.7703
60.7031
64.7135
64.0652
61.0976
55.2833
46.3299
34.7529
21.5954
8.17103
-4.31137
-14.7371
-22.3382
-26.7867
-28.1927
-26.9792
-23.7102
-18.9484
-13.1799
-6.79806
-0.114459
6.62509
13.2304
19.5606
25.5174
31.0373
36.0828
40.6347
44.6862
48.2403
51.3095
53.9162
56.0929
57.8802
59.3239
60.4717
61.3692
62.0578
62.5732
62.9453
63.198
63.3504
63.4175
63.4109
63.3402
63.2133
63.0371
62.8181
62.5619
62.2741
61.9593
61.6216
61.264
60.889
60.4985
60.0912
59.6631
59.2307
9556.39
9399.44
9195.03
8890
8461.31
7907.58
7205.53
6343.04
5368.87
4395.54
3544.29
2875.84
2378.95
2010.55
1729.61
1510.31
1338.31
1200.6
1074.83
932.145
758.763
569.488
393.139
246.805
131.994
43.9443
-22.9241
-74.1971
-114.537
-146.814
-172.085
-190.055
-199.742
-200.292
-191.696
-175.141
-152.844
-127.524
-101.767
-77.5503
-56.0469
-37.6928
-22.4087
-9.83629
0.48346
9.0029
16.1158
22.1382
27.3096
31.8038
35.7425
39.2099
42.2652
44.953
47.3099
49.3689
51.1611
52.7165
54.063
55.226
56.2277
57.0869
57.8192
58.4374
58.9522
59.3723
59.7057
59.9595
60.1401
60.2541
60.3076
60.3064
60.2559
60.1608
60.0252
59.8527
59.6462
59.4061
59.1309
58.8334
-6044.73
-5555.82
-4898.19
-4232.25
-3583.03
-3015.03
-2493.5
-2001.46
-1538.37
-1099.07
-683.118
-307.285
3.02454
229.436
368.256
428.024
423.975
375.186
298.766
204.357
99.0923
-7.36755
-105.004
-185.798
-245.168
-281.5
-295.293
-288.923
-266.287
-232.124
-191.396
-148.741
-108.12
-72.4899
-43.5753
-21.8634
-6.77338
2.97835
8.9186
12.439
14.6009
16.1109
17.3939
18.6886
20.1217
21.7514
23.5906
25.6203
27.8012
30.0828
32.4122
34.7396
37.0222
39.2257
41.3249
43.3027
45.1492
46.86
48.4348
49.8762
51.1883
52.3759
53.4445
54.399
55.2449
55.9873
56.6314
57.1826
57.6463
58.028
58.3333
58.5676
58.736
58.8432
58.8936
58.8912
58.8399
58.741
58.5947
58.4114
-590.312
-779.306
-986.555
-1177.34
-1373.62
-1567.92
-1764.88
-1960.46
-2143.66
-2300.25
-2415.55
-2479.14
-2487.01
-2441.41
-2349.19
-2219.44
-2063.08
-1890.66
-1708.57
-1520.55
-1332.69
-1152.51
-986.394
-838.564
-709.463
-596.272
-494.691
-400.664
-311.609
-226.836
-147.4
-75.5622
-13.9701
35.4769
71.9919
95.639
107.363
109.072
103.39
93.1558
80.9304
68.6604
57.5908
48.3654
41.1881
35.9908
32.5548
30.5951
29.8144
29.9347
30.7144
31.9541
33.4962
35.2203
37.0367
38.8804
40.7054
42.4796
44.1811
45.795
47.312
48.7259
50.0336
51.2338
52.3265
53.3132
54.1961
54.9782
55.6634
56.2557
56.7598
57.1802
57.5216
57.7887
57.986
58.1179
58.1886
58.2004
58.1545
58.0608
-4034
-3794.44
-3466.31
-3053.32
-2520.2
-1930.12
-1337.79
-794.806
-327.652
62.3597
382.826
639.431
834.736
970.141
1047.32
1068.88
1041.25
975.859
888.214
793.761
704.99
628.884
565.156
508.979
453.631
392.502
319.402
233.287
136.983
37.4204
-56.656
-137.304
-198.971
-238.79
-256.614
-255.119
-238.916
-213.319
-183.243
-152.337
-122.997
-96.4908
-73.3276
-53.5581
-36.9772
-23.2463
-11.9678
-2.7353
4.83442
11.0817
16.2953
20.7107
24.5144
27.8494
30.8225
33.5119
35.9726
38.2427
40.3479
42.3049
44.1241
45.8125
47.3742
48.8124
50.1297
51.3286
52.412
53.383
54.2454
55.0033
55.6611
56.2234
56.6952
57.0813
57.3864
57.6156
57.7736
57.8633
57.8868
57.8559
9002.45
8860.03
8682.12
8436.01
8108.95
7730.17
7303.2
6822.7
6288.47
5713.67
5121.81
4536.1
3970.09
3424.03
2888.91
2355.29
1820.66
1291.63
785.078
323.423
-69.6338
-372.803
-577.037
-688.364
-721.767
-693.899
-622.478
-528.001
-430.303
-342.252
-267.74
-205.445
-153.211
-109.957
-75.292
-48.6452
-29.056
-15.2886
-6.02777
-0.0600888
3.63584
5.87667
7.28633
8.31596
9.26976
10.3347
11.6108
13.1369
14.9122
16.9111
19.0944
21.4169
23.8321
26.296
28.7692
31.2172
33.6117
35.9294
38.1523
40.2667
42.2626
44.1333
45.8746
47.4845
48.9628
50.3106
51.5303
52.6254
53.5999
54.4585
55.2065
55.8491
56.392
56.8408
57.2011
57.4784
57.6783
57.804
57.8588
57.857
-1902.26
-2026.56
-2198.53
-2399.24
-2618.4
-2829.32
-3026.79
-3211.7
-3372.52
-3487.03
-3532.52
-3497.85
-3388.7
-3225.2
-3034.4
-2840.02
-2652.09
-2461.51
-2248.05
-1996.16
-1704.05
-1383.75
-1054.21
-735.925
-445.64
-195.233
5.69705
148.713
232.045
265.128
264.436
245.052
217.23
186.494
155.648
126.93
101.397
79.4095
60.9655
45.8576
33.7899
24.4444
17.5125
12.6967
9.7067
8.25735
8.0714
8.8864
10.4629
12.5911
15.0947
17.8316
20.6912
23.5905
26.4688
29.2829
32.0021
34.6055
37.0784
39.4111
41.5973
43.6332
45.5174
47.2499
48.8326
50.2684
51.5612
52.7161
53.7386
54.635
55.4116
56.0751
56.6323
57.0898
57.4542
57.7319
57.929
58.0494
58.0976
58.0907
-13445.6
-12763.7
-11876.3
-10882.6
-9721.92
-8533.69
-7382.13
-6316.19
-5357.19
-4515.67
-3806.3
-3238.04
-2801.19
-2469.15
-2209.71
-1992.07
-1789.68
-1583.6
-1368.62
-1153.01
-952.238
-779.299
-638.875
-527.886
-439.902
-368.101
-306.94
-253.775
-208.213
-170.492
-140.623
-118.39
-103.061
-93.069
-86.3144
-81.5751
-77.5908
-73.3625
-68.3211
-62.3179
-55.4827
-48.0737
-40.3934
-32.7273
-25.3052
-18.2841
-11.7473
-5.7164
-0.170114
4.93581
9.65317
14.0314
18.1126
21.9302
25.5085
28.8643
32.0084
34.947
37.684
40.222
42.5635
44.7118
46.6712
48.4473
50.0469
51.4775
52.7475
53.8658
54.8416
55.6838
56.4016
57.0036
57.4983
57.8936
58.197
58.4158
58.5566
58.6236
58.6219
58.5711
10185.6
9965.25
9635.55
9133.49
8457.37
7652.94
6765.53
5837.09
4912.68
4034.3
3227.88
2502.56
1869.45
1351.62
967.685
712.136
555.76
464.9
413.006
381.343
355.342
323.507
278.471
217.843
143.898
62.0329
-20.848
-97.5858
-162.325
-211.111
-241.492
-253.707
-250.706
-236.708
-216.062
-191.92
-166.971
-142.833
-120.359
-99.9953
-81.8285
-65.8476
-51.8983
-39.7757
-29.2617
-20.133
-12.174
-5.17021
1.07075
6.70718
11.8572
16.6014
20.9914
25.0598
28.8285
32.3139
35.5291
38.4856
41.1936
43.663
45.9036
47.9254
49.7391
51.3557
52.7869
54.0444
55.1402
56.086
56.893
57.5721
58.1337
58.5872
58.9418
59.2056
59.3864
59.4911
59.5263
59.4959
59.4053
59.2754
801.967
794.704
804.05
834.729
855.53
812.764
640.528
311.015
-128.516
-554.648
-820.758
-845.248
-653.978
-342.121
-22.5483
216.805
343.534
372.036
326.902
222.904
74.6799
-93.3413
-252.732
-381.407
-468.228
-512.034
-518.412
-496.459
-456.377
-407.401
-356.741
-309.305
-267.19
-231.127
-200.558
-174.199
-150.702
-129.032
-108.599
-89.2197
-70.9933
-54.1516
-38.9293
-25.4786
-13.8326
-3.90668
4.47383
11.5323
17.4951
22.5862
26.9761
30.8059
34.1869
37.2073
39.9363
42.4268
44.7162
46.8282
48.7756
50.5632
52.1923
53.6629
54.9763
56.1357
57.1465
58.0161
58.753
59.3667
59.8666
60.2621
60.5623
60.7756
60.9097
60.972
60.9687
60.9058
60.7884
60.6197
60.4044
60.1631
-7686.34
-7386.73
-6978.39
-6452.72
-5789.37
-5071.51
-4398.48
-3851.81
-3457.91
-3176.48
-2928.08
-2653.97
-2353.28
-2062.55
-1810.87
-1605.73
-1440.81
-1306.55
-1195.88
-1104.7
-1029.98
-967.907
-913.563
-861.845
-808.473
-750.677
-687.876
-621.79
-554.745
-488.922
-425.921
-366.336
-310.634
-258.536
-209.726
-164.105
-121.83
-83.2845
-48.9941
-19.5101
4.73368
23.5619
37.1639
46.1233
51.3377
53.8526
54.6699
54.6061
54.2366
53.9058
53.7764
53.8976
54.2547
54.8045
55.4965
56.2839
57.1262
57.9889
58.8417
59.6582
60.4166
61.1005
61.6993
62.2075
62.6241
62.9515
63.1942
63.3577
63.4485
63.4728
63.4366
63.3456
63.2048
63.0187
62.7915
62.5267
62.2273
61.8949
61.5331
61.16
9557.86
9133.5
8521.4
7705.45
6638.68
5538.35
4528.12
3665.6
2954.58
2374.91
1907.89
1537.1
1243.95
1009.26
817.922
660.49
530.398
422.597
333.274
258.915
196.318
142.703
95.9328
54.7913
19.0301
-10.4026
-32.7738
-47.6298
-55.0883
-56.0062
-51.3463
-41.9698
-28.5489
-11.7182
7.6897
28.5382
49.4328
68.8578
85.3526
97.7712
105.611
109.219
109.644
108.173
105.866
103.35
100.858
98.3934
95.8978
93.3256
90.6684
87.9516
85.2252
82.5565
80.0248
77.7113
75.6846
73.985
72.6158
71.5465
70.7241
70.0874
69.5785
69.1495
68.7646
68.3988
68.0361
67.6669
67.2859
66.8908
66.4805
66.0553
65.6154
65.1615
64.6941
64.2138
63.721
63.2151
62.6982
62.1846
-2134.91
-1739.62
-1227.29
-702.917
-200.686
211.38
532.213
769.499
931.931
1029.44
1071.69
1068.55
1030.73
968.438
890.182
801.872
706.785
606.759
503.003
396.458
288.154
179.887
74.6717
-23.7328
-111.772
-186.344
-244.332
-283.932
-305.177
-308.822
-295.647
-266.885
-224.542
-171.118
-110.16
-45.9667
17.0978
75.2408
125.438
165.364
193.498
209.454
214.232
210.008
199.547
185.744
171.125
157.1
144.373
133.174
123.447
115.017
107.698
101.344
95.8694
91.2279
87.3809
84.2677
81.7931
79.8365
78.2709
76.9821
75.8794
74.8975
73.993
73.1393
72.3207
71.5284
70.7576
70.0057
69.2706
68.5506
67.844
67.1491
66.4641
65.7872
65.1168
64.4508
63.7897
63.1431
-5436.17
-5365.45
-5283.91
-5192.27
-5119.12
-5081.9
-5043.94
-4960.29
-4818.04
-4630.14
-4412.51
-4173.65
-3916.51
-3642.69
-3354.67
-3055.75
-2749.82
-2441.26
-2134.06
-1832
-1540.12
-1265.03
-1012.9
-787.487
-590.275
-421.74
-281.464
-168.609
-81.5433
-17.4484
27.1545
55.9984
73.1131
82.9433
88.6151
92.823
97.7616
104.01
111.311
119.407
127.662
134.889
140.093
142.68
142.719
140.749
137.402
133.551
129.753
126.208
122.867
119.546
116.034
112.193
108.026
103.677
99.375
95.3489
91.7529
88.6428
85.9939
83.7379
81.7951
80.0932
78.5742
77.195
75.9248
74.7418
73.6303
72.5788
71.5784
70.6219
69.7029
68.8162
67.9571
67.1216
66.3059
65.5072
64.7246
63.9623
4209.06
4234.42
4264.3
4265.85
4202.85
4077.31
3890.48
3650.67
3375.91
3083.8
2785.17
2486.39
2192.84
1909.55
1640.38
1387.74
1154.53
944.57
762.332
612.328
498.167
420.698
377.515
362.514
366.056
377.727
387.191
380.331
344.891
281.236
206.57
142.274
101.855
87.0524
90.4887
101.064
109.835
112.604
109.047
100.789
89.6941
77.2943
64.6963
52.5161
41.2449
31.2307
22.6152
15.3755
9.40903
4.57183
0.70514
-2.34943
-4.73993
-6.59762
-8.03494
-9.14781
-10.0113
-10.6849
-11.2174
-11.6484
-12.0101
-12.3304
-12.6342
-12.9449
-13.2865
-13.6852
-14.1686
-14.7579
-15.4531
-16.2184
-16.9807
-17.6448
-18.1212
-18.3522
-18.3261
-18.0778
-17.6731
-17.1838
-16.6722
-16.1808
2847.37
2441.48
1892.28
1298.46
686.808
212.514
-130.373
-393.477
-600.936
-747.205
-825.937
-842.473
-812.877
-757.343
-693.638
-631.255
-573.905
-523.937
-481.725
-444.57
-407.812
-366.618
-318.287
-263.742
-204.786
-140.606
-68.4875
11.9267
92.3799
159.228
204.071
227.809
235.891
232.333
219.483
199.505
175.036
148.859
123.394
100.28
80.343
63.5376
49.6853
38.6303
29.9874
23.2678
18.0267
13.9387
10.76
8.30032
6.40943
4.96745
3.8774
3.05914
2.44481
1.97583
1.60109
1.27601
0.962123
0.626927
0.243358
-0.209652
-0.749002
-1.38812
-2.13751
-3.00441
-3.99093
-5.08793
-6.26813
-7.48403
-8.67261
-9.76454
-10.6922
-11.3962
-11.8356
-12.0063
-11.9525
-11.757
-11.5136
-11.3026
-6509.14
-6200.43
-5783.3
-5251.67
-4558.31
-3825.03
-3174.36
-2665.67
-2284.61
-2000.05
-1794.31
-1657.43
-1575.25
-1517.27
-1444.44
-1337.64
-1210.46
-1086.25
-974.732
-873.137
-777.444
-686.799
-601.345
-520.371
-444.678
-375.393
-314.28
-262.577
-219.695
-183.985
-153.968
-128.686
-107.758
-90.3648
-75.6058
-62.9178
-51.8464
-42.0601
-33.4185
-25.8973
-19.5149
-14.0849
-9.53989
-5.81129
-2.83382
-0.534216
1.178
2.41138
3.28593
3.92184
4.42758
4.89006
5.36891
5.89502
6.47278
7.08455
7.69642
8.2643
8.73979
9.07568
9.23074
9.17369
8.88595
8.36363
7.61718
6.66914
5.55184
4.30476
2.9741
1.609
0.261085
-1.0133
-2.15413
-3.10396
-3.82339
-4.31156
-4.61631
-4.81989
-5.00598
-5.23473
2533.71
2476.01
2379.87
2239.49
2046.95
1802.03
1492.56
1128.4
744.5
384.966
89.8181
-110.304
-196.808
-172.732
-70.8765
43.0427
101.081
75.9636
-17.7183
-156.037
-321.654
-497.379
-663.51
-803.005
-903.783
-960.69
-974.143
-948.31
-889.828
-807.363
-710.984
-610.619
-514.213
-426.796
-350.741
-286.452
-233.253
-189.791
-154.496
-125.789
-102.038
-81.7586
-64.3238
-49.4477
-37.0345
-27.0108
-19.1952
-13.2714
-8.83981
-5.48733
-2.85001
-0.644246
1.32835
3.19232
5.01421
6.81677
8.58982
10.298
11.8871
13.2913
14.4407
15.2702
15.7294
15.791
15.4557
14.7569
13.7535
12.5254
11.16
9.75546
8.37753
7.08781
5.92636
4.91159
4.04172
3.29601
2.63696
2.01634
1.38778
0.716719
4379.29
4253.95
4046.74
3740.53
3379.24
2996.26
2606.5
2215.56
1830.01
1461.82
1126.03
839.2
615.508
458.489
358.666
300.199
268.314
249.314
229.089
197.561
154.646
108.344
66.6732
34.1628
10.6064
-6.12525
-18.5124
-28.1266
-35.4303
-40.4311
-43.2788
-44.3036
-43.8054
-42.0112
-39.1748
-35.5088
-31.072
-25.9713
-20.3752
-14.3044
-8.00071
-2.04832
3.26627
7.78192
11.3174
13.7404
15.0454
15.3539
14.8402
13.7952
12.5293
11.3254
10.4067
9.91727
9.9257
10.4361
11.4022
12.7397
14.336
16.0579
17.7607
19.2991
20.5397
21.3755
21.7376
21.6069
21.0142
20.0349
18.7747
17.34
15.8528
14.4073
13.0524
11.8159
10.6963
9.66901
8.69813
7.74594
6.78182
5.7858
-7224.48
-6992.85
-6675.87
-6286.55
-5783.78
-5215.81
-4601.18
-3957.3
-3305.46
-2670.69
-2074.97
-1531.7
-1049.7
-650.81
-356.978
-164.711
-57.286
-31.2418
-80.1164
-168.639
-243.828
-262.353
-208.344
-99.4978
27.815
140.911
223.975
275.755
301.607
308.047
300.71
284.126
261.931
236.921
211.149
186.136
162.979
142.26
124.125
108.461
94.916
83.085
72.743
63.6153
55.4587
48.0963
41.4025
35.3085
29.8461
25.0514
20.9999
17.7761
15.4385
14.0024
13.429
13.6271
14.4628
15.7748
17.3949
19.1683
20.9664
22.6824
24.2166
25.4665
26.3353
26.7517
26.6885
26.1696
25.2636
24.0675
22.6861
21.2065
19.7165
18.255
16.8438
15.4852
14.1669
12.8704
11.5785
10.2789
5514.74
5437.35
5368.95
5301.07
5216.27
5092.44
4905.99
4649.93
4325.59
3930.63
3482.91
3054.14
2705.35
2389.29
2028.46
1649.54
1311.46
1005.91
708.886
432.83
209.306
70.7704
28.8048
54.3055
98.9971
134.1
156.71
172.375
183.997
192.514
197.633
199.056
196.742
190.953
182.292
171.587
159.682
147.279
134.88
122.796
111.242
100.307
89.9458
80.0689
70.6545
61.7427
53.4103
45.7544
38.8703
32.8374
27.7194
23.5546
20.3508
18.0891
16.7288
16.2119
16.4649
17.3938
18.8756
20.7492
22.8134
24.8454
26.6406
28.0575
29.0381
29.5888
29.7445
29.5465
29.04
28.276
27.3085
26.1882
24.9491
23.6238
22.2296
20.7781
19.2791
17.7415
16.1729
14.586
1991.13
1939.97
1860.09
1749.31
1645.24
1554.98
1485.22
1446.58
1449.17
1489.68
1540.49
1550.6
1473.64
1303.03
1077.13
848.73
653.02
502.721
395.96
319.16
251.984
175.621
85.9218
-5.34497
-80.5587
-127.722
-144.205
-135.374
-109.425
-75.7921
-41.9637
-12.4757
11.4384
30.0799
43.9893
53.6828
59.7225
62.671
63.0369
61.3014
57.9333
53.4049
48.1658
42.5939
36.975
31.503
26.3074
21.4832
17.1099
13.2611
10.0072
7.41352
5.53645
4.42227
4.10713
4.61397
5.94216
8.04954
10.8307
14.1005
17.5969
21.0135
24.0599
26.5298
28.3401
29.5218
30.1738
30.4145
30.3508
30.0643
29.6075
29.0055
28.2628
27.3697
26.3101
25.0905
23.7134
22.191
20.5367
18.7929
-10731.8
-10302.7
-9776.36
-9209.61
-8543.46
-7865.71
-7202.89
-6565.42
-5950.81
-5349.77
-4755.43
-4166.95
-3593.71
-3052.9
-2559.24
-2119.96
-1737.71
-1410.69
-1133.76
-901.321
-708.099
-549.221
-420.382
-316.63
-232.949
-163.128
-100.04
-36.6376
29.5588
96.1207
155.007
192.667
198.424
173.435
129.986
81.6167
38.8331
6.59772
-14.5545
-26.5509
-32.0167
-33.1674
-31.5326
-28.1597
-23.8584
-19.2868
-14.9378
-11.1198
-7.9706
-5.49293
-3.59612
-2.13028
-0.912974
0.249993
1.54732
3.14594
5.17381
7.70317
10.7395
14.1738
17.8087
21.3766
24.5822
27.1895
29.0957
30.3471
31.0877
31.4803
31.6505
31.6693
31.5618
31.3234
30.9336
30.3687
29.608
28.6231
27.409
25.9797
24.3307
22.5751
7166.99
7053.19
6889.51
6620.68
6211.91
5693.62
5110.78
4501.11
3884.62
3274.44
2684.02
2125.44
1605.16
1125.09
686.407
291.244
-57.2947
-356.38
-603.786
-796.094
-927.7
-996.686
-1011.74
-990.822
-951.508
-901.694
-842.286
-778.653
-720.273
-672.127
-632.526
-596.932
-561.908
-524.159
-479.311
-424.078
-358.28
-286.449
-215.427
-152.261
-101.417
-63.8131
-37.993
-21.2685
-10.8772
-4.58728
-0.76039
1.73518
3.63286
5.36523
7.15206
9.07711
11.1492
13.3449
15.6342
17.9912
20.3943
22.8203
25.2359
27.59
29.8131
31.8239
33.5433
34.9131
35.9122
36.5599
36.9038
37.0029
36.9119
36.6707
36.3009
35.807
35.1802
34.4031
33.4548
32.3158
30.973
29.4271
27.6594
25.7431
3566.33
3403.84
3143.1
2801.09
2413.63
2108.89
1887.61
1691.69
1486.77
1275.78
1070.32
872.258
675.042
472.174
262.285
48.7128
-162.692
-364.157
-544.568
-692.052
-800.355
-870.661
-907.616
-915.752
-897.887
-855.782
-790.87
-707.292
-612.354
-514.123
-419.178
-332.128
-255.959
-192.298
-141.712
-104.045
-78.4296
-63.0584
-55.043
-50.5723
-46.7811
-42.6263
-37.3221
-31.031
-24.2359
-17.3925
-10.8273
-4.7313
0.810332
5.78319
10.2156
14.1588
17.6736
20.8215
23.6594
26.2354
28.5867
30.7378
32.7004
34.4745
36.0514
37.4175
38.5598
39.4705
40.1499
40.6067
40.8554
40.9129
40.7944
40.5114
40.0694
39.4678
38.7013
37.7613
36.6382
35.3237
33.8143
32.1048
30.2256
28.0962
-9156.29
-8787.69
-8383.25
-8086.66
-7803.58
-7547.74
-7282.44
-6966.25
-6562.36
-6064.57
-5496.6
-4898.38
-4309.63
-3755.79
-3245.57
-2777.95
-2348.71
-1952.73
-1585.11
-1243.1
-927.674
-646.201
-413.049
-239.645
-124.666
-55.2804
-17.1258
1.18136
7.69993
7.7298
4.37874
-0.679549
-6.40641
-11.9394
-16.5027
-19.592
-20.9701
-20.6851
-18.8967
-15.5566
-11.3039
-6.4615
-1.61718
3.0133
7.33525
11.3047
14.9112
18.1679
21.1033
23.7555
26.1656
28.3735
30.4134
32.3119
34.0865
35.7458
37.2905
38.7149
40.0091
41.1607
42.1578
42.9904
43.6523
44.1414
44.4596
44.612
44.605
44.4449
44.1363
43.6806
43.0757
42.3159
41.3931
40.2979
39.0217
37.5595
35.9124
34.0801
32.1287
29.8837
-3073.24
-2777.02
-2376.93
-1967.61
-1510.54
-1133.81
-885.083
-794.278
-854.775
-997.482
-1126.36
-1188.5
-1191.08
-1164.77
-1129.48
-1090.51
-1051.79
-1021.83
-1004.3
-988.937
-958.805
-904.555
-828.321
-738.374
-642.477
-545.927
-452.78
-366.394
-289.089
-222.023
-165.393
-118.78
-81.3629
-51.989
-29.3623
-12.1539
0.552889
9.49934
15.5684
18.8438
20.5575
22.0477
23.7827
25.8467
28.1196
30.4035
32.5187
34.3595
35.9075
37.2123
38.3554
39.4165
40.4527
41.4916
42.5354
43.5682
44.5648
45.4972
46.3387
47.0671
47.6656
48.1233
48.4346
48.5987
48.6177
48.4961
48.2387
47.8495
47.3307
46.6814
45.8979
44.9732
43.8985
42.6643
41.2625
39.6889
37.9455
36.0447
34.0308
31.7878
10994.3
10878.8
10727
10488.9
10140.8
9684.12
9127.14
8499.2
7847.13
7198.73
6545.38
5867.1
5142.53
4343.97
3490.66
2696.46
2082.53
1657.21
1341.4
1074.08
842.756
649.33
489.593
357.066
247.955
160.033
90.2534
34.9006
-9.34347
-45.1395
-74.6036
-99.3657
-120.331
-137.814
-151.975
-162.663
-168.24
-167.537
-160.718
-147.859
-129.98
-108.668
-85.4344
-61.855
-39.4413
-19.4261
-2.57506
10.8911
21.2288
28.9878
34.7964
39.2035
42.613
45.292
47.4111
49.0835
50.3907
51.3956
52.1471
52.6824
53.0288
53.2062
53.2288
53.1075
52.8511
52.467
51.9618
51.3409
50.6075
49.7624
48.8035
47.7257
46.5216
45.1827
43.7011
42.0722
40.2971
38.3882
36.3575
34.1812
-7320.89
-7032.57
-6658.34
-6193.12
-5599.37
-4893.76
-4095.41
-3242.92
-2376.68
-1517.97
-669.333
162.559
946.38
1630.5
2168.29
2538.82
2748.85
2819.4
2774.31
2638.49
2438.69
2200.99
1947.83
1696.37
1458.46
1240.95
1045.55
871.193
715.993
578.622
458.755
356.002
268.747
195.028
134.011
85.3433
47.5549
19.4116
0.0952922
-11.8646
-17.0311
-15.8914
-9.35
1.31411
14.5092
28.5147
41.7416
52.9592
61.4406
66.9992
69.908
70.7304
70.1256
68.6987
66.922
65.118
63.4766
62.0847
60.9569
60.0622
59.3454
58.7434
58.1963
57.6534
57.0758
56.4361
55.7171
54.9091
54.0073
53.0093
51.913
50.7158
49.4134
48.0006
46.4726
44.8265
43.0651
41.1987
39.2405
37.2231
2761.49
2538.2
2262.64
1932.89
1496.08
999.77
465.195
-88.0708
-642.675
-1180.18
-1673.6
-2088.48
-2390.54
-2557.09
-2584.5
-2487.01
-2291.12
-2029.37
-1734.41
-1433.9
-1147.66
-887.28
-657.757
-460.079
-293.634
-157.257
-48.8844
33.6556
92.9769
132.414
155.807
167.131
170.115
167.964
163.13
157.21
151.043
144.817
138.154
131.492
124.693
117.093
108.464
99.089
89.64
80.9456
73.6858
68.197
64.4263
62.0488
60.6528
59.8852
59.5064
59.3761
59.4148
59.572
59.8078
60.0851
60.3666
60.6142
60.7915
60.8657
60.8109
60.6093
60.2515
59.7367
59.07
58.261
57.3212
56.2623
55.0943
53.8244
52.457
50.9936
49.4339
47.7777
46.0264
44.1842
42.2648
40.2854
3261.5
3297.82
3369.78
3447.8
3504.95
3510.22
3459.57
3353.86
3190.73
2965.36
2677.24
2335.73
1957.79
1564.33
1174.83
803.362
458.878
146.801
-129.385
-367.651
-567.106
-727.545
-849.075
-932.1
-977.669
-987.735
-965.426
-915.382
-843.633
-757.094
-662.819
-567.036
-474.406
-387.907
-309.236
-239.298
-178.521
-126.964
-84.2922
-49.9487
-22.7151
-1.30224
15.3372
28.1605
37.9826
45.4834
51.2234
55.6291
58.9999
61.5341
63.3684
64.6145
65.3814
65.7808
65.9236
65.9115
65.8286
65.7334
65.6541
65.5889
65.5125
65.3869
65.172
64.8344
64.3513
63.7129
62.9203
61.9828
60.9143
59.73
58.4442
57.0684
55.6107
54.0761
52.4667
50.7833
49.0261
47.1965
45.3122
43.3674
-2624.05
-2552
-2493.27
-2473.61
-2434.08
-2372.62
-2264.65
-2102.68
-1896.09
-1659.33
-1405.74
-1146.41
-891.692
-651.067
-432.044
-239.565
-75.6398
60.087
168.899
251.961
310.74
347.224
363.878
364.031
351.781
331.35
306.354
279.406
252.088
225.208
199.193
174.41
151.277
130.152
111.264
94.6667
80.3003
68.0153
57.7402
49.632
43.3185
38.8294
36.2074
35.3891
36.2133
38.4311
41.7205
45.7068
49.9916
54.1947
58.0001
61.1945
63.6831
65.483
66.6966
67.4738
67.9707
68.315
68.5855
68.8085
68.9685
69.0263
68.9382
68.6684
68.1968
67.5203
66.6502
65.6076
64.4183
63.1082
61.7001
60.2119
58.6566
57.0423
55.3737
53.6529
51.8802
50.057
48.2022
46.2906
-7228.84
-6896.48
-6472.17
-6002.72
-5418.34
-4781.87
-4108.03
-3419.65
-2743.88
-2104.5
-1517.83
-992.88
-534.235
-144.313
177
432.653
628.351
771.603
870.46
932.977
965.791
973.692
960.561
929.923
885.226
829.912
766.749
697.744
625.123
550.754
476.388
403.752
334.498
270.134
211.943
160.925
117.739
82.7042
55.7311
36.1798
23.291
16.3468
14.5591
16.988
22.6042
30.3456
39.1594
48.07
56.2727
63.2299
68.7142
72.7568
75.5289
77.2345
78.0727
78.2524
77.9974
77.5166
76.9623
76.4097
75.8657
75.2961
74.6521
73.8905
72.9833
71.9207
70.7089
69.3657
67.9148
66.3805
64.7842
63.142
61.4643
59.7568
58.0215
56.2576
54.4626
52.6357
50.7916
48.893
5910.9
5896.69
5899.28
5868.4
5775.79
5592.41
5327.65
5001.09
4629.92
4224.93
3795.72
3354.24
2915.85
2494.74
2097.06
1722.06
1368.88
1039.99
739.863
472.991
242.649
50.0765
-105.371
-225.653
-313.593
-372.509
-405.6
-416.559
-409.47
-387.85
-355.22
-314.542
-268.95
-221.291
-173.947
-128.894
-87.6827
-51.4322
-20.7824
4.10865
23.7942
39.2968
51.4722
61.4581
70.3881
78.9485
87.1654
94.5254
100.366
104.264
106.195
106.443
105.402
103.433
100.837
97.8774
94.8001
91.8136
89.0606
86.6042
84.4377
82.509
80.7469
79.0814
77.4549
75.8273
74.1759
72.4929
70.7807
69.0472
67.3017
65.5519
63.8025
62.0551
60.308
58.5567
56.7936
55.0073
53.185
51.2175
-15.3184
-14.0583
-12.8644
-11.6391
-10.5993
-9.70297
-8.97769
-8.43289
-8.0485
-7.90027
-7.96205
-8.2403
-8.74277
-9.48113
-10.468
-11.7142
-13.2176
-14.9458
-16.8248
-18.7266
-20.4592
-21.8043
-22.5501
-22.549
-21.7471
-20.1976
-18.0668
-15.6105
-13.1125
-10.8057
-8.82288
-7.19356
-5.87812
-4.81204
-3.93425
-3.19684
-2.56583
-2.02079
-1.55352
-1.16415
-0.855987
-0.631519
-0.49082
-0.431781
-0.451178
-0.545753
-0.712976
-0.951461
-1.26113
-1.6432
-2.1002
-2.63609
-3.25661
-3.96971
-4.78578
-5.71711
-6.7763
-7.97314
-9.30995
-10.7765
-12.3461
-13.9744
-15.6018
-17.1577
-18.5656
-19.749
-20.6384
-21.1788
-21.3371
-21.1368
-20.5678
-19.6794
-18.5406
-17.2244
-15.7956
-14.3053
-12.792
-11.2863
-9.81518
-8.40268
-7.06829
-5.8252
-4.6794
-3.63048
-2.67393
-1.80385
-1.01505
-0.303725
0.333424
0.900846
1.4054
1.85622
2.26294
2.63334
2.97189
3.28017
3.55873
3.80898
4.03387
4.23744
4.42392
4.59703
4.75959
4.91353
5.06004
5.19981
5.33323
5.46051
5.58179
5.69712
5.80653
5.91004
6.00771
6.09962
6.18584
6.26642
6.34143
6.411
6.47534
6.53452
6.58862
6.63782
6.68238
6.72254
6.75853
6.79056
6.81881
6.84345
6.86469
6.88268
6.89759
6.90953
6.91859
6.92485
6.92838
6.9292
6.92728
6.92259
6.91506
6.90461
6.89116
6.87453
6.85452
6.83084
6.8032
6.7713
6.73489
6.69376
6.64783
6.59723
6.5423
6.4836
6.42182
6.35764
6.29155
6.22376
6.15407
6.0819
6.00628
5.92597
5.8396
5.74571
5.64294
5.53
5.40577
5.26923
5.11953
4.95594
4.77793
4.58513
4.37738
4.15476
3.91768
3.66686
3.40346
3.12907
2.84573
2.55588
2.26239
1.9685
1.67773
1.39379
1.12053
0.861735
0.621042
0.401804
0.206983
0.0390495
-0.100113
-0.209322
-0.28814
-0.33693
-0.356919
-0.350095
-0.319576
-0.268553
-0.203643
-0.12478
-0.0570942
0.0464733
-11.0677
-10.6347
-10.1689
-9.6415
-9.01234
-8.4431
-7.92938
-7.53122
-7.11143
-6.99395
-7.02424
-7.2458
-7.66807
-8.30277
-9.16187
-10.2623
-11.613
-13.2001
-14.979
-16.8383
-18.5946
-20.0384
-20.9455
-21.145
-20.5266
-19.1251
-17.0873
-14.6666
-12.1609
-9.83062
-7.83475
-6.2148
-4.92921
-3.90516
-3.0745
-2.38636
-1.80621
-1.31293
-0.896761
-0.556108
-0.293164
-0.110065
-0.00702937
0.0176978
-0.033013
-0.156183
-0.349459
-0.61154
-0.942344
-1.343
-1.81582
-2.36443
-2.99412
-3.7122
-4.52815
-5.45314
-6.49855
-7.67308
-8.97845
-10.4047
-11.9266
-13.5022
-15.0753
-16.5787
-17.9399
-19.0863
-19.9518
-20.4826
-20.6329
-20.4692
-19.9367
-19.0962
-18.0139
-16.7584
-15.3905
-13.9578
-12.496
-11.0344
-9.59948
-8.21585
-6.90402
-5.67847
-4.5465
-3.50889
-2.56208
-1.70085
-0.920474
-0.217365
0.411829
0.971938
1.47049
1.91737
2.32275
2.69457
3.03699
3.35094
3.63614
3.89323
4.12457
4.33392
4.52547
4.70299
4.86938
5.02659
5.17583
5.31776
5.45275
5.58104
5.70275
5.81794
5.9267
6.02912
6.12532
6.21544
6.29961
6.37796
6.45063
6.51777
6.57972
6.63637
6.68796
6.73468
6.77681
6.81462
6.84835
6.87818
6.90429
6.92689
6.94615
6.96225
6.97533
6.9855
6.99286
6.99749
6.99943
6.9987
6.99528
6.98912