/*--------------------------------*- C++ -*----------------------------------*\
| =========                 |                                                 |
| \\      /  F ield         | OpenFOAM: The Open Source CFD Toolbox           |
|  \\    /   O peration     | Version:  2012                                  |
|   \\  /    A nd           | Website:  www.openfoam.com                      |
|    \\/     M anipulation  |                                                 |
\*---------------------------------------------------------------------------*/
FoamFile
{
    version     2.0;
    format      ascii;
    class       volVectorField;
    location    "0.59";
    object      U;
}
// * * * * * * * * * * * * * * * * * * * * * * * * * * * * * * * * * * * * * //

dimensions      [0 1 -1 0 0 0 0];


internalField   nonuniform List<vector> 
42400
(
(12.2133 -11.0096 6.03758e-17)
(25.0315 -26.0068 8.37584e-17)
(30.4034 -22.7934 -8.55494e-17)
(20.6364 -6.51604 0)
(6.34483 19.4976 0)
(-4.5742 39.0374 -4.71814e-19)
(-8.52313 47.9353 0)
(-9.39588 50.9818 4.50857e-19)
(-10.6011 52.919 0)
(-12.6484 55.5206 4.20873e-19)
(-14.4525 58.4457 4.01216e-19)
(-15.2471 60.8968 -3.78904e-19)
(-15.2285 62.6494 -3.07086e-17)
(-15.0412 64.0397 3.12587e-17)
(-15.4732 65.6498 -3.02908e-19)
(-17.2572 67.7269 0)
(-20.8677 69.9679 0)
(-26.0245 71.1471 0)
(-31.7987 69.7748 0)
(-37.0938 65.28 0)
(-39.8223 58.0919 0)
(-38.0192 49.0674 -3.23135e-19)
(-32.5465 39.7457 -9.5567e-18)
(-25.9224 31.8135 1.9944e-18)
(-19.9144 26.1251 7.23864e-18)
(-15.1647 22.3705 -1.85648e-19)
(-11.8336 19.7219 -1.44121e-19)
(-9.81547 17.3586 2.08477e-19)
(-8.79079 14.8698 0)
(-8.37389 12.3069 0)
(-8.22825 9.97104 -4.05963e-18)
(-8.15419 8.10677 4.10821e-18)
(-8.09298 6.74178 -5.21081e-20)
(-8.05956 5.74409 5.83718e-18)
(-8.07497 4.95479 -5.79481e-18)
(-8.13378 4.26499 0)
(-8.20081 3.62848 0)
(-8.23435 3.02759 0)
(-8.19766 2.4526 0)
(-8.06058 1.90033 4.59879e-18)
(-7.80264 1.37188 -4.6168e-18)
(-7.4143 0.870861 4.06284e-18)
(-6.89595 0.403355 -4.8668e-19)
(-6.25748 -0.023672 -7.18053e-18)
(-5.51576 -0.403921 3.3671e-18)
(-4.68937 -0.733634 -2.93802e-18)
(-3.795 -1.00798 5.87832e-18)
(-2.85381 -1.22348 -2.73941e-18)
(-1.89435 -1.38827 -1.77834e-19)
(-0.941908 -1.49893 2.37072e-18)
(-0.0164281 -1.54854 -4.55482e-18)
(0.8606 -1.53929 -1.40881e-19)
(1.67444 -1.47171 2.28503e-18)
(2.41347 -1.35201 -2.45685e-19)
(3.07017 -1.19239 0)
(3.64278 -1.0077 0)
(4.13474 -0.813209 0)
(4.55363 -0.622641 1.77589e-19)
(4.90951 -0.446848 1.63921e-19)
(5.21334 -0.293236 0)
(5.47564 -0.165936 1.97259e-18)
(5.70578 -0.0665354 -2.06809e-18)
(5.91167 0.00488878 -1.67163e-18)
(6.09984 0.0487254 1.6403e-18)
(6.27578 0.0650162 0)
(6.44422 0.0530093 0)
(6.60949 0.0111047 -1.18206e-18)
(6.77555 -0.0628797 1.15562e-18)
(6.94605 -0.171223 1.40649e-19)
(7.12407 -0.315674 0)
(7.3117 -0.496735 0)
(7.50931 -0.712884 1.03781e-19)
(7.71461 -0.959851 9.27306e-20)
(7.92179 -1.23014 0)
(8.12129 -1.51315 7.22213e-20)
(8.3006 -1.79598 3.9818e-19)
(8.44599 -2.0654 -3.86326e-19)
(8.54477 -2.31027 -9.09045e-20)
(8.59084 -2.51663 -2.22812e-19)
(8.51523 -2.78621 -1.37229e-19)
(5.47223 -5.69472 0)
(24.2496 -24.8203 4.80584e-17)
(47.6181 -48.4035 -4.93785e-17)
(65.4376 -67.3161 0)
(72.1679 -74.8925 0)
(68.7993 -72.0606 5.60256e-17)
(59.7688 -63.2702 -5.67834e-17)
(49.2753 -52.9647 -4.49897e-19)
(39.6206 -43.4675 0)
(31.7143 -35.52 -4.21353e-19)
(25.7107 -29.195 -4.02395e-19)
(21.2189 -24.1918 -5.73411e-17)
(17.2707 -19.7333 2.3676e-18)
(12.2907 -14.4582 5.76068e-17)
(4.27211 -6.49831 5.29377e-17)
(-8.42506 5.67663 -5.35539e-17)
(-25.6325 21.9726 0)
(-43.7767 39.0791 8.0385e-20)
(-56.1224 50.6811 0)
(-56.4686 51.3394 0)
(-43.6655 40.6796 0)
(-22.9719 23.1294 -2.75212e-17)
(-2.3816 4.55588 2.88275e-18)
(12.0238 -10.0248 2.63797e-17)
(17.2919 -17.3081 0)
(13.4987 -16.5096 1.39018e-19)
(3.98774 -10.0132 1.46262e-19)
(-6.09298 -2.24005 -2.11935e-19)
(-12.9267 3.26187 -9.18055e-18)
(-15.7976 5.58709 9.30268e-18)
(-16.1257 5.79977 -7.84335e-20)
(-15.5284 5.23271 -4.24604e-20)
(-14.885 4.61753 -1.28191e-18)
(-14.4392 4.15562 1.35099e-18)
(-14.1441 3.80996 -9.39605e-19)
(-13.8721 3.48901 9.44236e-19)
(-13.5026 3.11955 0)
(-12.9573 2.66728 -1.44172e-19)
(-12.2038 2.12898 0)
(-11.2399 1.52506 -3.3146e-19)
(-10.0875 0.887769 3.16361e-18)
(-8.78556 0.25445 -3.50763e-18)
(-7.37666 -0.340257 2.35023e-19)
(-5.90526 -0.87329 -2.26666e-19)
(-4.4248 -1.34541 -8.33865e-20)
(-2.98883 -1.76942 -2.08693e-19)
(-1.63474 -2.14404 1.98954e-19)
(-0.370516 -2.45591 2.94986e-18)
(0.809803 -2.68623 -2.94645e-18)
(1.90254 -2.822 0)
(2.89088 -2.86281 1.91827e-19)
(3.75886 -2.80668 2.87927e-19)
(4.49463 -2.65675 1.96787e-18)
(5.09224 -2.42605 -1.96763e-18)
(5.55436 -2.1357 -2.60431e-19)
(5.89302 -1.81111 3.26138e-18)
(6.12766 -1.47757 -3.67537e-18)
(6.28164 -1.15673 -1.77462e-19)
(6.37839 -0.864599 -1.63816e-19)
(6.43834 -0.6112 2.55188e-18)
(6.47716 -0.401347 -2.51139e-18)
(6.50538 -0.236088 1.28744e-19)
(6.52916 -0.114274 1.36491e-19)
(6.55181 -0.033937 0)
(6.57555 0.0067221 -1.47177e-18)
(6.60301 0.00885133 1.0439e-19)
(6.63831 -0.0270728 1.72948e-18)
(6.6874 -0.100922 0)
(6.75776 -0.212392 -3.07102e-19)
(6.85724 -0.360361 1.5225e-19)
(6.9923 -0.542208 9.84706e-19)
(7.16583 -0.753139 -1.06316e-18)
(7.37541 -0.985701 -8.89707e-19)
(7.61247 -1.22972 8.77598e-19)
(7.86307 -1.47288 -1.6361e-19)
(8.10971 -1.70186 5.48418e-19)
(8.33394 -1.9038 -3.91498e-19)
(8.51747 -2.06888 9.09216e-20)
(8.65036 -2.18377 -4.41304e-19)
(8.65139 -2.34288 3.30531e-19)
(-0.0437189 1.50619 2.85019e-17)
(0.927336 2.79473 -9.46365e-20)
(2.90483 1.7803 -6.90586e-20)
(4.88498 0.05241 -1.00397e-19)
(5.50261 -1.77337 0)
(5.48385 -2.97447 7.93049e-17)
(5.27365 -3.40879 -1.57258e-16)
(5.06508 -2.98075 7.78588e-17)
(4.85697 -1.69134 -6.87905e-17)
(4.59275 0.320141 5.5588e-18)
(4.23104 2.84309 6.56737e-17)
(3.78356 5.64914 2.01003e-22)
(3.28203 8.54967 -1.37723e-20)
(2.75793 11.4767 -4.67028e-17)
(2.16715 14.6067 4.75559e-17)
(1.28154 18.4767 -3.52642e-19)
(-0.302056 23.8812 3.62712e-17)
(-2.73719 31.2232 -1.45274e-18)
(-5.12687 39.6527 -3.48728e-17)
(-5.68144 47.3115 -5.84916e-19)
(-3.78184 52.9544 5.9614e-19)
(-1.38667 56.5479 5.84353e-19)
(-0.735407 57.9916 0)
(-1.61317 56.7954 -4.8502e-19)
(-1.99078 52.8781 -1.64134e-17)
(-0.71101 47.0909 2.779e-17)
(1.57458 40.7819 -1.15929e-17)
(3.54314 35.1373 3.78571e-18)
(4.4328 30.6512 -3.83929e-18)
(4.2406 27.0964 -1.09344e-18)
(3.32089 23.9865 1.42139e-18)
(2.06158 20.9851 1.01383e-18)
(0.758477 17.9923 -1.63947e-18)
(-0.398596 15.053 0)
(-1.29116 12.2537 0)
(-1.84833 9.66182 -9.82104e-20)
(-2.03923 7.31069 0)
(-1.86807 5.21048 -1.46088e-19)
(-1.3772 3.35944 7.1307e-18)
(-0.632148 1.76211 -1.45637e-17)
(0.29503 0.438791 7.60638e-18)
(1.32106 -0.59022 0)
(2.34632 -1.32808 0)
(3.28279 -1.79995 6.29798e-18)
(4.08673 -2.04507 -5.99781e-18)
(4.76467 -2.11916 -2.42293e-19)
(5.34722 -2.08638 0)
(5.8775 -2.02131 0)
(6.37882 -1.98204 4.07183e-18)
(6.85154 -1.98258 -4.05224e-18)
(7.27154 -2.00135 -1.91113e-19)
(7.60003 -2.0032 0)
(7.80118 -1.95982 -2.86696e-18)
(7.85785 -1.86028 2.57445e-18)
(7.77824 -1.71168 -3.9628e-18)
(7.59247 -1.53272 4.1951e-18)
(7.34265 -1.34508 -3.31224e-18)
(7.07116 -1.16665 6.74158e-18)
(6.81176 -1.00834 -6.22461e-18)
(6.5854 -0.87419 1.74171e-19)
(6.40072 -0.763245 2.75111e-18)
(6.25771 -0.672077 2.40852e-18)
(6.15245 -0.596996 -2.50267e-18)
(6.08141 -0.535623 0)
(6.04436 -0.487666 1.68254e-18)
(6.04537 -0.454963 -1.05991e-19)
(6.0921 -0.440936 -2.14981e-18)
(6.19365 -0.449626 0)
(6.35751 -0.48452 3.54491e-19)
(6.58667 -0.547434 1.12031e-18)
(6.87746 -0.637756 -1.08154e-18)
(7.21896 -0.752217 0)
(7.59386 -0.885177 0)
(7.98058 -1.0292 -1.0254e-19)
(8.35569 -1.17563 9.13469e-20)
(8.696 -1.31513 4.8782e-19)
(8.98025 -1.43807 -7.97013e-19)
(9.18923 -1.5371 0)
(9.31516 -1.5955 1.0273e-19)
(9.29634 -1.72398 3.51791e-19)
(3.60004 -3.47573 -2.45247e-17)
(6.65955 -6.76395 3.60356e-17)
(9.67481 -8.4017 -1.79995e-17)
(12.6457 -9.7701 -1.55105e-17)
(15.6644 -9.92947 1.60764e-17)
(18.0511 -9.57304 0)
(19.9149 -9.07658 -1.86503e-17)
(21.14 -8.48864 1.88825e-17)
(21.4575 -7.64138 -7.48754e-18)
(20.829 -6.40081 7.63671e-18)
(19.4459 -4.76723 4.44342e-18)
(17.5835 -2.81443 -1.39802e-17)
(15.4496 -0.62419 2.52291e-17)
(13.1835 1.75684 -3.59185e-17)
(10.8704 4.31367 4.5956e-17)
(8.55256 7.05086 -2.53952e-17)
(6.27838 9.96501 -3.36239e-17)
(4.14587 13.0567 6.92309e-17)
(2.26745 16.3375 -3.67211e-17)
(0.689455 19.7423 5.83254e-19)
(-0.706561 23.1647 -2.05044e-19)
(-2.1712 26.6009 -4.08066e-17)
(-3.86025 30.0473 4.03859e-17)
(-5.64239 33.3359 4.80581e-19)
(-7.26859 36.2522 0)
(-8.70887 38.7907 3.53135e-19)
(-10.1952 41.1047 0)
(-11.8633 43.2706 2.62653e-17)
(-13.5048 45.1967 -1.76644e-18)
(-14.6967 46.6944 -2.5017e-17)
(-15.0829 47.5834 -2.26133e-17)
(-14.5413 47.7692 2.25073e-17)
(-13.1774 47.2606 -7.20467e-20)
(-11.2211 46.1411 -3.87e-19)
(-8.91626 44.5241 -1.63525e-17)
(-6.4593 42.5121 1.68186e-17)
(-3.98396 40.1785 0)
(-1.57436 37.5777 1.0957e-17)
(0.708624 34.7596 -1.0753e-17)
(2.80756 31.7871 4.74385e-19)
(4.64452 28.7291 -2.82757e-19)
(6.13412 25.6559 0)
(7.22429 22.6585 0)
(7.90963 19.8235 0)
(8.24178 17.2054 -1.34207e-19)
(8.32849 14.8179 2.21416e-18)
(8.29711 12.6323 -1.97158e-18)
(8.25411 10.6052 0)
(8.26215 8.72558 0)
(8.31551 7.00887 1.6268e-18)
(8.35266 5.48015 -1.51494e-18)
(8.30289 4.16409 1.5985e-18)
(8.12203 3.07357 -1.11315e-18)
(7.80959 2.19902 2.02924e-19)
(7.40785 1.5091 -1.34376e-18)
(6.9811 0.962617 1.74878e-18)
(6.59007 0.522187 -2.97764e-18)
(6.27485 0.163006 2.75065e-18)
(6.05118 -0.126304 0)
(5.91677 -0.348408 -1.7781e-19)
(5.86081 -0.503342 -2.58995e-18)
(5.87183 -0.592959 2.46135e-19)
(5.94175 -0.622906 4.90094e-18)
(6.06672 -0.602605 -4.33252e-18)
(6.24581 -0.544128 1.87811e-18)
(6.47879 -0.460755 1.91903e-18)
(6.76395 -0.365676 -1.42266e-18)
(7.09649 -0.271033 -2.18727e-19)
(7.46775 -0.187323 -1.52413e-18)
(7.86513 -0.123077 1.50152e-18)
(8.27278 -0.0847021 -3.31361e-19)
(8.67286 -0.076409 -1.34977e-18)
(9.047 -0.100132 1.16028e-18)
(9.37777 -0.155356 0)
(9.64991 -0.238751 -8.64361e-19)
(9.85079 -0.343783 2.66382e-19)
(9.97083 -0.460132 1.582e-18)
(10.0023 -0.57765 -6.44192e-19)
(9.94512 -0.671339 4.92649e-19)
(9.78534 -0.839262 -4.77775e-19)
(2.39326 -2.97551 -8.0027e-18)
(17.948 -12.9306 0)
(38.3934 -30.0945 0)
(55.169 -41.6684 -1.04432e-20)
(60.5357 -46.7269 0)
(57.5427 -45.5036 0)
(49.8547 -41.0022 0)
(40.8144 -35.7692 2.75742e-19)
(32.1795 -31.0292 0)
(24.5655 -27.0303 -7.63145e-20)
(18.1037 -23.7043 -2.05223e-17)
(12.6185 -21.0067 3.91648e-17)
(7.81311 -18.8037 -1.87481e-17)
(3.47334 -16.803 0)
(-0.562356 -14.8008 -4.66497e-20)
(-4.4535 -12.78 4.30336e-20)
(-8.25347 -10.7196 0)
(-11.9076 -8.59498 5.80157e-19)
(-15.3189 -6.46156 -4.9651e-18)
(-18.2823 -4.33858 -3.35121e-18)
(-20.5252 -2.24038 7.36009e-18)
(-21.9643 -0.278519 4.23179e-19)
(-22.6728 1.49039 0)
(-22.7455 3.13121 -1.33445e-17)
(-22.3095 4.74941 1.36482e-17)
(-21.5035 6.3972 -1.24314e-17)
(-20.4273 8.08093 1.26171e-17)
(-19.1365 9.78467 1.07869e-17)
(-17.6675 11.4784 -1.05845e-17)
(-16.0679 13.1207 0)
(-14.4089 14.6634 -7.58544e-18)
(-12.7704 16.0594 7.65016e-18)
(-11.2187 17.2684 4.35245e-19)
(-9.79316 18.2606 -5.12826e-18)
(-8.50328 19.0205 5.56487e-18)
(-7.33607 19.5426 -2.79689e-19)
(-6.26925 19.825 -4.39432e-20)
(-5.28114 19.8678 -3.50425e-18)
(-4.35726 19.6714 3.52006e-18)
(-3.48888 19.2389 2.68434e-18)
(-2.67042 18.5781 -3.07618e-20)
(-1.89354 17.7058 -2.53169e-18)
(-1.14085 16.648 0)
(-0.385902 15.4364 1.02848e-19)
(0.401032 14.1072 -1.51851e-18)
(1.23916 12.6975 3.57208e-18)
(2.12566 11.2484 -3.39602e-18)
(3.02372 9.80664 1.57524e-18)
(3.87397 8.42241 0)
(4.61341 7.1433 1.11566e-19)
(5.1839 5.99027 -1.69107e-18)
(5.55813 4.97375 1.6883e-18)
(5.76701 4.10513 1.45273e-20)
(5.87207 3.37841 -1.66646e-18)
(5.93782 2.77508 1.25045e-18)
(6.01866 2.27765 -1.63852e-18)
(6.14919 1.87233 -1.79557e-18)
(6.34365 1.54967 3.36074e-18)
(6.60086 1.30385 -3.02355e-18)
(6.91045 1.13115 3.1563e-18)
(7.25806 1.02822 0)
(7.62889 0.990552 -1.61656e-19)
(8.00966 1.01145 -2.46532e-18)
(8.3895 1.08154 2.13139e-18)
(8.76003 1.1889 5.45344e-19)
(9.11492 1.31966 0)
(9.44912 1.45896 1.88715e-18)
(9.75796 1.59205 -1.62089e-18)
(10.0363 1.70524 -2.02253e-19)
(10.2784 1.78677 -1.91264e-19)
(10.4773 1.82732 3.47524e-19)
(10.626 1.82026 -3.20657e-21)
(10.7184 1.76176 -1.26711e-18)
(10.7504 1.65086 1.09098e-18)
(10.7212 1.49 -1.1704e-19)
(10.6337 1.28591 0)
(10.4927 1.05126 -8.7164e-19)
(10.3025 0.800993 6.72123e-19)
(10.0657 0.56729 0)
(9.79417 0.27933 -4.52401e-19)
(4.39539 -2.646 -7.92273e-19)
(13.7747 -2.66153 -4.62682e-17)
(16.4114 -8.44118 4.11393e-17)
(21.356 -10.8614 -8.03788e-17)
(23.2039 -16.6116 3.91206e-17)
(22.4887 -20.5567 1.16898e-19)
(19.1642 -22.9885 2.83613e-17)
(14.8445 -24.8228 -2.92371e-17)
(10.9705 -26.7958 -1.02977e-19)
(7.94165 -28.9822 -2.66965e-20)
(5.50303 -31.0429 -1.7479e-17)
(3.35248 -32.6919 -1.27405e-17)
(1.35905 -33.7708 3.13401e-17)
(-0.533851 -34.1819 -2.29047e-17)
(-2.38273 -33.8856 4.24126e-17)
(-4.21081 -32.8651 -1.96832e-17)
(-5.97928 -31.1106 0)
(-7.59326 -28.6581 0)
(-8.91241 -25.6013 6.21943e-18)
(-9.7924 -22.1172 -3.14766e-18)
(-10.153 -18.4511 -2.92859e-18)
(-10.0667 -14.8127 -2.44149e-18)
(-9.70376 -11.3137 6.83305e-18)
(-9.23505 -8.03541 -4.48121e-18)
(-8.80627 -5.00982 -6.62019e-18)
(-8.51675 -2.21542 -3.50187e-19)
(-8.4211 0.401057 7.03919e-18)
(-8.53654 2.91289 -9.98914e-21)
(-8.84755 5.38367 1.11188e-20)
(-9.30926 7.82868 -2.29844e-20)
(-9.84595 10.1826 0)
(-10.3247 12.3046 -4.6699e-18)
(-10.6341 14.0859 8.64769e-18)
(-10.7159 15.454 -3.96368e-18)
(-10.5399 16.3617 0)
(-10.1291 16.8199 1.68748e-18)
(-9.54218 16.8862 -1.69558e-18)
(-8.84536 16.6475 0)
(-8.09483 16.1907 0)
(-7.32502 15.5892 -3.54687e-19)
(-6.54349 14.8999 4.04776e-19)
(-5.73876 14.1596 2.16518e-20)
(-4.88766 13.3908 0)
(-3.96715 12.605 1.37164e-18)
(-2.96376 11.8085 3.98829e-20)
(-1.88143 11.0061 -1.72297e-18)
(-0.745214 10.2029 -9.54773e-20)
(0.40171 9.40711 2.07209e-19)
(1.50904 8.63419 0)
(2.52552 7.89469 -1.99363e-18)
(3.42869 7.21649 3.72462e-18)
(4.22407 6.62449 -1.95215e-18)
(4.92107 6.106 -2.1877e-19)
(5.54694 5.64716 -1.97903e-18)
(6.13907 5.24144 2.39162e-19)
(6.72687 4.88167 3.37106e-18)
(7.3265 4.56408 -1.2592e-18)
(7.93955 4.28936 0)
(8.55569 4.06129 0)
(9.15731 3.88437 1.71431e-19)
(9.72448 3.76136 1.64175e-19)
(10.239 3.69165 0)
(10.6871 3.67046 2.2719e-18)
(11.0606 3.68907 -2.23558e-18)
(11.3564 3.73565 -2.4142e-18)
(11.5759 3.79647 -1.55811e-19)
(11.7232 3.85722 1.71806e-18)
(11.8029 3.90416 -1.73489e-18)
(11.8196 3.92513 1.69463e-18)
(11.7763 3.91007 -2.86201e-22)
(11.6749 3.85135 1.1813e-18)
(11.5171 3.74369 -1.16177e-18)
(11.3064 3.58392 -9.72552e-19)
(11.0507 3.37082 1.221e-18)
(10.7636 3.10563 -7.8298e-19)
(10.4628 2.79355 8.74077e-19)
(10.1646 2.44612 -7.14925e-19)
(9.87791 2.08031 1.3299e-18)
(9.59446 1.72508 -5.01779e-20)
(9.34089 1.3532 -4.62837e-20)
(-1.9069 -0.201853 -1.74897e-17)
(-11.9026 2.88154 7.72874e-20)
(-27.3446 9.69031 2.30694e-17)
(-42.4245 15.1281 -4.51686e-17)
(-53.02 19.0782 2.19842e-17)
(-60.7986 21.4946 -1.73266e-17)
(-66.4499 22.8485 2.80487e-18)
(-69.879 23.2593 1.49362e-17)
(-70.5714 22.4544 -9.40492e-18)
(-68.1211 20.2182 9.64916e-18)
(-62.6712 16.6208 -4.2679e-18)
(-54.9557 12.091 4.34927e-18)
(-45.9387 7.20297 -1.7222e-19)
(-36.4161 2.42127 2.76396e-19)
(-26.8268 -2.00023 9.71326e-20)
(-17.3294 -5.99584 9.17205e-20)
(-7.95432 -9.61135 8.02697e-18)
(1.21355 -12.8689 -8.17698e-18)
(9.84611 -15.6392 -1.28578e-19)
(17.3444 -17.6313 2.11234e-19)
(22.9357 -18.503 8.48922e-18)
(26.0727 -18.0537 -8.20348e-18)
(26.7487 -16.4112 0)
(25.5079 -14.0138 -2.00265e-19)
(23.122 -11.4383 0)
(20.3153 -9.18544 0)
(17.6357 -7.52026 -1.68199e-19)
(15.3291 -6.37855 -5.377e-18)
(13.4165 -5.45403 5.59064e-18)
(11.7063 -4.35843 4.61384e-18)
(9.94578 -2.77885 -4.63699e-18)
(7.99806 -0.659316 -1.78438e-20)
(5.81967 1.88813 1.21017e-20)
(3.47247 4.66233 0)
(1.11277 7.4078 -1.01069e-19)
(-1.07434 9.90605 0)
(-2.93196 12.0121 0)
(-4.35635 13.641 -6.53122e-20)
(-5.29422 14.7638 0)
(-5.73702 15.3982 0)
(-5.71129 15.5935 1.6665e-18)
(-5.26919 15.4185 -1.59224e-18)
(-4.47918 14.9487 0)
(-3.41928 14.2588 0)
(-2.17301 13.4185 0)
(-0.826626 12.4912 -6.68981e-20)
(0.535958 11.5333 9.5302e-20)
(1.83926 10.595 1.19447e-18)
(3.02739 9.71514 -1.28678e-18)
(4.0737 8.92493 1.32952e-18)
(4.97469 8.23219 -1.49737e-18)
(5.74681 7.62472 1.77019e-19)
(6.43693 7.10566 7.78924e-20)
(7.09117 6.66866 0)
(7.74163 6.29881 0)
(8.40478 5.98438 -1.24299e-18)
(9.07956 5.71685 -1.86644e-19)
(9.7505 5.49085 1.36366e-18)
(10.3933 5.30308 -1.31659e-18)
(10.9809 5.1511 1.27262e-18)
(11.4889 5.03226 2.28596e-18)
(11.899 4.94297 -6.11812e-20)
(12.2012 4.87843 -4.41468e-18)
(12.3936 4.83265 2.20032e-18)
(12.481 4.79877 1.23385e-19)
(12.4725 4.76937 2.50075e-19)
(12.3789 4.73692 1.81992e-18)
(12.2107 4.69408 -3.49341e-18)
(11.9767 4.63391 1.67439e-18)
(11.6837 4.55011 1.91015e-19)
(11.338 4.43704 1.38577e-18)
(10.948 4.28986 -1.51833e-18)
(10.5273 4.10442 0)
(10.0972 3.87741 -1.33656e-19)
(9.68594 3.60709 0)
(9.32148 3.29527 8.60775e-19)
(9.02027 2.94943 -5.92862e-20)
(8.78049 2.58471 -7.52701e-19)
(8.57584 2.21793 4.59113e-19)
(8.42437 1.87067 1.18205e-19)
(-8.43552 3.26441 2.6982e-18)
(-10.3969 3.49025 -4.05405e-18)
(-2.92464 -3.50217 2.61123e-19)
(6.76158 -9.7091 -3.88018e-18)
(13.2095 -13.9226 3.96291e-18)
(17.7864 -15.8947 -3.10834e-18)
(21.1493 -16.3196 6.17871e-18)
(23.9084 -15.8189 -2.58921e-18)
(26.5839 -14.8902 8.48137e-19)
(29.4853 -13.9241 -7.04438e-19)
(32.6734 -13.1842 0)
(35.9593 -12.776 2.27189e-19)
(39.0332 -12.6644 -2.08658e-19)
(41.5713 -12.6877 0)
(43.2716 -12.6277 0)
(43.8805 -12.3101 0)
(43.3173 -11.6918 0)
(41.6846 -10.8764 1.61642e-19)
(39.1077 -9.9689 0)
(35.655 -8.97916 -9.15225e-18)
(31.2896 -7.87417 8.90056e-18)
(25.9556 -6.50926 1.83406e-17)
(19.6647 -4.65378 -1.88863e-17)
(12.5207 -2.12435 -1.78452e-17)
(4.7639 1.12528 1.85122e-17)
(-2.87063 4.78646 -1.60397e-17)
(-8.92362 8.01597 1.64634e-17)
(-12.0568 9.90095 -1.24721e-17)
(-12.0425 10.1512 2.17708e-18)
(-9.99026 9.2802 1.05413e-17)
(-7.49568 8.16549 0)
(-5.67442 7.45174 7.2484e-20)
(-4.89983 7.33725 6.47484e-20)
(-4.99136 7.74119 0)
(-5.58393 8.50194 1.02012e-19)
(-6.33767 9.43844 0)
(-7.01738 10.3959 0)
(-7.48009 11.2664 1.76876e-18)
(-7.64926 11.9856 -3.0543e-18)
(-7.49903 12.5183 1.3826e-18)
(-7.04005 12.8521 9.40495e-19)
(-6.30729 12.9919 -9.66077e-19)
(-5.3508 12.9543 -1.80776e-20)
(-4.22832 12.7624 0)
(-2.99935 12.4431 8.58416e-19)
(-1.72003 12.0247 -7.57854e-19)
(-0.438347 11.5354 0)
(0.809428 11.0016 0)
(2.00032 10.442 -9.82218e-19)
(3.12026 9.8678 1.06125e-18)
(4.18196 9.30847 1.2041e-18)
(5.20594 8.79522 -1.15149e-18)
(6.19486 8.32075 -1.19408e-18)
(7.14853 7.87629 2.22935e-18)
(8.06401 7.46086 -1.11189e-18)
(8.92821 7.07043 -2.70853e-19)
(9.72031 6.7005 0)
(10.4156 6.34715 1.17112e-19)
(10.9903 6.00748 -9.60835e-19)
(11.4267 5.67981 1.97589e-18)
(11.7169 5.36375 -1.04312e-18)
(11.8643 5.06025 0)
(11.8823 4.77135 -1.33273e-19)
(11.7913 4.49971 0)
(11.6132 4.24793 -1.2351e-19)
(11.3674 4.01793 -1.11729e-19)
(11.0678 3.81044 -2.18072e-19)
(10.7227 3.62483 -1.69309e-18)
(10.3367 3.45906 1.45042e-18)
(9.9147 3.30972 -1.95044e-19)
(9.46582 3.17216 -1.44167e-18)
(9.00737 3.04054 1.74718e-18)
(8.56596 2.90783 -1.24294e-18)
(8.17407 2.76619 1.20917e-18)
(7.86088 2.60821 -1.1823e-18)
(7.64043 2.4291 8.86578e-19)
(7.50458 2.22866 8.66591e-19)
(7.42735 2.01239 -8.4026e-19)
(7.37623 1.78595 1.74605e-19)
(7.3468 1.57861 -1.58389e-19)
(-0.132853 1.53648 5.41198e-17)
(-6.79108 16.5806 7.29092e-17)
(-18.1341 21.7029 -1.42989e-16)
(-14.1146 27.3764 1.31875e-16)
(-5.0245 24.6502 -6.38351e-17)
(3.86084 22.5649 -1.9769e-19)
(9.5674 21.0783 4.566e-17)
(12.3341 19.9206 -8.73488e-17)
(12.9212 18.6486 5.85268e-18)
(11.8946 16.8228 3.68065e-17)
(9.816 14.0721 2.55495e-19)
(7.46702 10.2407 -2.55969e-17)
(5.7792 5.55771 2.61135e-17)
(5.38754 0.588812 -2.07305e-17)
(6.25297 -4.03861 2.11363e-17)
(7.71629 -7.86934 1.65742e-17)
(8.95417 -10.6501 -1.68773e-17)
(9.47201 -12.3643 -1.67869e-19)
(9.203 -13.3245 0)
(8.35145 -13.9382 -8.18637e-18)
(7.28088 -14.4038 8.36309e-18)
(6.39852 -14.6504 -9.45958e-20)
(6.01905 -14.4826 3.17071e-18)
(6.24511 -13.7427 -3.10876e-18)
(6.97112 -12.4031 -2.69856e-19)
(7.99944 -10.5699 0)
(9.12105 -8.44242 1.19734e-19)
(10.0757 -6.22532 3.23671e-20)
(10.6117 -4.09115 2.81179e-18)
(10.5611 -2.16706 -2.94983e-18)
(9.90005 -0.504194 -1.99231e-18)
(8.72794 0.931958 1.8769e-18)
(7.18074 2.25379 -1.58016e-19)
(5.40812 3.56434 3.2798e-19)
(3.52235 4.87829 -1.24893e-19)
(1.64781 6.17555 -1.40327e-19)
(-0.0751043 7.42439 -5.76879e-19)
(-1.52371 8.57894 5.70158e-19)
(-2.61525 9.58839 -2.83051e-20)
(-3.30977 10.4134 -8.36217e-21)
(-3.60544 11.0323 2.39498e-20)
(-3.53137 11.4395 -3.74795e-19)
(-3.13817 11.6433 9.1426e-20)
(-2.48815 11.6619 3.02184e-19)
(-1.64675 11.5203 -2.55192e-19)
(-0.676126 11.2471 2.22502e-19)
(0.369272 10.8718 0)
(1.44611 10.4237 2.99003e-19)
(2.52344 9.92952 -3.14613e-19)
(3.57776 9.41062 3.45355e-19)
(4.58318 8.87035 2.29687e-20)
(5.52428 8.30981 6.75683e-20)
(6.39436 7.74425 6.45905e-20)
(7.18021 7.1825 6.0612e-20)
(7.86459 6.62637 -6.30688e-19)
(8.4311 6.07872 6.538e-20)
(8.86711 5.54309 0)
(9.16796 5.02343 -9.17081e-19)
(9.34036 4.52357 6.7072e-19)
(9.40302 4.04663 0)
(9.38317 3.59485 -9.79726e-19)
(9.30989 3.17019 7.4114e-19)
(9.20642 2.77516 0)
(9.0851 2.41335 -1.12486e-19)
(8.94662 2.08926 0)
(8.78368 1.8075 -1.64097e-18)
(8.58695 1.57182 3.54748e-18)
(8.3511 1.38441 -1.68222e-18)
(8.07918 1.24544 2.04579e-19)
(7.78439 1.1527 1.95654e-19)
(7.48885 1.10121 -1.47281e-18)
(7.21917 1.08324 1.2604e-18)
(6.9995 1.08877 -1.65956e-19)
(6.84436 1.10663 -1.55332e-19)
(6.75418 1.12577 2.83469e-19)
(6.71623 1.13653 1.27309e-19)
(6.71091 1.13178 1.06889e-18)
(6.7202 1.10763 -4.79717e-20)
(6.73377 1.06365 -9.4634e-19)
(6.75077 1.01106 -1.95131e-19)
(0.802465 -3.72928 0)
(-7.01634 -5.43365 7.9349e-20)
(-22.9086 -3.02089 3.7937e-19)
(-40.6365 -0.963458 9.38707e-17)
(-54.6657 0.925199 -1.87964e-16)
(-67.0757 2.06209 1.83259e-16)
(-79.1127 2.96505 -9.07369e-17)
(-91.5581 4.44227 0)
(-104.631 6.61969 -3.03952e-19)
(-117.083 9.12346 6.49209e-17)
(-125.767 10.6504 -6.65955e-17)
(-126.439 9.56689 -4.87617e-17)
(-116.462 4.9953 9.13634e-17)
(-97.1409 -2.46924 -7.16077e-18)
(-73.1477 -11.0258 -6.24052e-18)
(-49.8248 -18.5418 -2.90235e-17)
(-30.9475 -23.4031 -3.1171e-19)
(-17.855 -24.9959 1.82576e-17)
(-9.87105 -23.6589 -1.8322e-17)
(-4.98355 -20.3173 -4.64955e-20)
(-0.119572 -16.11 -2.27761e-19)
(7.10895 -12.2036 -3.32485e-19)
(16.1756 -9.32922 9.5016e-18)
(24.0826 -7.407 -1.58241e-18)
(28.2998 -5.86091 -8.23932e-18)
(28.32 -4.27128 -2.68816e-19)
(25.128 -2.60046 6.52342e-18)
(20.1902 -1.02823 -1.23529e-17)
(14.7989 0.259123 1.09538e-17)
(9.8306 1.16923 -4.94723e-18)
(5.69903 1.71868 0)
(2.4754 1.98215 5.7525e-18)
(0.0235864 2.05839 -1.00314e-17)
(-1.8347 2.06207 4.35348e-18)
(-3.24771 2.10455 -2.20368e-18)
(-4.31831 2.24576 2.35221e-18)
(-5.10251 2.49583 1.0094e-20)
(-5.61939 2.84763 0)
(-5.874 3.27951 -1.0489e-20)
(-5.87608 3.75354 -2.35457e-20)
(-5.64354 4.23062 3.51317e-20)
(-5.20165 4.68027 -1.27183e-20)
(-4.58135 5.07948 1.53527e-20)
(-3.81756 5.41172 0)
(-2.94648 5.6665 0)
(-2.00366 5.83836 4.12414e-19)
(-1.02107 5.92686 -4.92779e-19)
(-0.0270931 5.93947 -2.38884e-20)
(0.953358 5.88078 -5.76549e-19)
(1.90241 5.75874 1.24413e-18)
(2.80556 5.58409 -5.66577e-19)
(3.64712 5.36606 0)
(4.41518 5.11235 8.14138e-19)
(5.10252 4.83111 -7.5177e-19)
(5.70524 4.52977 0)
(6.22368 4.21447 9.19844e-19)
(6.66254 3.89032 -8.60945e-19)
(7.02986 3.56176 9.19184e-19)
(7.33476 3.23302 -7.82034e-19)
(7.58461 2.90863 0)
(7.78285 2.59342 2.35869e-19)
(7.92845 2.29229 1.12846e-19)
(8.01729 2.00973 -9.32096e-19)
(8.04529 1.7495 1.08224e-19)
(8.01177 1.51454 9.01594e-19)
(7.92187 1.30715 0)
(7.78709 1.12908 1.07705e-19)
(7.62355 0.981628 0)
(7.44897 0.86555 0)
(7.27918 0.780785 -1.5356e-18)
(7.12562 0.726005 1.49737e-18)
(6.99415 0.698082 1.20915e-18)
(6.8855 0.691791 1.24526e-19)
(6.79694 0.700086 -1.11815e-18)
(6.72463 0.715092 -1.29478e-18)
(6.66599 0.729552 1.11656e-18)
(6.62098 0.738134 -1.24226e-19)
(6.59159 0.738003 -9.22817e-19)
(6.5796 0.728815 1.9653e-18)
(6.5845 0.71308 -6.3486e-19)
(-16.6542 6.10724 1.82953e-18)
(-21.9264 9.4409 -1.1657e-18)
(-10.7998 4.06106 1.09774e-18)
(3.51745 0.202351 -1.12402e-18)
(13.1562 -2.13399 -3.88138e-19)
(21.4444 -2.4696 -3.86993e-19)
(29.0576 -1.5087 0)
(36.1363 0.456373 -1.26483e-17)
(42.5631 3.1901 1.26772e-17)
(48.3624 6.57648 0)
(54.1076 10.3414 1.57575e-17)
(60.7655 13.9333 -3.2075e-17)
(68.973 16.676 -3.06406e-19)
(78.4021 18.0366 3.23579e-17)
(87.9106 17.8588 -1.66278e-17)
(96.3501 16.3928 -3.35334e-19)
(103.128 14.097 4.09554e-19)
(108.446 11.4152 0)
(112.838 8.67419 -1.6298e-17)
(116.478 6.24402 1.63464e-17)
(118.204 4.3412 2.82195e-19)
(113.421 3.36492 -1.46952e-17)
(96.7396 4.94157 1.54501e-17)
(71.5493 9.31147 -1.20524e-17)
(46.7613 13.9045 1.22992e-17)
(27.153 16.6387 2.67879e-19)
(13.2998 17.1978 -7.7028e-18)
(4.48431 16.1275 1.33795e-18)
(-0.47356 14.0643 1.15589e-17)
(-2.86102 11.6444 -1.23939e-18)
(-3.81473 9.32276 -4.33061e-18)
(-4.10757 7.33537 -2.61375e-18)
(-4.16734 5.73453 2.57051e-18)
(-4.18576 4.49177 0)
(-4.2185 3.56244 -7.9352e-20)
(-4.25775 2.89724 -5.33267e-20)
(-4.27327 2.44991 0)
(-4.23278 2.17567 -2.29645e-19)
(-4.10717 2.03828 2.35943e-19)
(-3.87396 2.01578 -3.06616e-21)
(-3.52365 2.08997 0)
(-3.06076 2.24017 1.27344e-20)
(-2.49926 2.44395 7.67043e-19)
(-1.8581 2.67991 -7.10243e-19)
(-1.15763 2.92798 0)
(-0.416775 3.17198 -7.60323e-19)
(0.347688 3.39569 8.94045e-19)
(1.12031 3.58762 0)
(1.88837 3.73992 0)
(2.64116 3.84874 -4.89929e-20)
(3.36865 3.91331 -5.13331e-20)
(4.05973 3.93393 0)
(4.70215 3.91299 1.00618e-18)
(5.28348 3.85426 -1.05239e-18)
(5.79227 3.76206 -1.08734e-18)
(6.21988 3.64079 6.24862e-20)
(6.56247 3.49453 2.16936e-18)
(6.8223 3.327 -2.1615e-18)
(7.00787 3.14162 -1.29594e-19)
(7.13232 2.94182 9.14578e-19)
(7.2107 2.73128 -1.23912e-19)
(7.25696 2.51426 0)
(7.2817 2.29552 0)
(7.2913 2.08025 9.81993e-19)
(7.28837 1.87355 -1.08867e-18)
(7.27275 1.68009 0)
(7.24279 1.50356 1.17051e-19)
(7.19652 1.34646 0)
(7.13275 1.20985 8.30511e-19)
(7.05202 1.09342 -8.10585e-19)
(6.95722 0.99564 1.95956e-19)
(6.85369 0.914207 1.61514e-18)
(6.74883 0.846484 -1.39794e-18)
(6.65122 0.790004 1.65685e-19)
(6.56929 0.742796 0)
(6.50961 0.703463 0)
(6.47539 0.670989 0)
(6.46572 0.644318 -1.10027e-18)
(6.47607 0.621907 -7.26284e-20)
(6.50017 0.602785 1.72052e-18)
(8.3266 0.143359 7.07502e-17)
(9.35246 7.2909 1.01021e-16)
(-0.822937 13.1006 -1.03573e-16)
(0.100672 16.1607 9.60574e-17)
(10.5009 11.9425 -9.84733e-17)
(21.7523 6.86881 -6.45403e-20)
(27.4366 3.55511 -7.88096e-20)
(26.9412 2.97952 0)
(23.0326 4.47424 2.34606e-19)
(18.5012 6.94762 0)
(14.7935 9.55398 -1.05456e-19)
(12.2296 11.6459 -5.10502e-17)
(10.7134 12.7517 5.19748e-17)
(10.0424 12.4224 4.02842e-17)
(10.0521 10.3118 -4.08202e-17)
(10.5907 6.38144 3.22773e-17)
(11.3724 1.0048 -3.35889e-17)
(11.7966 -5.16393 0)
(10.5993 -11.3852 0)
(6.46221 -16.3176 0)
(-0.897501 -18.9768 -2.24157e-17)
(-9.98069 -20.572 4.32952e-17)
(-17.9776 -22.8325 -2.41099e-18)
(-21.9332 -25.6167 -3.55038e-17)
(-22.4528 -27.6293 1.74397e-17)
(-22.2128 -27.9535 0)
(-22.3577 -26.7299 3.83014e-19)
(-22.3848 -24.6518 0)
(-21.7431 -22.3732 -1.01112e-17)
(-20.3581 -20.2352 9.88898e-18)
(-18.5751 -18.4033 -2.6319e-19)
(-16.7441 -16.8512 0)
(-15.0871 -15.4898 6.48591e-18)
(-13.6709 -14.2443 -1.25166e-17)
(-12.4455 -13.0815 6.06908e-18)
(-11.3119 -11.9842 -4.63872e-18)
(-10.1821 -10.9391 8.80248e-18)
(-9.00503 -9.92806 -4.15779e-18)
(-7.76828 -8.92925 0)
(-6.4856 -7.92197 0)
(-5.18714 -6.89093 0)
(-3.90733 -5.8318 2.13548e-18)
(-2.67906 -4.75331 -5.91165e-18)
(-1.52775 -3.67728 3.70129e-18)
(-0.468449 -2.63313 0)
(0.494201 -1.65055 -2.56403e-18)
(1.36377 -0.754023 2.50242e-18)
(2.14742 0.0400683 2.06526e-18)
(2.85299 0.723112 -2.96129e-19)
(3.48638 1.29279 -1.06479e-19)
(4.05045 1.75133 -8.09921e-20)
(4.54487 2.10433 -1.69341e-18)
(4.96748 2.35989 0)
(5.31686 2.52785 0)
(5.59521 2.61917 -1.3576e-18)
(5.81063 2.64525 1.46668e-18)
(5.97753 2.61748 0)
(6.11428 2.54688 0)
(6.2386 2.44396 8.73163e-20)
(6.36249 2.31853 1.44729e-19)
(6.48908 2.17947 0)
(6.61264 2.03425 0)
(6.72176 1.88863 -1.48595e-19)
(6.80389 1.74651 -1.42642e-19)
(6.84948 1.61006 1.16769e-18)
(6.85449 1.48018 -2.02179e-18)
(6.82107 1.35708 -9.7069e-20)
(6.75665 1.24077 1.85642e-18)
(6.67212 1.13148 -1.88652e-18)
(6.57977 1.02987 1.68837e-18)
(6.49142 0.937001 -3.20342e-19)
(6.4169 0.854168 -7.70679e-19)
(6.36303 0.782558 1.41303e-18)
(6.33301 0.722908 -3.79908e-20)
(6.32638 0.675219 -2.5402e-18)
(6.33971 0.638597 1.36309e-18)
(6.3677 0.611317 0)
(6.40443 0.591008 2.58687e-19)
(6.44438 0.574797 0)
(6.4836 0.561634 -8.80706e-19)
(-3.87477 -1.42225 0)
(-29.6215 -0.296818 -2.18188e-19)
(-70.0307 7.39472 2.23916e-19)
(-112.041 12.3767 8.44349e-17)
(-137.354 15.6238 -1.63739e-16)
(-139.432 12.8587 7.96671e-17)
(-121.478 5.32439 7.80574e-20)
(-94.0163 -4.10164 0)
(-66.2691 -12.6045 0)
(-43.2475 -18.581 0)
(-27.1503 -21.5742 1.04046e-19)
(-18.6194 -21.7776 4.18566e-19)
(-16.9892 -19.6364 0)
(-20.5669 -15.8531 -2.52549e-19)
(-26.7955 -11.2995 -6.93447e-19)
(-32.656 -6.99818 4.2984e-18)
(-35.0103 -3.94765 -3.87946e-18)
(-31.4635 -2.87319 2.21381e-19)
(-22.0986 -3.92205 0)
(-10.6128 -6.35572 -1.03812e-19)
(-1.95039 -8.70996 -3.20232e-19)
(1.92504 -9.6052 1.76497e-17)
(1.8129 -8.55427 -1.1605e-18)
(-0.612422 -6.05385 -1.67239e-17)
(-2.49541 -4.63226 -4.64435e-19)
(-1.34595 -6.363 5.50744e-20)
(2.01159 -9.57896 -1.1739e-17)
(5.09727 -12.1804 1.12097e-17)
(6.85432 -14.2353 2.3035e-19)
(7.71459 -16.0695 3.44984e-19)
(8.13063 -17.5964 3.36357e-19)
(8.22715 -18.756 -1.29828e-17)
(8.12391 -19.6187 1.31102e-17)
(7.92325 -20.1796 5.50982e-19)
(7.72195 -20.4157 -2.6754e-19)
(7.59875 -20.325 2.21077e-19)
(7.60137 -19.9337 -2.00644e-19)
(7.72918 -19.2641 0)