/*--------------------------------*- C++ -*----------------------------------*\
| =========                 |                                                 |
| \\      /  F ield         | OpenFOAM: The Open Source CFD Toolbox           |
|  \\    /   O peration     | Version:  2012                                  |
|   \\  /    A nd           | Website:  www.openfoam.com                      |
|    \\/     M anipulation  |                                                 |
\*---------------------------------------------------------------------------*/
FoamFile
{
    version     2.0;
    format      ascii;
    class       volScalarField;
    location    "0.43";
    object      p;
}
// * * * * * * * * * * * * * * * * * * * * * * * * * * * * * * * * * * * * * //

dimensions      [0 2 -2 0 0 0 0];


internalField   nonuniform List<scalar> 
42400
(
-11719.8
-11241
-10651.2
-9987.85
-9177.03
-8209.39
-7053.07
-5727.19
-4294.63
-2889.08
-1693.63
-797.198
-172.476
232.33
461.53
549.719
525.232
418.843
267.402
109.32
-22.5278
-106.866
-136.108
-120.251
-87.5733
-68.8399
-80.0522
-132
-238.335
-366.244
-434.817
-418.066
-360.357
-298.991
-241.169
-186.051
-134.557
-88.2167
-47.9042
-13.799
14.3895
37.2502
55.5245
69.9835
81.3431
90.219
97.1136
102.421
106.439
109.393
111.445
112.719
113.306
113.281
112.705
111.629
110.101
108.162
105.853
103.212
100.272
97.0662
93.624
89.973
86.1397
82.1512
78.0361
73.8268
69.5608
65.2821
61.0411
56.8936
52.8984
49.1137
45.5951
42.3992
39.5726
37.0876
34.983
33.8088
4179.49
3831.22
3367.15
2800.35
2128.08
1412.73
682.431
-43.0211
-720.821
-1287.46
-1696.22
-1941.18
-2044.5
-2038.26
-1955.97
-1827.94
-1676.39
-1515.36
-1351.2
-1184.64
-1015.55
-848.793
-695.215
-560.097
-428.154
-284.996
-156.907
-84.5377
-72.3544
-80.3298
-83.1011
-81.8929
-79.1418
-72.7532
-61.7785
-46.1043
-27.1355
-7.14505
11.7477
28.2186
41.8567
52.9054
61.8965
69.3831
75.7961
81.4131
86.3834
90.7688
94.5822
97.815
100.455
102.495
103.937
104.797
105.095
104.863
104.138
102.96
101.373
99.4209
97.1486
94.5992
91.8147
88.8351
85.6985
82.4416
79.0998
75.7087
72.3042
68.924
65.6076
62.3965
59.3332
56.4596
53.8182
51.4568
49.4153
47.6562
46.1712
45.5054
1633.63
1898.62
2323.55
2803.48
3273.11
3713.09
4162.24
4588.94
4917.38
5095.29
5113.64
4988.71
4747.15
4417.96
4027.58
3604.14
3176.15
2767.06
2392.53
2060
1768.18
1506.55
1258.15
1011.8
778.103
587.105
458.497
380.427
326.127
277.216
227.979
181.044
142.461
112.264
88.5399
70.1207
56.05
45.7384
39.0138
35.776
35.6019
37.8508
41.9842
47.5934
54.2597
61.4842
68.7647
75.6814
81.936
87.3499
91.8408
95.3949
98.0436
99.8457
100.875
101.211
100.934
100.125
98.8568
97.2006
95.2209
92.9774
90.5246
87.9122
85.1854
82.3854
79.5497
76.713
73.9068
71.1608
68.5025
65.9573
63.5485
61.2958
59.2164
57.3288
55.6443
54.1115
52.6629
51.5956
5685.9
5615.64
5530.29
5415.32
5234.93
4983.16
4649.54
4268.55
3892.11
3545.9
3229.8
2936.93
2663.37
2406.79
2165.58
1935.9
1712.51
1489.31
1260.64
1023.39
778.613
531.715
292.413
74.6223
-107.143
-244.272
-337.112
-393.147
-422.641
-434.511
-436.093
-430.996
-421.218
-406.407
-386.224
-360.607
-329.418
-291.634
-246.282
-194.418
-140.723
-91.082
-47.9775
-12.4033
16.3154
39.1677
57.0856
70.9185
81.4167
89.2188
94.8502
98.7336
101.206
102.537
102.944
102.602
101.659
100.235
98.4323
96.3373
94.0224
91.5494
88.9705
86.3303
83.6668
81.0127
78.3959
75.8405
73.367
70.9928
68.7321
66.5954
64.5898
62.7175
60.976
59.3582
57.8519
56.4177
54.978
53.6086
-7580.18
-7319.28
-7055.26
-6850.43
-6695.12
-6565.16
-6372.5
-6054.03
-5603.23
-5051.57
-4447.87
-3840.45
-3267.68
-2754.67
-2316.56
-1961.93
-1691.52
-1493.49
-1345.43
-1220.41
-1094.78
-951.872
-782.836
-587.677
-378.685
-179.283
-12.3835
112.185
200.073
265.007
319.05
366.174
400.432
409.59
386.699
339.953
285.848
236.863
199.565
174.412
157.88
147.098
140.039
135.427
132.444
130.494
129.102
127.901
126.62
125.086
123.21
120.968
118.382
115.503
112.395
109.125
105.756
102.344
98.9356
95.5686
92.2723
89.0689
85.9749
83.0021
80.1587
77.4504
74.8806
72.4512
70.1629
68.0151
66.0059
64.1318
62.3872
60.764
59.2512
57.8356
56.4998
55.2125
53.9467
52.7643
2424.07
2287.43
2070.1
1745.94
1287.5
779.241
297.749
-115.79
-458.23
-737.453
-959.271
-1127.18
-1244.94
-1318.88
-1359.34
-1379.48
-1391
-1397.2
-1389.99
-1355.45
-1280.66
-1159.11
-994.09
-793.27
-568.936
-333.66
-98.7587
123.12
316.083
465.774
564.922
613.925
620.042
594.599
550.649
499.702
449.556
404.67
366.893
335.218
309.293
287.398
268.025
250.236
233.553
217.799
202.954
189.061
176.164
164.283
153.405
143.489
134.476
126.294
118.871
112.133
106.014
100.452
95.3924
90.7873
86.5931
82.7711
79.2864
76.1075
73.2056
70.5544
68.1299
65.91
63.8748
62.0058
60.286
58.6992
57.23
55.8628
54.5819
53.3709
52.2127
51.0856
49.974
48.859
3001.61
2952.16
2904.54
2860.69
2791.45
2729.96
2705.13
2717.23
2744.58
2762.07
2741.22
2655.2
2489.32
2243
1928.49
1569.97
1197.78
840.157
520.414
264.3
98.7676
28.1344
24.3528
55.6073
111.599
191.478
285.185
376.992
455.502
514.931
552.477
567.085
559.719
534.165
497.038
455.651
415.03
378.649
346.428
319.21
295.942
275.639
257.586
241.136
225.73
210.993
196.767
183.065
169.986
157.64
146.109
135.434
125.623
116.661
108.518
101.155
94.5261
88.5846
83.28
78.5612
74.3769
70.6762
67.4095
64.5292
61.9898
59.7486
57.7661
56.0059
54.4353
53.0246
51.7474
50.5801
49.5017
48.4932
47.5371
46.617
45.7181
44.8244
43.9211
42.9574
1033.13
1365.08
1789.38
2147.02
2451.24
2693.22
2919.34
3130.7
3307.07
3435.45
3513.54
3543.05
3525.79
3464.37
3362.31
3224.12
3056.28
2867.16
2666.1
2462.91
2268.5
2094.58
1949.95
1836
1746.05
1668.5
1590.81
1496.23
1379.21
1240.06
1085.39
925.617
771.085
630.135
508.52
409.513
334.11
279.539
242.132
217.714
202.09
192.045
184.878
178.52
171.685
163.816
154.929
145.335
135.428
125.574
116.028
106.968
98.505
90.7069
83.6094
77.2229
71.5381
66.5293
62.1587
58.3797
55.1403
52.3852
50.0585
48.1046
46.4703
45.105
43.9622
42.9995
42.1792
41.4685
40.8389
40.2666
39.7312
39.216
38.7064
38.1902
37.6571
37.097
36.4988
35.8122
2318.14
2225.87
2120.66
2000.88
1846.44
1662.38
1448.79
1213.2
968.028
723.793
487.614
263.043
51.892
-144.697
-325.991
-491.165
-638.948
-766.994
-871.995
-950.089
-997.308
-1009.59
-982.683
-913.042
-800.917
-653.365
-484.525
-312.434
-154.125
-22.0664
77.1054
143.555
182.462
201.275
207.545
207.56
205.777
204.5
203.964
202.615
199.709
194.258
186.073
175.727
163.801
150.35
136.01
121.331
107.016
93.6983
81.7593
71.3427
62.4253
54.8993
48.624
43.4533
39.2481
35.8812
33.2377
31.2137
29.7152
28.6562
27.9583
27.5502
27.3675
27.353
27.4565
27.6354
27.8538
28.0829
28.3001
28.4884
28.6355
28.7326
28.7741
28.7559
28.6758
28.5318
28.3204
28.0005
-6307.24
-6306.44
-6276.49
-6205.83
-6116.26
-6060.59
-6046.92
-6046.58
-6020.11
-5945.35
-5822.06
-5657.02
-5452.14
-5207.2
-4926.67
-4620.54
-4298.97
-3967.72
-3628.57
-3282.56
-2932.55
-2583.84
-2243.61
-1920.22
-1622.07
-1355.83
-1125.62
-932.017
-773.029
-644.391
-539.738
-453.046
-379.273
-314.306
-255.096
-199.797
-147.846
-99.8878
-57.4023
-22.0484
5.00803
23.5109
34.1754
38.3795
37.7984
34.2255
28.7365
22.5094
16.293
10.6169
5.74396
1.79906
-1.20384
-3.31933
-4.63363
-5.24452
-5.25142
-4.75102
-3.83547
-2.59173
-1.10081
0.563033
2.33313
4.15096
5.96634
7.73735
9.43019
11.0188
12.4844
13.8149
15.0044
16.0515
16.9593
17.7331
18.3801
18.9079
19.3244
19.6365
19.8487
19.9303
-4721.48
-4062.11
-3220.87
-2433.06
-1681
-1051.27
-509.56
-33.3156
380.246
726.708
1009.67
1242.49
1436.22
1588.03
1681.65
1699.05
1633.7
1494.11
1298.45
1067
819.525
572.961
340.96
133.326
-44.3253
-190.24
-305.58
-393.449
-457.114
-499.355
-522.918
-531.228
-527.389
-514.174
-493.827
-467.91
-437.534
-403.771
-367.947
-331.655
-296.531
-263.965
-234.878
-209.653
-188.091
-169.705
-153.82
-140.336
-128.163
-116.936
-106.489
-96.723
-87.5798
-79.0149
-70.9927
-63.4832
-56.4584
-49.8924
-43.7607
-38.041
-32.7132
-27.7596
-23.1647
-18.9153
-15.0004
-11.4107
-8.13769
-5.17243
-2.50458
-0.121517
1.99209
3.85405
5.48403
6.90249
8.12958
9.18414
10.0834
10.8421
11.4706
11.9501
11599.7
11443.3
11179.6
10710.4
10027.9
9231.77
8411.07
7616
6854.81
6123.53
5424.34
4758.5
4120.31
3504.07
2911.3
2351.47
1836.8
1376.7
975.24
631.782
342.39
101.903
-97.8175
-268.021
-421.702
-568.671
-710.77
-843.337
-956.981
-1041.52
-1090.61
-1102.42
-1080.1
-1030.01
-960.871
-881.966
-800.942
-722.958
-650.872
-585.727
-527.466
-475.565
-429.296
-387.833
-350.39
-316.371
-285.407
-256.448
-229.234
-204.339
-181.774
-161.443
-143.286
-127.197
-113.003
-100.488
-89.4242
-79.5885
-70.7781
-62.8207
-55.5791
-48.9503
-42.8608
-37.2602
-32.1149
-27.4022
-23.105
-19.2082
-15.6958
-12.5489
-9.74504
-7.25857
-5.06149
-3.12506
-1.42144
0.075093
1.38739
2.53472
3.53127
4.36798
-11864.6
-11629.4
-11384
-11131.1
-10813.4
-10353.9
-9679.15
-8784.09
-7746.38
-6694.12
-5733.48
-4900.82
-4186.03
-3575.17
-3062.04
-2643.79
-2319.6
-2085.23
-1921.48
-1787.69
-1633.9
-1423.79
-1155.59
-862.081
-587.019
-361.918
-199.896
-99.3695
-51.5472
-45.2242
-67.6113
-106.701
-152.332
-196.746
-235.316
-266.151
-288.861
-303.876
-311.995
-314.03
-310.757
-302.913
-291.213
-276.411
-259.349
-240.91
-221.908
-203.292
-186.42
-171.132
-158.022
-146.592
-136.175
-126.478
-117.298
-108.512
-100.07
-91.9466
-84.1339
-76.6362
-69.4696
-62.6569
-56.2224
-50.187
-44.5661
-39.3685
-34.5959
-30.243
-26.298
-22.7423
-19.5522
-16.6993
-14.153
-11.8818
-9.85555
-8.04666
-6.43101
-4.98854
-3.7041
-2.58025
853.161
951.498
1011.63
995.568
987.422
1080.48
1274.48
1483.91
1632.45
1702.02
1708.76
1672.24
1607
1519.3
1404.56
1244.92
1016.69
710.374
350.789
-5.45865
-297.83
-492.812
-593.628
-627.569
-626.887
-612.104
-589.469
-558.511
-519.24
-474.234
-427.204
-381.736
-340.501
-304.987
-275.636
-252.133
-233.696
-219.32
-208.01
-198.887
-191.268
-184.689
-178.886
-173.736
-169.169
-165.085
-161.305
-157.601
-153.792
-149.715
-144.544
-138.526
-131.978
-124.927
-117.524
-109.973
-102.434
-95.0215
-87.8145
-80.8701
-74.2286
-67.918
-61.9556
-56.351
-51.1079
-46.2264
-41.7029
-37.5313
-33.7018
-30.2008
-27.0109
-24.1114
-21.4791
-19.0901
-16.9211
-14.9507
-13.1598
-11.5324
-10.0562
-8.73109
10977.9
10697
10311.7
9840.55
9306.84
8887.49
8532.62
8091.07
7477.84
6717.8
5888.53
5061.78
4288.37
3605.62
3013.26
2466.43
1916.08
1361.4
849.095
426.014
110.156
-104.902
-239.181
-316.996
-358.973
-378.857
-384.467
-380.083
-368.373
-351.366
-330.802
-308.202
-284.881
-261.931
-240.174
-220.149
-202.125
-186.16
-172.173
-160.024
-149.563
-140.669
-133.247
-127.2
-122.425
-118.749
-115.94
-113.693
-111.65
-109.365
-106.533
-103.257
-99.5987
-95.7117
-91.763
-87.8506
-83.9899
-80.149
-76.2891
-72.3864
-68.4381
-64.4591
-60.4766
-56.5246
-52.6397
-48.8574
-45.2094
-41.722
-38.4147
-35.2999
-32.3828
-29.6626
-27.1341
-24.7887
-22.6164
-20.6068
-18.7494
-17.0352
-15.4563
-14.0124
-3075.79
-3282.13
-3602.63
-4047.57
-4658.31
-5315.7
-5932.56
-6442.76
-6765.37
-6829.55
-6638.1
-6261.14
-5747.18
-5079.53
-4239.35
-3301.43
-2423.17
-1724.75
-1218.81
-861.652
-612.212
-444.641
-339.291
-279.276
-250.173
-240.135
-240.279
-244.846
-250.476
-255.077
-257.495
-256.833
-252.924
-245.788
-235.729
-223.288
-209.124
-193.918
-178.303
-162.829
-147.95
-134.02
-121.302
-109.978
-100.149
-91.8517
-85.078
-79.693
-75.5937
-72.9952
-71.4538
-70.5406
-70.0428
-69.762
-69.5024
-69.1079
-68.4758
-67.5415
-66.2689
-64.65
-62.7036
-60.4694
-58.0007
-55.3561
-52.5944
-49.7703
-46.9319
-44.1201
-41.3672
-38.6981
-36.1303
-33.6756
-31.3412
-29.1305
-27.0445
-25.0825
-23.2423
-21.5207
-19.9146
-18.4232
-14480.9
-13397.9
-11982.2
-10441.9
-8758.46
-7164.47
-5739.12
-4515.47
-3511.75
-2764.61
-2311.55
-2129.98
-2111.71
-2132.38
-2119.09
-2055.93
-1958.66
-1850.93
-1743.36
-1633.52
-1515.15
-1384.65
-1242.93
-1094.2
-945.104
-803.167
-674.619
-563.003
-469.161
-392.453
-331.242
-283.441
-246.173
-216.805
-193.208
-173.804
-157.475
-143.438
-131.152
-120.258
-110.53
-101.846
-94.1527
-87.4391
-81.7065
-76.9548
-73.1515
-70.2023
-68.0742
-66.3482
-65.205
-64.4683
-64.0317
-63.7875
-63.6196
-63.4212
-63.0998
-62.585
-61.8324
-60.8197
-59.5441
-58.0194
-56.2715
-54.3347
-52.2478
-50.051
-47.7831
-45.4794
-43.1709
-40.8832
-38.6371
-36.4489
-34.3314
-32.2941
-30.344
-28.4856
-26.7218
-25.0535
-23.4804
-22.0007
12097.9
11781.5
11293.1
10601.7
9739.51
8887.79
8088.16
7305.66
6497.5
5636.38
4713.6
3759.48
2856.52
2103.61
1549.01
1172.02
920.737
744.935
607.275
486.106
373.168
268.538
174.941
94.8663
31.0029
-14.8911
-44.714
-63.209
-74.7115
-81.8872
-86.0979
-88.1473
-88.7189
-88.413
-87.6482
-86.6485
-85.4973
-84.2065
-82.765
-81.1647
-79.4162
-77.5551
-75.624
-73.6544
-71.7521
-69.9686
-68.3514
-67
-65.8843
-65.0011
-64.3301
-63.837
-63.4775
-63.1974
-62.9359
-62.6304
-62.2226
-61.6637
-60.9183
-59.9649
-58.7985
-57.4269
-55.8692
-54.1523
-52.3078
-50.3686
-48.3662
-46.3294
-44.2828
-42.2467
-40.2377
-38.2686
-36.35
-34.4902
-32.6958
-30.9716
-29.3213
-27.7471
-26.2498
-24.8262
4793.03
4595.9
4396.13
4256.74
4121.04
4034.35
3990.52
3975.77
3976.66
3975.48
3946.67
3857.62
3680.61
3405.86
3044.19
2623.38
2183.33
1761.13
1371.76
1012.43
683.493
394.746
163.881
17.5047
-24.4996
24.2887
109.364
174.917
198.102
185.078
151.681
111.541
72.64
38.3855
9.70039
-13.5463
-31.8896
-45.9996
-56.5733
-64.272
-69.6812
-73.2982
-75.556
-76.8428
-77.4041
-77.4464
-77.1198
-76.5383
-75.7805
-74.8978
-73.9233
-72.877
-71.7685
-70.5994
-69.3659
-68.0608
-66.6768
-65.2075
-63.6498
-62.0045
-60.2764
-58.4749
-56.612
-54.7025
-52.762
-50.8061
-48.8496
-46.9055
-44.9847
-43.0959
-41.2462
-39.441
-37.6847
-35.9813
-34.3339
-32.7452
-31.2177
-29.753
-28.3516
-27.0091
-10128.9
-9936.29
-9658.39
-9266.49
-8780.06
-8251.28
-7714.22
-7185.17
-6670.78
-6176.24
-5701.33
-5235.41
-4760.29
-4258.41
-3720.14
-3146.91
-2549.88
-1951.43
-1386.5
-899.305
-521.1
-256.757
-93.1617
-3.74229
49.704
92.3549
123.139
128.655
105.539
67.2612
25.3974
-11.6648
-40.3201
-60.74
-74.4499
-83.3459
-88.9926
-92.4977
-94.6042
-95.8043
-96.424
-96.6718
-96.6653
-96.4568
-96.0583
-95.457
-94.6331
-93.5687
-92.2512
-90.6745
-88.8423
-86.7687
-84.4788
-82.0067
-79.3938
-76.6849
-73.9249
-71.1557
-68.4135
-65.7266
-63.1154
-60.5923
-58.1637
-55.831
-53.5929
-51.4459
-49.3856
-47.4071
-45.5051
-43.6742
-41.9097
-40.2077
-38.5651
-36.9801
-35.4518
-33.9798
-32.5645
-31.2062
-29.9039
-28.6535
-7375.11
-7265.84
-7123.75
-6930.78
-6661.45
-6326.44
-5930.78
-5481.59
-4987.02
-4457.36
-3905.98
-3348.79
-2802.28
-2281.48
-1798.41
-1361.48
-976.25
-645.696
-370.323
-148.471
23.021
148.111
231.61
279.429
297.652
292.288
269.13
233.581
190.509
144.196
98.0674
54.4725
14.9137
-19.5535
-48.2521
-71.0481
-87.9664
-99.2959
-105.34
-106.415
-102.984
-95.6648
-85.5372
-73.2138
-59.1651
-43.9549
-28.0893
-11.9603
4.04024
19.467
33.9234
47.1975
59.0067
68.9769
76.6944
81.823
84.2549
84.3737
82.7366
79.9284
76.4655
72.7134
68.8889
65.1038
61.4085
57.8227
54.3509
50.9916
47.7401
44.5898
41.5325
38.5586
35.657
32.8156
30.0213
27.2602
24.5187
21.7814
19.0408
16.2642
-3572.87
-3511.05
-3406.54
-3239.89
-3011.9
-2744.54
-2457.46
-2164.2
-1869.28
-1573.14
-1278.61
-995.164
-736.587
-515.123
-337.258
-203.531
-110.277
-52.1906
-23.3585
-17.4097
-27.8458
-48.6922
-75.2838
-104.592
-134.871
-164.991
-193.885
-220.403
-243.52
-262.598
-277.216
-287.073
-292.209
-293.175
-289.874
-282.267
-270.577
-254.575
-234.975
-212.802
-188.924
-164.11
-138.861
-113.798
-89.5947
-66.721
-45.4371
-25.8445
-7.94396
8.30999
22.9669
36.0262
47.4008
56.9308
64.4438
69.8484
73.2211
74.8309
75.0683
74.3275
72.9144
71.0246
68.7771
66.2553
63.5306
60.6668
57.7171
54.7219
51.7095
48.6977
45.6962
42.7086
39.7335
36.7658
33.7976
30.819
27.8184
24.7817
21.7007
18.5533
11921.5
11726.6
11495.3
11176.6
10716.2
10124.3
9399.65
8555
7612.11
6593.56
5526.19
4448.65
3415.61
2489.38
1720.7
1130.33
707.939
421.891
231.935
100.746
2.42753
-74.2627
-132.045
-173.939
-205.054
-230.203
-251.975
-270.698
-285.697
-296.534
-303.393
-306.756
-306.917
-303.489
-296.393
-286.162
-273.131
-257.929
-240.828
-222.046
-201.918
-180.853
-159.298
-137.697
-116.442
-95.8319
-76.0564
-57.2162
-39.3543
-22.4985
-6.70212
7.93156
21.2474
33.0597
43.1938
51.5383
58.0882
62.9539
66.3243
68.4033
69.3673
69.3661
68.5477
67.0711
65.0964
62.7668
60.1966
57.4699
54.6438
51.7551
48.8251
45.864
42.8742
39.8527
36.7924
33.6837
30.5151
27.2731
23.9474
20.5212
-8489.57
-8186.13
-7805.6
-7390.05
-6920.76
-6447.48
-5979.41
-5521.28
-5076.44
-4647.44
-4235.08
-3834.56
-3441.83
-3055.1
-2678.76
-2322.7
-1999.96
-1718.78
-1482.55
-1289.84
-1132.22
-994.164
-859.944
-722.276
-585.349
-461.611
-362.386
-290.392
-239.968
-201.99
-170.795
-145.013
-125.108
-111.277
-102.941
-98.0514
-94.9027
-92.3459
-89.5721
-86.0958
-81.6814
-76.2699
-69.916
-62.733
-54.853
-46.3985
-37.4696
-28.1431
-18.483
-8.5597
1.52806
11.6354
21.5625
31.0592
39.8457
47.6466
54.2324
59.4598
63.2943
65.8084
67.1553
67.5294
67.1278
66.1244
64.66
62.8438
60.7593
58.4698
56.0217
53.4482
50.7707
48.0021
45.148
42.2089
39.1814
36.0591
32.8338
29.4957
26.0351
22.4377
-4608.02
-4524.37
-4443.99
-4365.44
-4262.43
-4108.22
-3877.51
-3560.65
-3159.82
-2686.22
-2164.91
-1633.24
-1131.11
-687.192
-313.034
-4.52259
251.131
465.93
651.296
814.468
953.267
1059.19
1123.8
1141.26
1104.8
1012.06
877.489
726.66
580.356
449.476
337.665
246.013
172.953
115.892
72.586
40.6467
18.0466
3.0485
-6.06054
-10.7611
-12.2517
-11.4662
-9.11317
-5.71354
-1.62767
2.90178
7.72124
12.7389
17.9019
23.1753
28.5251
33.904
39.2397
44.4297
49.3429
53.8312
57.7503
60.9836
63.4634
65.1786
66.1701
66.513
66.2965
65.6083
64.5256
63.1133
61.425
59.5044
57.3862
55.0969
52.6557
50.0751
47.3627
44.5216
41.5512
38.4484
35.2078
31.8231
28.287
24.5873
13358.7
13165.9
12922.4
12563.5
12049.9
11459.8
10834.7
10183.8
9489.84
8726.05
7878.8
6956.03
5990.01
5031.93
4142.46
3370.22
2729.22
2199.84
1751.82
1360.98
1010.12
683.651
367.661
58.6829
-223.884
-439.427
-555.164
-577.596
-543.224
-484.408
-416.779
-347.423
-281.196
-221.204
-169.226
-125.514
-89.5539
-60.5621
-37.5122
-19.3281
-4.92171
6.67183
16.0605
23.6055
29.773
34.9148
39.2865
43.0922
46.4721
49.5198
52.2958
54.8369
57.1625
59.278
61.1784
62.8507
64.2773
65.4397
66.3221
66.9141
67.2105
67.2105
66.9155
66.3285
65.4552
64.3053
62.8933
61.2374
59.3574
57.2726
54.9993
52.5508
49.9367
47.1631
44.2329
41.1462
37.9006
34.4925
30.9177
27.1724
-12703.2
-12254.2
-11660
-10983.5
-10214
-9396.65
-8541.83
-7695.16
-6921.76
-6266.93
-5736.57
-5301.36
-4913.71
-4524.7
-4099.41
-3626.15
-3118.12
-2601.98
-2102.95
-1637.61
-1214.84
-840.573
-518.551
-246.398
-13.5964
192.453
375.567
526.984
632.957
685.604
688.932
655.959
601.794
538.047
471.853
407.971
349.453
297.742
253.821
217.495
187.903
163.935
144.661
129.386
117.319
107.546
99.4876
93.16
88.2426
84.4449
81.5497
79.3776
77.7736
76.6019
75.7441
75.0994
74.5837
74.1295
73.6835
73.2032
72.654
72.005
71.2272
70.2938
69.1816
67.8736
66.3605
64.641
62.7193
60.6036
58.3031
55.8269
53.1828
50.3765
47.4111
44.2874
41.0039
37.5573
33.9446
30.179
-1934.01
-1931.63
-1954.82
-2029.21
-2154.15
-2264
-2280.59
-2178.5
-1989.62
-1755.56
-1501.3
-1241.46
-988.811
-755.046
-551.215
-388
-272.07
-204.844
-183.375
-198.207
-233.184
-270.894
-299.114
-311.486
-306.89
-286.506
-252.55
-209.176
-163.349
-122.843
-92.5348
-72.6484
-59.9098
-49.5504
-37.6023
-22.6834
-4.97156
14.3926
33.2663
50.127
64.0905
74.8442
82.4985
87.3807
89.9181
90.8377
90.6764
89.4953
88.1088
86.5193
84.9562
83.6086
82.5554
81.8012
81.2993
80.9726
80.7318
80.4906
80.1759
79.7321
79.1225
78.3261
77.3333
76.1413
74.7513
73.1664
71.3912
69.4317
67.2945
64.9866
62.5152
59.8871
57.1083
54.1837
51.1163
47.9072
44.5558
41.0596
37.4155
33.6542
14127.1
13959.1
13752.9
13421.8
12877.6
12138.9
11232.4
10221.5
9180.12
8166.3
7216.98
6351.91
5580.37
4903.66
4314.83
3795.11
3314.46
2842.61
2362.25
1872.09
1385.24
920.987
498.517
131.121
-173.779
-414.143
-592.284
-713.244
-783.471
-810.233
-800.642
-761.119
-698.057
-618.106
-528.499
-436.101
-346.433
-264.203
-192.017
-130.736
-80.0976
-39.1319
-6.53808
18.9855
38.5958
53.2911
63.969
71.4418
76.1342
79.1368
81.0619
82.3306
83.256
84.0269
84.7286
85.3702
85.9128
86.295
86.4529
86.3342
85.9065
85.1589
84.0993
82.749
81.1359
79.289
77.2344
74.9931
72.5812
70.0106
67.2905
64.4289
61.4326
58.3072
55.0569
51.6843
48.1899
44.5752
40.8365
37.035
-6678.61
-6580.53
-6442.4
-6240.8
-6007.32
-5748.36
-5467.54
-5161.72
-4824.81
-4452.96
-4047.18
-3617.11
-3187.35
-2794.23
-2471.75
-2226.99
-2011.76
-1733.3
-1336.31
-860.578
-406.869
-53.5578
187.523
345.539
449.305
516.115
554.856
569.981
565.017
543.274
507.965
462.984
412.386
359.726
308.578
262.103
222.293
190.528
166.443
148.579
135.262
125.082
117.118
110.711
105.473
101.215
97.7255
94.8963
92.6817
91.0609
90.0075
89.4784
89.4075
89.7034
90.2537
90.9343
91.6138
92.1727
92.5086
92.5433
92.2273
91.539
90.481
89.0739
87.3494
85.343
83.0895
80.6193
77.9582
75.1269
72.1431
69.0221
65.7773
62.4209
58.9632
55.414
51.7786
48.0685
44.2736
40.4699
-4071.3
-3997.69
-3895
-3735.26
-3505.04
-3226.28
-2917.78
-2606.03
-2317.69
-2074.45
-1908.45
-1871.2
-2001.82
-2280.23
-2629.54
-2950.36
-3131.04
-3080.8
-2816.1
-2466.8
-2153.6
-1906.5
-1703.44
-1520.04
-1337.22
-1143.92
-940.85
-736.825
-542.847
-369.1
-222.971
-107.308
-20.9133
40.1538
81.1779
107.605
124.158
134.72
141.706
146.244
148.647
149.191
147.937
145.261
141.271
136.229
130.628
124.944
119.544
114.698
110.581
107.272
104.767
102.989
101.812
101.076
100.614
100.262
99.8766
99.3442
98.5817
97.5378
96.1878
94.5289
92.5729
90.341
87.8585
85.152
82.247
79.1667
75.9325
72.5628
69.072
65.4714
61.7678
57.9647
54.0655
50.0767
46.028
41.9654
5734.08
5691.89
5676.41
5613.67
5376.91
4931.65
4295.23
3519.43
2734.61
2088.14
1588.39
1121.77
636.016
171.687
-234.961
-548.034
-725.766
-805.169
-882.107
-985.913
-1074.8
-1118.02
-1114.29
-1070.09
-986.648
-864.175
-705.203
-519.433
-322.044
-130.933
36.8788
169.734
262.761
316.992
337.52
331.62
307.512
273.516
237.171
204.084
177.433
156.904
141.497
129.992
121.505
115.262
110.708
107.446
105.19
103.73
102.894
102.539
102.537
102.771
103.127
103.498
103.784
103.897
103.764
103.329
102.557
101.433
99.9541
98.1298
95.9789
93.5263
90.8002
87.8305
84.6485
81.2844
77.7693
74.135
70.4129
66.6391
62.8521
59.0961
55.3745
51.7348
47.9847
44.489
-4275.5
-3290.87
-2258.74
-1590.41
-998.294
-399.753
231.595
844.614
1386
1807.6
2075.35
2188.91
2183.85
2105.62
1983.95
1831.08
1650.88
1441.78
1201.71
938.017
668.014
408.905
172.003
-35.7081
-212.136
-355.166
-460.367
-518.824
-522.953
-473.218
-381.408
-267.724
-153.929
-57.5389
13.866
58.9772
82.9984
94.2037
99.1979
100.888
99.721
97.0287
94.2324
92.1922
91.2046
91.1638
91.8321
93.0022
94.5208
96.2619
98.1127
99.9692
101.736
103.331
104.683
105.731
106.428
106.742
106.646
106.062
105.061
103.649
101.834
99.6377
97.0856
94.2056
91.0276
87.5835
83.9085
80.0376
76.0044
71.8478
67.5992
63.2765
58.9085
54.5622
50.3126
46.3044
42.4251
39.028
403.403
721.06
1220.08
1925.33
2764.61
3480.44
3970.39
4259.89
4374.88
4302.61
4031.69
3598.8
3083.54
2561.22
2071.94
1631.59
1244.01
906.626
614.952
364.781
152.389
-25.9028
-173.481
-293.546
-391.029
-474.696
-555.751
-641.188
-728.176
-804.693
-854.641
-866.056
-835.51
-771.048
-688.141
-596.17
-501.392
-408.456
-321.671
-244.657
-179.168
-124.832
-80.0348
-43.038
-12.4422
12.815
33.5728
50.5429
64.3293
75.4427
84.314
91.3031
96.7038
100.763
103.685
105.631
106.733
107.094
106.803
105.99
104.637
102.796
100.517
97.836
94.7876
91.4012
87.7046
83.7234
79.4819
75.004
70.3155
65.4483
60.4494
55.395
50.3574
45.4296
40.7199
36.2163
32.3772
28.8883
11974.1
11431.9
10628.6
9469.51
7821.07
5955.43
4159.49
2705.88
1712.28
1092.28
668.639
331.985
70.2107
-113.909
-243.611
-347.09
-440.692
-531.145
-620.229
-707.78
-792.526
-870.641
-934.556
-975.746
-991.944
-991.718
-987.775
-984.304
-973.856
-945.895
-893.235
-814.298
-717.394
-612.281
-510.028
-417.971
-338.682
-271.439
-214.228
-165.016
-122.2
-84.6619
-51.6439
-22.3825
3.55123
26.2394
45.5271
61.5679
74.6576
85.1062
93.2259
99.3366
103.751
106.75
108.575
109.434
109.494
108.885
107.709
106.04
103.928
101.412
98.5226
95.2808
91.7043
87.8075
83.6038
79.1085
74.3407
69.3265
64.1022
58.7148
53.2263
47.7007
42.2309
36.8587
31.8007
26.9443
23.0571
19.312
-6279.47
-5742.77
-5101.74
-4460.14
-3788.72
-3042.34
-2195.51
-1289.62
-426.453
270.271
741.304
1028.7
1192.92
1232.46
1120.9
878.943
567.708
243.312
-60.8508
-328.806
-553.792
-732.528
-864.109
-951.264
-1000.66
-1020.37
-1015.36
-985.548
-928.308
-842.655
-733.508
-612.517
-492.794
-386.021
-297.484
-226.931
-171.943
-128.804
-93.9662
-64.6743
-39.2695
-16.1354
5.57241
25.7782
44.1781
60.5567
74.8809
86.947
96.6393
104.013
109.266
112.684
114.591
115.305
115.105
114.211
112.787
110.94
108.737
106.213
103.384
100.255
96.8244
93.0864
89.0345
84.6624
79.9667
74.9503
69.6268
64.0238
58.1872
52.1822
46.095
40.0255
34.1002
28.4177
23.1927
18.3656
14.6203
11.0509
2288.61
2239.27
2186.29
2138.54
2085.19
2135.83
2310.19
2571.76
2846.27
3056.95
3175.73
3209.36
3154.39
2988.04
2699.38
2312.27
1883.52
1469
1095.27
764.858
473.83
223.27
19.8372
-130.932
-231.633
-293.762
-330.347
-348.482
-347.775
-327.604
-297.358
-275.817
-274.793
-289.817
-308.593
-322.045
-325.357
-316.119
-293.822
-260.184
-217.739
-170.175
-120.862
-72.7649
-28.2947
10.8119
43.5403
69.5606
89.1451
103.026
112.184
117.662
120.419
121.249
120.755
119.355
117.322
114.822
111.948
108.752
105.258
101.477
97.411
93.0523
88.3905
83.414
78.1153
72.4956
66.5708
60.3759
53.9683
47.4297
40.8643
34.395
28.1591
22.2926
16.9624
12.2319
8.53771
5.35431
-4899.34
-4930.82
-4916.29
-4816.8
-4664.96
-4471.45
-4246.65
-4007.2
-3816.72
-3746.4
-3741.43
-3678.61
-3519.69
-3296.91
-3043.45
-2769.42
-2472.79
-2162.99
-1855.33
-1559.16
-1279.68
-1021.59
-788.854
-584.622
-412.363
-275.79
-177.105
-112.12
-70.6899
-41.0437
-13.8047
14.1846
40.6459
63.4234
83.3507
102.458
121.755
140.706
158.999
177.204
194.025
208.67
220.883
230.038
235.661
237.524
235.64
230.268
221.938
211.42
199.605
187.35
175.36
164.116
153.872
144.696
136.526
129.225
122.625
116.552
110.844
105.356
99.9639
94.5635
89.0707
83.4214
77.5731
71.5064
65.2266
58.7652
52.1797
45.5515
38.9824
32.5883
26.4931
20.8221
15.7007
11.2472
7.59223
4.56755
-5587.28
-5179.95
-4674.99
-4211.93
-3769.12
-3387.12
-3098.11
-2966.28
-2953.82
-2811.95
-2355.48
-1780.75
-1347.47
-1077.85
-923.749
-854.67
-850.175
-895.349
-977.215
-1075.05
-1162.86
-1226.35
-1265.78
-1279.59
-1257.84
-1195.52
-1097.69
-971.091
-821.236
-655.579
-486.064
-325.794
-184.031
-65.1356
30.0713
103.025
156.341
192.845
214.992
225.282
227.233
223.522
215.917
205.695
194.114
182.297
171.125
161.2
152.835
146.082
140.783
136.648
133.325
130.469
127.779
125.029
122.068
118.817
115.25
111.372
107.203
102.764
98.0721
93.1367
87.9639
82.5593
76.9334
71.1057
65.1099
58.9958
52.8305
46.6963
40.6866
34.9003
29.4343
24.3805
19.829
15.8507
12.4197
9.46709
11074.3
10978.3
10814.5
10537.7
10180.1
9820.92
9395.75
8759.06
7662.67
5959.24
4111.5
2772.28
1972.59
1368.91
788.972
226.503
-305.927
-794.672
-1220.46
-1569.23
-1832.2
-2001.24
-2072.72
-2055.36
-1966.19
-1819.75
-1625.81
-1392.28
-1133.89
-879.806
-665.139
-507.897
-398.286
-316.313
-249.064
-190.901
-139.704
-94.5622
-54.7047
-19.851
10.1283
35.5992
57.0022
74.7538
89.2187
100.722
109.575
116.097
120.624
123.493
125.024
125.499
125.145
124.125
122.551
120.496
118.011
115.14
111.923
108.395
104.592
100.542
96.2677
91.7859
87.1116
82.2595
77.2477
72.1013
66.8549
61.5543
56.2566
51.0285
45.9423
41.0706
36.4789
32.2199
28.3291
24.8348
21.7736
18.8186
10.8625
2.8897
-4.3838
-10.5446
-15.3918
-18.9219
-21.2663
-22.664
-23.185
-22.9369
-22.0199
-20.5471
-18.6559
-16.5026
-14.2388
-11.993
-9.85179
-7.8798
-6.11795
-4.55748
-3.18659
-1.98377
-0.92382
0.0169414
0.858854
1.61842
2.30859
2.93939
3.51856
4.05195
4.54385
4.99721
5.41382
5.79462
6.14004
6.45029
6.72556
6.9662
7.17278
7.34626
7.48796
7.5993
7.68205
7.73824
7.77084
7.78303
7.778
7.75894
7.72887
7.69033
7.64536
7.59545
7.54157
7.4842
7.42343
7.35909
7.2909
7.21868
7.1424
7.06233
6.97896
6.893
6.80532
6.71675
6.628
6.53947
6.45118
6.36279
6.27358
6.18256
6.08855
5.99026
5.88636
5.77553
5.65653
5.52815
5.3893
5.23888
5.07567
4.89815
4.70441
4.49215
4.25904
4.00341
3.72523
3.42718
3.11502
2.79668
2.48019
2.17147
1.87303
1.58426
1.30286
1.02642
0.753716
0.485217
0.223156
-0.028808
-0.266145
-0.484471
-0.678898
-0.845281
-0.980419
-1.08235
-1.15021
-1.18425
-1.18579
-1.15703
-1.10093
-1.02093
-0.920801
-0.804389
-0.675428
-0.537423
-0.393573
-0.246726
-0.0993476
0.0464839
0.189045
0.326908
0.458887
0.584003
0.701454
0.810596
0.910897
1.00192
1.0833
1.15477
1.21614
1.26732
1.30825
1.33889
1.35927
1.36947
1.36964
1.35994
1.34051
1.31154
1.27325
1.22604
1.17055
1.10773
1.03888
0.965683
0.89016
0.814635
0.741626
0.673716
0.613425
0.563112
0.524891
0.500556
0.49151
0.498702
0.522585
0.563114
0.619488
0.690978
0.776268
0.873757
0.981617
1.09788
1.22056
1.3477
1.47748
1.6082
1.73832
1.86647
1.99149
2.11243
2.22854
2.33922
2.44399
2.54243
2.63418
2.71884
2.796
2.86515
2.92566
2.97673
3.01736
3.04644
3.06272
3.06487
3.05152
3.02129
2.97287
2.90499
2.81655
2.70658
2.57431
2.41917
2.24075
2.0388
1.81295
1.56251
1.28547
0.977893
0.631696
0.225518
12.4174
3.38524
-4.84148
-11.7237
-17.1277
-21.0254
-23.5437
-25.0193
-25.4958
-25.1131
-23.9812
-22.219
-19.9795
-17.4482
-14.8066
-12.2088
-9.71202
-7.46893
-5.50669
-3.79081
-2.30394
-1.01965
0.092877
1.06307
1.91634
2.67338
3.35033
3.95964
4.51082
5.01117
5.4662
5.87996
6.25525
6.59386
6.89684
7.16483
7.39831
7.59785
7.7643
7.89884
8.00299
8.07863
8.1278
8.15308
8.15715
8.1433
8.11485
8.0748
8.02602
7.97089
7.91129
7.84852
7.78335
7.716
7.64626
7.57361
7.49743
7.41714
7.33239
7.24312
7.14962
7.05252
6.95272
6.85126
6.74909
6.64692
6.54503
6.44327
6.34105
6.2374
6.13108
6.02075
5.90501
5.78245
5.65172
5.51155
5.36072
5.19807
5.02229
4.8318
4.6246
4.39824
4.15015
3.87827
3.58216
3.26413
2.92973
2.58691
2.24396
1.90719
1.5795
1.26065
0.948635
0.641369
0.338013
0.0395971
-0.25097
-0.529321
-0.790257
-1.02864
-1.23934
-1.41695