/*--------------------------------*- C++ -*----------------------------------*\
| =========                 |                                                 |
| \\      /  F ield         | OpenFOAM: The Open Source CFD Toolbox           |
|  \\    /   O peration     | Version:  2012                                  |
|   \\  /    A nd           | Website:  www.openfoam.com                      |
|    \\/     M anipulation  |                                                 |
\*---------------------------------------------------------------------------*/
FoamFile
{
    version     2.0;
    format      ascii;
    class       volVectorField;
    location    "0.43";
    object      U;
}
// * * * * * * * * * * * * * * * * * * * * * * * * * * * * * * * * * * * * * //

dimensions      [0 1 -1 0 0 0 0];


internalField   nonuniform List<vector> 
42400
(
(13.9292 -9.55223 -1.05023e-16)
(36.5212 -21.3081 -1.47855e-16)
(41.4727 -21.8641 1.5113e-16)
(36.931 -8.63292 0)
(25.4851 7.74885 0)
(12.4326 26.3528 3.91721e-19)
(-0.723872 44.3334 0)
(-10.9538 57.5653 -3.47589e-19)
(-14.9731 62.885 0)
(-14.598 59.8332 -2.62708e-19)
(-14.0228 53.9355 -2.17731e-19)
(-15.1919 51.2633 1.79482e-19)
(-18.6346 51.3858 -4.59038e-19)
(-22.8717 52.0813 4.67709e-19)
(-26.6663 51.8736 1.03612e-19)
(-29.7416 50.2935 0)
(-32.0846 47.3757 0)
(-33.5756 43.2391 0)
(-34.0706 37.9633 0)
(-33.5268 31.6511 0)
(-32.0062 24.5185 0)
(-29.7296 16.871 1.48112e-19)
(-26.9229 9.36527 2.71272e-18)
(-23.8087 2.41378 -3.84212e-19)
(-20.3687 -3.76304 -2.15713e-18)
(-16.4837 -9.41273 5.80896e-20)
(-11.7243 -15.3484 3.94968e-20)
(-5.31568 -23.4422 -7.33469e-20)
(2.94436 -34.6529 0)
(10.5786 -43.1061 0)
(12.6905 -43.1627 -9.70254e-18)
(8.73966 -38.1301 9.83365e-18)
(3.51876 -32.7174 -1.60208e-19)
(0.197523 -28.5616 6.37969e-18)
(-1.31059 -25.7303 -6.32899e-18)
(-1.87316 -23.7676 0)
(-2.01015 -22.2403 0)
(-1.95795 -20.9146 0)
(-1.82465 -19.6945 0)
(-1.65527 -18.5474 -1.74025e-21)
(-1.46523 -17.464 1.7459e-21)
(-1.25972 -16.4417 -1.14316e-18)
(-1.0402 -15.4801 -3.15042e-19)
(-0.806601 -14.5792 3.31425e-18)
(-0.558514 -13.7385 -1.74839e-18)
(-0.296201 -12.9567 2.17993e-18)
(-0.0210793 -12.2316 -4.62217e-18)
(0.264124 -11.5602 2.30009e-18)
(0.555559 -10.9389 1.5353e-19)
(0.848724 -10.3642 -2.68348e-18)
(1.13899 -9.83298 5.37279e-18)
(1.42204 -9.34267 3.44882e-19)
(1.69415 -8.89153 -3.00918e-18)
(1.9524 -8.47853 3.20995e-19)
(2.19459 -8.10303 0)
(2.41923 -7.76456 0)
(2.62531 -7.46247 0)
(2.81216 -7.19571 -2.96476e-19)
(2.97914 -6.96259 -2.86909e-19)
(3.12547 -6.76073 0)
(3.25003 -6.58702 -4.23824e-18)
(3.35125 -6.43758 4.41944e-18)
(3.42705 -6.30776 3.80753e-18)
(3.47484 -6.19203 -3.73607e-18)
(3.49155 -6.08391 0)
(3.47369 -5.97589 0)
(3.41759 -5.85953 2.9036e-18)
(3.3197 -5.72572 -2.83853e-18)
(3.17692 -5.56518 -3.23583e-19)
(2.9872 -5.36918 0)
(2.74993 -5.13041 0)
(2.46647 -4.84388 -2.52151e-19)
(2.14039 -4.50776 -2.30882e-19)
(1.77745 -4.12387 0)
(1.3855 -3.69755 -1.93218e-19)
(0.974765 -3.23551 -1.23804e-18)
(0.556393 -2.74193 1.20089e-18)
(0.12662 -2.22329 3.00645e-19)
(-0.344433 -1.68257 9.45696e-19)
(-0.825593 -1.02245 8.91615e-19)
(0.573914 -2.78018 0)
(-14.1265 1.95354 4.87474e-17)
(-36.8408 13.6791 -4.98517e-17)
(-52.7532 16.7442 0)
(-56.4736 12.9342 0)
(-56.657 7.07737 1.5106e-17)
(-56.5248 1.86914 -1.58075e-17)
(-56.5864 -1.80595 3.451e-19)
(-56.7408 -3.61352 0)
(-56.5111 -4.27451 2.59861e-19)
(-55.1482 -5.09952 2.15049e-19)
(-52.3026 -6.52692 3.29946e-17)
(-48.279 -7.98229 1.01088e-18)
(-43.7958 -8.83333 -3.50654e-17)
(-39.421 -8.75704 -3.32054e-17)
(-35.3419 -7.73769 3.39397e-17)
(-31.4636 -6.08159 0)
(-27.4896 -4.27214 1.80232e-19)
(-23.0193 -2.80535 0)
(-17.6866 -2.14419 0)
(-11.1534 -2.74918 0)
(-3.10138 -5.14678 1.51657e-17)
(7.07325 -10.214 -3.04707e-18)
(19.292 -17.8341 -1.29658e-17)
(30.0138 -24.2891 0)
(32.4628 -24.0988 -1.09284e-19)
(25.0018 -17.4976 -4.01498e-20)
(14.9024 -10.8302 7.45437e-20)
(9.44188 -8.71316 1.70561e-18)
(8.52387 -10.9051 -1.72967e-18)
(8.59434 -15.3155 -5.2014e-20)
(8.21692 -19.1616 -3.6033e-20)
(7.40549 -20.9909 1.97169e-18)
(6.59182 -21.5413 -1.80418e-18)
(6.08194 -21.4813 -1.40759e-18)
(5.81615 -21.079 1.29456e-18)
(5.65574 -20.432 0)
(5.51015 -19.6245 1.47038e-20)
(5.34358 -18.7428 0)
(5.15606 -17.8515 4.91326e-20)
(4.95679 -16.981 -1.10526e-18)
(4.75184 -16.1392 1.16694e-18)
(4.54567 -15.3298 -9.06305e-20)
(4.34355 -14.5577 1.07587e-19)
(4.15163 -13.827 -2.08936e-20)
(3.97557 -13.1392 1.32204e-19)
(3.81954 -12.4932 -1.41001e-19)
(3.68616 -11.8873 -2.12252e-18)
(3.57674 -11.3201 2.1075e-18)
(3.49151 -10.7906 0)
(3.42981 -10.2983 -1.44979e-19)
(3.3901 -9.84228 -3.222e-19)
(3.37015 -9.42129 -2.15696e-18)
(3.36714 -9.03385 2.13613e-18)
(3.3779 -8.67817 3.00031e-19)
(3.39898 -8.35228 -4.52071e-18)
(3.42682 -8.05419 5.05148e-18)
(3.45778 -7.78187 2.96568e-19)
(3.4882 -7.53338 2.87024e-19)
(3.51447 -7.30681 -4.2919e-18)
(3.53304 -7.10024 4.22358e-18)
(3.54046 -6.91163 -2.52997e-19)
(3.53337 -6.73862 -2.36397e-19)
(3.50846 -6.5783 0)
(3.46249 -6.42704 2.92987e-18)
(3.39226 -6.28019 -1.28925e-19)
(3.29469 -6.13196 -3.46926e-18)
(3.16688 -5.97537 0)
(3.00638 -5.80246 6.5744e-19)
(2.81144 -5.60468 -3.11962e-19)
(2.58139 -5.37363 -2.22424e-18)
(2.31699 -5.10188 2.41882e-18)
(2.02079 -4.78404 2.13833e-18)
(1.69731 -4.41776 -2.09029e-18)
(1.35343 -4.0044 4.1306e-19)
(0.999768 -3.54847 -1.52358e-18)
(0.652257 -3.05725 1.09311e-18)
(0.324148 -2.55125 -3.00688e-19)
(0.0196422 -2.06912 1.59973e-18)
(-0.180982 -1.57676 -1.25782e-18)
(-14.8443 11.4549 -7.32097e-18)
(-34.1051 30.8911 1.98235e-19)
(-39.4338 35.118 1.54181e-19)
(-30.4668 30.6037 2.28953e-19)
(-27.54 28.6522 0)
(-33.2172 35.406 -5.9361e-17)
(-39.7546 43.555 1.28746e-16)
(-43.5281 49.3725 -6.95178e-17)
(-44.8553 53.1851 8.1524e-17)
(-44.272 55.8263 1.65604e-18)
(-41.9297 57.2251 -8.64637e-17)
(-38.1364 57.0833 -2.07439e-19)
(-33.447 55.567 -1.87947e-19)
(-28.5108 53.072 7.68213e-17)
(-23.821 49.9984 -7.8402e-17)
(-19.5397 46.7005 1.46919e-19)
(-15.6133 43.3118 -5.81036e-17)
(-11.886 39.791 6.85424e-18)
(-8.1869 36.0937 5.16003e-17)
(-4.47733 32.2289 4.89206e-19)
(-0.92388 28.2942 -4.10333e-19)
(2.03382 24.4609 -3.3317e-19)
(3.6614 20.9618 0)
(3.18388 18.1294 1.06487e-19)
(0.472218 16.276 1.48629e-17)
(-3.26186 15.2785 -2.64165e-17)
(-6.08244 14.3472 1.16166e-17)
(-6.83572 12.7296 -7.91302e-18)
(-5.58296 10.3212 7.97576e-18)
(-3.24593 7.37554 5.69291e-18)
(-0.6718 4.14865 -1.04376e-17)
(2.04461 0.852532 1.11559e-18)
(4.74567 -2.42508 3.65233e-18)
(7.19565 -5.39343 0)
(9.21459 -7.71353 0)
(10.6537 -9.38913 8.94189e-21)
(11.3972 -10.4705 0)
(11.4354 -11.0618 -1.07181e-19)
(10.9055 -11.3427 -9.06853e-19)
(10.0555 -11.4981 1.61024e-18)
(9.12704 -11.605 -9.31054e-19)
(8.26226 -11.6422 0)
(7.51032 -11.5781 0)
(6.87496 -11.4156 -1.25017e-18)
(6.34928 -11.1868 1.15045e-18)
(5.9232 -10.9244 7.72416e-20)
(5.58273 -10.6491 0)
(5.31182 -10.3702 0)
(5.09524 -10.0913 -2.06011e-18)
(4.92044 -9.81361 2.05019e-18)
(4.77788 -9.53827 1.4478e-19)
(4.66051 -9.26641 0)
(4.56305 -8.99934 2.64416e-18)
(4.48135 -8.73834 -2.32766e-18)
(4.41194 -8.48447 4.40762e-18)
(4.35176 -8.23849 -4.65937e-18)
(4.298 -8.00092 4.28587e-18)
(4.24801 -7.77196 -8.99052e-18)
(4.19925 -7.55158 8.7549e-18)
(4.14925 -7.33953 -7.92503e-20)
(4.0956 -7.13536 -4.13443e-18)
(4.03592 -6.93845 -3.87657e-18)
(3.9679 -6.74792 4.04396e-18)
(3.88925 -6.56262 0)
(3.79776 -6.38101 -2.91853e-18)
(3.6913 -6.20097 1.10126e-19)
(3.56786 -6.01966 3.85426e-18)
(3.42562 -5.83334 0)
(3.26305 -5.63724 -6.69766e-19)
(3.07912 -5.42561 -2.1769e-18)
(2.87346 -5.1919 2.12844e-18)
(2.6467 -4.92922 0)
(2.40081 -4.63101 0)
(2.13941 -4.292 2.35616e-19)
(1.86836 -3.90928 -2.19724e-19)
(1.59733 -3.48278 -1.26541e-18)
(1.34233 -3.01654 2.03889e-18)
(1.12159 -2.52975 0)
(0.94372 -2.0698 -3.39444e-19)
(0.848599 -1.65594 -1.41364e-18)
(-13.7702 9.52168 -5.08028e-17)
(-31.8284 21.7036 7.52647e-17)
(-39.7376 28.8582 -3.8259e-17)
(-42.4636 29.8311 -3.7593e-17)
(-41.2796 27.9483 3.81339e-17)
(-33.2045 20.1127 0)
(-17.8791 7.09399 -6.67942e-17)
(-0.241232 -6.81697 6.83817e-17)
(14.6541 -18.3077 -5.81704e-17)
(24.5896 -26.1731 5.93838e-17)
(29.3442 -30.196 -5.08439e-17)
(29.7063 -30.8837 9.77597e-17)
(26.9399 -29.1507 -9.04069e-17)
(22.3495 -25.9251 8.32022e-17)
(17.0902 -22.1066 -7.62071e-17)
(11.9336 -18.3577 3.6294e-17)
(7.41148 -15.1303 2.98337e-17)
(3.81185 -12.7536 -5.44766e-17)
(1.25944 -11.4464 2.58834e-17)
(-0.284534 -11.2953 -4.60409e-19)
(-0.971428 -12.3033 4.34564e-19)
(-1.05344 -14.3574 8.42378e-18)
(-0.828975 -17.1988 -8.3067e-18)
(-0.568139 -20.3474 -1.73019e-19)
(-0.460879 -23.2859 0)
(-0.545233 -25.5829 -5.62017e-20)
(-0.635717 -27.0975 0)
(-0.448444 -27.9655 8.72792e-18)
(0.231975 -28.4272 4.53473e-19)
(1.4921 -28.6621 -9.38677e-18)
(3.31889 -28.7042 -9.66195e-18)
(5.588 -28.5004 9.68188e-18)
(8.01984 -27.9673 9.18117e-20)
(10.1631 -27.1029 1.14464e-21)
(11.4927 -25.8852 -8.6863e-18)
(11.6883 -24.2719 8.77796e-18)
(10.7598 -22.2221 0)
(9.05366 -19.7415 6.52542e-18)
(7.1851 -17.1371 -6.48208e-18)
(5.80039 -14.9621 1.20091e-19)
(5.21605 -13.5268 1.30562e-20)
(5.28115 -12.7156 0)
(5.63113 -12.217 0)
(5.98317 -11.7945 0)
(6.212 -11.3693 1.14206e-19)
(6.3098 -10.9368 -1.25521e-18)
(6.31071 -10.5113 1.17593e-18)
(6.24886 -10.1067 0)
(6.14894 -9.73021 0)
(6.02719 -9.38377 -2.22861e-18)
(5.8942 -9.06635 2.05141e-18)
(5.75706 -8.77553 -2.39072e-18)
(5.62062 -8.5084 1.75067e-18)
(5.48806 -8.26194 -3.20516e-19)
(5.36134 -8.03314 2.07994e-18)
(5.24138 -7.81905 -2.6607e-18)
(5.12827 -7.61681 4.59555e-18)
(5.02138 -7.42368 -4.25185e-18)
(4.91956 -7.23708 0)
(4.82125 -7.05462 2.61768e-19)
(4.72462 -6.87415 3.9867e-18)
(4.6277 -6.69373 -3.45025e-19)
(4.52849 -6.51164 -7.6087e-18)
(4.42502 -6.32634 6.81392e-18)
(4.31546 -6.13642 -2.98393e-18)
(4.19816 -5.9405 -3.11556e-18)
(4.07174 -5.73713 2.30463e-18)
(3.93514 -5.52464 3.46408e-19)
(3.78766 -5.30101 2.64397e-18)
(3.62908 -5.06374 -2.57147e-18)
(3.45972 -4.80972 5.90184e-19)
(3.28064 -4.5353 2.49503e-18)
(3.09378 -4.23644 -2.15912e-18)
(2.9022 -3.90909 0)
(2.71049 -3.54987 1.87064e-18)
(2.52558 -3.15691 -4.87231e-19)
(2.35868 -2.73152 -3.80572e-18)
(2.22619 -2.28448 1.62048e-18)
(2.14569 -1.84632 -1.49107e-18)
(2.12473 -1.48004 1.47771e-18)
(4.44636 -0.544877 3.39921e-17)
(10.6944 0.174329 0)
(11.8794 3.15118 0)
(10.4691 10.1105 1.79354e-19)
(6.13829 17.6748 0)
(1.22294 25.7874 0)
(-4.49094 33.5419 0)
(-11.3813 40.0271 2.59424e-19)
(-18.7792 44.9529 0)
(-25.5448 47.967 -3.56384e-19)
(-30.5167 48.905 6.64154e-17)
(-33.1298 48.0857 -1.2626e-16)
(-33.5075 46.2455 5.94241e-17)
(-32.1445 44.2108 0)
(-29.5008 42.5264 -1.01947e-20)
(-26.0745 41.5612 -2.27646e-19)
(-22.3867 41.5754 0)
(-19.0932 42.7977 2.5781e-17)
(-16.6855 45.197 -5.02397e-17)
(-15.5788 48.5766 1.96872e-18)
(-15.899 52.5766 2.19707e-17)
(-17.4209 56.6877 6.33547e-20)
(-19.4748 60.2105 0)
(-20.953 62.2695 -9.44781e-18)
(-20.776 62.0079 9.97559e-18)
(-18.4166 59.1551 -2.00203e-18)
(-13.9204 54.1335 2.05394e-18)
(-7.80692 47.7067 -3.26466e-18)
(-0.891111 40.6012 3.36423e-18)
(5.91325 33.3184 0)
(11.8293 26.1377 7.63421e-18)
(16.3555 19.2034 -7.74539e-18)
(18.9786 12.7457 7.45355e-21)
(19.0466 7.3016 9.26221e-18)
(16.8367 3.26374 -9.37693e-18)
(14.0908 0.172166 -3.19867e-19)
(12.3205 -2.74494 2.75922e-19)
(11.6637 -5.55097 5.28564e-18)
(11.5969 -7.80505 -5.31585e-18)
(11.7145 -9.24777 -3.86794e-18)
(11.7872 -9.96617 3.2268e-19)
(11.6902 -10.1701 4.0805e-18)
(11.4004 -10.0462 0)
(10.9602 -9.74184 -2.96436e-19)
(10.4317 -9.35851 2.83703e-18)
(9.87039 -8.9599 -6.68256e-18)
(9.31575 -8.58256 6.32848e-18)
(8.79161 -8.24464 -2.89675e-18)
(8.30987 -7.95236 0)
(7.87477 -7.70473 -2.18888e-19)
(7.48619 -7.49686 2.89427e-18)
(7.14173 -7.32223 -2.91815e-18)
(6.83795 -7.17393 -4.93032e-20)
(6.57093 -7.04534 2.64363e-18)
(6.33658 -6.93052 -2.00265e-18)
(6.13074 -6.82427 2.47368e-18)
(5.94927 -6.72215 2.59122e-18)
(5.78816 -6.62046 -4.95804e-18)
(5.64352 -6.51611 4.30802e-18)
(5.51172 -6.40657 -4.50575e-18)
(5.38933 -6.28977 0)
(5.27328 -6.16399 2.38279e-19)
(5.16079 -6.02782 3.51691e-18)
(5.04949 -5.88004 -3.02106e-18)
(4.93734 -5.7196 -7.90723e-19)
(4.82275 -5.54553 0)
(4.70453 -5.35689 -2.79179e-18)
(4.58191 -5.15277 2.40669e-18)
(4.45463 -4.93218 3.27303e-19)
(4.32289 -4.69411 2.89293e-19)
(4.18749 -4.4374 -5.66162e-19)
(4.04981 -4.16084 -1.66804e-20)
(3.91192 -3.86309 2.27158e-18)
(3.77663 -3.54286 -1.9695e-18)
(3.64766 -3.19908 2.21011e-19)
(3.52995 -2.83125 0)
(3.43052 -2.44046 2.05169e-18)
(3.35861 -2.0341 -1.58314e-18)
(3.32602 -1.6345 0)
(3.36287 -1.27486 1.41872e-18)
(-0.462333 0.243103 3.01434e-19)
(-8.32307 2.14877 1.60151e-17)
(-16.3081 7.60714 -1.33042e-17)
(-22.1773 9.0679 2.40526e-17)
(-26.9507 11.5193 -1.09603e-17)
(-34.8427 14.954 -2.01937e-19)
(-43.2217 17.9261 -5.31461e-19)
(-49.1603 18.8707 3.526e-19)
(-51.2782 17.6965 1.4003e-19)
(-49.2392 14.6994 4.88625e-19)
(-43.1375 10.0821 -8.17041e-18)
(-33.3494 3.99086 -1.1084e-17)
(-20.5374 -3.3067 2.01887e-17)
(-5.78066 -11.3007 -2.32119e-17)
(9.33959 -19.1911 4.80734e-17)
(22.9119 -25.898 -2.45221e-17)
(33.1898 -30.347 0)
(39.1809 -31.7227 0)
(41.1328 -30.0896 2.68134e-17)
(39.9631 -25.9248 -6.66557e-19)
(36.68 -19.8634 -2.6103e-17)
(32.1053 -12.5243 2.16761e-17)
(26.9719 -4.57728 -4.02819e-17)
(22.2343 3.07315 1.83212e-17)
(18.8613 9.50644 9.36576e-18)
(17.1884 14.296 -5.0101e-18)
(16.6729 17.5923 -4.73107e-18)
(16.17 19.8614 -8.56159e-20)
(14.5496 21.599 1.33874e-19)
(11.3438 23.1007 -3.44712e-19)
(7.03307 24.3058 0)
(2.71858 24.7934 -1.3782e-17)
(-0.506416 24.1078 2.80622e-17)
(-1.93391 22.1324 -1.42697e-17)
(-1.31467 19.1033 0)
(1.05387 15.4014 1.1648e-17)
(4.32811 11.4828 -1.16835e-17)
(7.58243 7.7935 0)
(10.2097 4.63195 0)
(11.9513 2.07084 7.65965e-18)
(12.8107 0.0867682 -7.87896e-18)
(12.9724 -1.3754 9.83896e-20)
(12.6552 -2.42322 0)
(12.0578 -3.17424 -5.64666e-18)
(11.335 -3.72644 6.7914e-19)
(10.5912 -4.14969 5.80481e-18)
(9.88695 -4.48786 3.0575e-19)
(9.25099 -4.76582 -5.25547e-19)
(8.69239 -4.99683 0)
(8.20953 -5.18824 4.06366e-18)
(7.79593 -5.34486 -7.41174e-18)
(7.44352 -5.47053 3.75589e-18)
(7.1442 -5.56863 3.74521e-19)
(6.89041 -5.64208 3.23574e-18)
(6.67526 -5.69327 -5.00982e-19)
(6.49248 -5.72399 -5.16895e-18)
(6.33639 -5.7355 1.89492e-18)
(6.20182 -5.72858 0)
(6.08408 -5.70368 0)
(5.97895 -5.66104 -2.30765e-19)
(5.88268 -5.60083 -2.15877e-19)
(5.79202 -5.52315 0)
(5.70421 -5.42815 -3.00715e-18)
(5.61701 -5.31602 2.95861e-18)
(5.52869 -5.18692 3.24862e-18)
(5.43803 -5.04101 2.18809e-19)
(5.34428 -4.87834 -2.30829e-18)
(5.24719 -4.69886 2.42386e-18)
(5.14695 -4.50234 -2.36713e-18)
(5.04422 -4.28843 -3.33371e-20)
(4.94008 -4.05661 -1.79025e-18)
(4.83612 -3.80634 1.75093e-18)
(4.73436 -3.53706 1.61352e-18)
(4.63736 -3.24839 -2.01618e-18)
(4.54823 -2.9402 1.45535e-18)
(4.47066 -2.61299 -1.62703e-18)
(4.40941 -2.26816 1.50992e-18)
(4.37088 -1.91003 -2.89474e-18)
(4.36441 -1.54974 3.0534e-20)
(4.41016 -1.21545 2.94547e-20)
(3.18215 -1.86119 -1.34447e-17)
(12.3646 -8.51331 -1.37834e-19)
(25.1675 -15.2551 2.00148e-17)
(26.6128 -16.9519 -4.03584e-17)
(9.53898 -6.72329 2.04974e-17)
(-16.3822 9.55533 -2.00229e-17)
(-35.4207 22.5129 -4.64082e-19)
(-42.9111 28.8291 2.08897e-17)
(-42.8166 30.8164 -2.26518e-17)
(-39.1941 30.6754 2.21506e-17)
(-34.2035 29.2943 -2.27732e-17)
(-28.969 27.1661 2.28965e-17)
(-24.1486 24.5528 -2.09329e-17)
(-20.016 21.4792 2.13448e-17)
(-16.4049 17.8368 -4.10994e-20)
(-12.8277 13.5471 -1.40558e-20)
(-8.8857 8.58173 -1.97108e-17)
(-4.5349 3.16581 2.01179e-17)
(-0.156652 -2.24661 -1.36428e-19)
(3.72556 -6.70573 -4.35978e-19)
(6.50349 -9.36146 -1.71804e-18)
(7.25852 -10.0703 1.00374e-18)
(5.46995 -8.95241 0)
(1.73027 -5.91854 3.21718e-19)
(-2.40625 -1.44171 0)
(-5.77166 3.32344 0)
(-7.97598 7.54593 3.28889e-19)
(-9.05952 11.0282 9.16161e-18)
(-9.3093 13.832 -9.61595e-18)
(-9.01712 15.9912 -1.19044e-17)
(-8.30222 17.479 1.23453e-17)
(-7.15557 18.2219 -4.30009e-19)
(-5.55192 18.1523 4.32312e-19)
(-3.52427 17.2805 0)
(-1.21069 15.7336 3.7283e-19)
(1.13565 13.707 0)
(3.24779 11.4139 0)
(5.01173 9.03722 2.47988e-19)
(6.42228 6.69662 0)
(7.51119 4.52462 0)
(8.29789 2.66463 -6.98109e-18)
(8.79451 1.15838 6.56859e-18)
(9.02157 -0.0177793 0)
(9.02627 -0.920793 0)
(8.87242 -1.62114 0)
(8.62398 -2.18331 2.87072e-19)
(8.33372 -2.65473 -3.05544e-19)
(8.03766 -3.06391 -4.02422e-18)
(7.75659 -3.4252 4.29109e-18)
(7.50039 -3.74489 -3.674e-18)
(7.27259 -4.02578 4.07443e-18)
(7.07368 -4.26983 -3.88897e-19)
(6.90282 -4.47887 -1.65888e-19)
(6.75845 -4.65467 0)
(6.63842 -4.79878 0)
(6.54008 -4.91245 1.99466e-18)
(6.46029 -4.99663 1.41859e-19)
(6.39558 -5.05207 -2.05475e-18)
(6.34234 -5.07947 1.79087e-18)
(6.29694 -5.07955 -1.72017e-18)
(6.25597 -5.05318 -2.89659e-18)
(6.21635 -5.0014 1.47072e-19)
(6.17544 -4.92545 5.44286e-18)
(6.13118 -4.82677 -2.68248e-18)
(6.08208 -4.70695 -1.35056e-19)
(6.02725 -4.56765 -3.17809e-19)
(5.96642 -4.41052 -2.17257e-18)
(5.89983 -4.23712 4.18517e-18)
(5.82827 -4.04879 -2.01323e-18)
(5.75291 -3.8466 -2.55681e-19)
(5.67532 -3.63131 -1.7741e-18)
(5.59736 -3.40337 1.91963e-18)
(5.52119 -3.16295 0)
(5.44917 -2.91008 2.08366e-19)
(5.38395 -2.64482 0)
(5.32843 -2.36744 -1.39103e-18)
(5.28603 -2.0787 2.61895e-20)
(5.26135 -1.78064 1.28208e-18)
(5.26173 -1.47891 -9.15671e-19)
(5.30081 -1.19852 -2.38791e-19)
(-7.74862 3.26114 5.36244e-18)
(-18.5119 12.6932 -8.07864e-18)
(-25.8779 11.1129 -1.05783e-19)
(-25.4784 9.85396 -1.6325e-17)
(-23.526 5.34904 1.67577e-17)
(-20.8978 3.34196 -2.11332e-17)
(-19.7054 3.47598 4.51368e-17)
(-19.3243 4.36697 -2.34761e-17)
(-18.6075 5.13092 2.76081e-17)
(-17.3675 5.56968 -2.74675e-17)
(-15.7301 5.57661 0)
(-13.7536 5.08567 1.61374e-19)
(-11.5048 4.1223 2.46239e-19)
(-9.0874 2.76045 0)
(-6.63462 1.06932 0)
(-4.29003 -0.899259 0)
(-2.16508 -3.10954 0)
(-0.331165 -5.56145 -1.57675e-19)
(1.18484 -8.27776 0)
(2.41294 -11.2483 2.38641e-17)
(3.4898 -14.375 -2.34059e-17)
(4.64043 -17.4814 -4.08693e-17)
(6.05852 -20.3534 4.17493e-17)
(7.64448 -22.6956 3.7125e-17)
(9.10306 -24.1844 -3.80396e-17)
(9.96287 -24.5136 3.48669e-17)
(9.74643 -23.4015 -3.55722e-17)
(8.09784 -20.7291 3.15662e-17)
(4.94326 -16.6208 -2.82586e-18)
(0.64723 -11.3965 -2.92568e-17)
(-4.07943 -5.60726 0)
(-8.41222 0.0518826 -3.80355e-19)
(-11.642 4.95717 -3.42423e-19)
(-13.3373 8.68203 0)
(-13.3807 11.0136 -3.67514e-19)
(-11.8813 11.9123 0)
(-9.12199 11.5254 0)
(-5.5292 10.1814 -6.4933e-18)
(-1.70919 8.30881 1.16557e-17)
(1.73855 6.34853 -5.56659e-18)
(4.43342 4.60547 -4.63596e-18)
(6.25907 3.19845 4.80313e-18)
(7.2936 2.12473 1.41508e-19)
(7.70893 1.30903 0)
(7.70328 0.648758 -4.35942e-18)
(7.4636 0.0559722 3.81433e-18)
(7.14139 -0.520136 0)
(6.83415 -1.09195 0)
(6.58665 -1.65047 2.98284e-18)
(6.40846 -2.17958 -3.31763e-18)
(6.29161 -2.66552 -3.02339e-18)
(6.22337 -3.10022 2.84135e-18)
(6.19235 -3.48037 2.40616e-18)
(6.18973 -3.80587 -4.26712e-18)
(6.20877 -4.07832 2.02628e-18)
(6.24391 -4.30002 4.2958e-19)
(6.29025 -4.47343 0)
(6.34322 -4.60097 -1.4352e-19)
(6.39857 -4.68502 1.20159e-18)
(6.45234 -4.72798 -2.36435e-18)
(6.501 -4.73231 1.21757e-18)
(6.54155 -4.70062 0)
(6.57163 -4.63568 1.52015e-19)
(6.58951 -4.54042 0)
(6.59421 -4.41795 1.35009e-19)
(6.58546 -4.27145 8.83303e-20)
(6.56371 -4.10416 1.70366e-19)
(6.53004 -3.91924 1.58918e-18)
(6.48609 -3.71969 -1.39248e-18)
(6.43394 -3.50824 1.54528e-19)
(6.376 -3.28723 1.40546e-18)
(6.31486 -3.05857 -1.70553e-18)
(6.25321 -2.82373 1.2966e-18)
(6.19373 -2.58376 -1.26068e-18)
(6.13904 -2.33942 1.32376e-18)
(6.09171 -2.09132 -1.03195e-18)
(6.05438 -1.84008 -1.09183e-18)
(6.03033 -1.58671 1.05815e-18)
(6.02459 -1.3343 -2.75561e-19)
(6.04522 -1.10297 2.64765e-19)
(-9.98348 4.03521 -1.03817e-17)
(-21.5451 8.23675 -1.45145e-17)
(-25.0731 9.51411 2.9204e-17)
(-26.2885 8.82996 -2.79623e-17)
(-28.1633 9.16398 1.37817e-17)
(-30.1312 9.68117 1.24343e-19)
(-31.3525 10.2751 -9.94144e-18)
(-31.303 10.8436 1.84597e-17)
(-30.1721 11.2794 -2.20636e-18)
(-28.3125 11.5579 -6.71156e-18)
(-25.9593 11.6262 -3.36307e-19)
(-23.1963 11.4535 1.55267e-18)
(-20.0448 11.0408 -1.56683e-18)
(-16.5132 10.4034 -1.99616e-18)
(-12.6115 9.57792 2.03254e-18)
(-8.37276 8.61517 4.98714e-18)
(-3.8722 7.56657 -5.0752e-18)
(0.779316 6.47469 1.50226e-19)
(5.45478 5.36976 0)
(10.0306 4.26467 -9.52718e-18)
(14.4054 3.15977 9.36415e-18)
(18.5368 2.03663 5.48793e-19)
(22.4906 0.849515 9.41534e-18)
(26.4165 -0.467645 -1.00079e-17)
(30.4218 -1.98155 5.38751e-19)
(34.3787 -3.63464 0)
(37.8412 -5.16369 -2.6536e-19)
(40.217 -6.14734 -1.01383e-20)
(40.982 -6.16148 -1.77556e-18)
(39.9117 -4.93601 1.95675e-18)
(37.2118 -2.44943 -2.43846e-18)
(33.3824 1.04485 2.89328e-18)
(29.0081 5.11374 4.0726e-19)
(24.6013 9.28305 4.63168e-18)
(20.4971 13.1194 -9.49652e-18)
(16.886 16.2734 4.82318e-18)
(13.8576 18.4921 4.78219e-18)
(11.453 19.6041 -4.83783e-18)
(9.68813 19.5753 1.11112e-19)
(8.50481 18.5088 6.73971e-20)
(7.73778 16.6206 -1.50808e-19)
(7.15223 14.2607 4.59154e-18)
(6.52185 11.7929 -3.64538e-19)
(5.74555 9.46247 -4.39793e-18)
(4.89925 7.36507 4.08153e-18)
(4.1614 5.4824 -3.8285e-18)
(3.69502 3.77452 0)
(3.53741 2.23549 -2.88596e-18)
(3.626 0.878894 2.95181e-18)
(3.86407 -0.286033 -1.95308e-18)
(4.17194 -1.26164 4.16748e-19)
(4.50026 -2.0633 2.30716e-19)
(4.82438 -2.71306 1.94768e-19)
(5.13404 -3.23418 1.62082e-19)
(5.42579 -3.64755 1.20347e-18)
(5.69869 -3.97025 -1.45873e-19)
(5.9523 -4.21547 0)
(6.18583 -4.39314 9.1875e-19)
(6.39804 -4.51084 -6.32738e-19)
(6.58743 -4.5746 0)
(6.75245 -4.58958 6.64177e-19)
(6.89183 -4.56048 -5.76825e-19)
(7.00475 -4.49181 0)
(7.09094 -4.38804 4.02456e-20)
(7.15083 -4.25361 0)
(7.18551 -4.09298 9.80438e-19)
(7.1968 -3.91057 -2.223e-18)
(7.18717 -3.71064 1.02734e-18)
(7.15965 -3.49725 -1.59428e-19)
(7.11768 -3.27409 -1.54482e-19)
(7.06495 -3.04439 9.83603e-19)
(7.0052 -2.81083 -8.13e-19)
(6.94206 -2.57556 9.35659e-20)
(6.87889 -2.34016 9.27122e-20)
(6.81865 -2.10579 -2.22208e-19)
(6.76393 -1.87332 -1.25967e-19)
(6.71702 -1.64343 -9.2289e-19)
(6.68035 -1.41685 5.01246e-21)
(6.65751 -1.19536 8.61653e-19)
(6.65356 -0.995192 1.60894e-19)
(-7.45346 3.15324 0)
(-15.7491 6.6127 -1.07388e-19)
(-16.3921 3.87692 -2.55658e-19)
(-11.9864 -0.44575 -4.31601e-17)
(-5.37868 -5.6457 8.79066e-17)
(3.41584 -10.2923 -8.93911e-17)
(12.5059 -13.8047 4.53954e-17)
(19.9572 -15.3151 0)
(24.5845 -14.6179 3.08298e-19)
(26.7642 -12.2898 -4.68858e-17)
(27.5713 -9.10805 4.81455e-17)
(27.9372 -5.58035 4.60136e-17)
(28.4566 -2.00484 -9.21668e-17)
(29.4142 1.51965 2.01452e-18)
(30.8253 5.14696 2.56946e-18)
(32.4882 9.16706 4.24465e-17)
(34.0456 13.7817 1.89399e-19)
(35.1265 18.9499 -3.52035e-17)
(35.4985 24.3987 3.56646e-17)
(35.12 29.7535 3.17279e-19)
(34.1111 34.6578 1.61122e-19)
(32.6867 38.8189 -2.45402e-19)
(31.083 42.0197 -2.10247e-17)
(29.5073 44.093 3.92606e-18)
(28.1258 44.9271 1.7786e-17)
(27.0233 44.5141 2.55047e-19)
(26.1611 42.9056 -1.10025e-17)
(25.3861 40.2927 2.06589e-17)
(24.4898 36.9934 -1.73463e-17)
(23.2666 33.3871 7.69808e-18)
(21.5392 29.8171 0)
(19.1835 26.581 -9.53685e-18)
(16.1587 23.8849 1.74882e-17)
(12.523 21.804 -8.01507e-18)
(8.43676 20.2958 5.05766e-18)
(4.14968 19.2267 -5.61924e-18)
(-0.0393768 18.4102 2.14944e-20)
(-3.83155 17.6465 0)
(-6.97213 16.7607 2.14757e-19)
(-9.28142 15.6241 -1.4564e-19)
(-10.6713 14.173 2.11861e-19)
(-11.1438 12.4164 -9.14281e-20)
(-10.7942 10.4336 7.65055e-20)
(-9.79714 8.3557 0)
(-8.36343 6.32194 0)
(-6.67819 4.43709 -8.73754e-19)
(-4.8778 2.76469 6.73759e-19)
(-3.09776 1.30051 1.09388e-19)
(-1.43439 0.0417701 3.27386e-19)
(0.0535089 -1.01167 -4.44108e-19)
(1.34299 -1.8737 2.72874e-19)
(2.43888 -2.56675 0)
(3.36211 -3.11573 1.18749e-19)
(4.13992 -3.5446 -5.264e-20)
(4.79927 -3.87458 0)
(5.36338 -4.12286 9.31429e-20)
(5.85031 -4.30237 -1.19155e-19)
(6.27289 -4.42233 9.63988e-20)
(6.63948 -4.48929 -2.93109e-20)
(6.95517 -4.50825 0)
(7.22301 -4.48347 6.9646e-21)
(7.445 -4.41897 -3.84787e-20)
(7.62281 -4.31884 6.67805e-20)
(7.75818 -4.18723 -3.34502e-21)
(7.85326 -4.02847 -1.00392e-19)
(7.91073 -3.84702 0)
(7.93393 -3.64739 -4.39696e-20)
(7.9269 -3.43412 0)
(7.89426 -3.21156 0)
(7.8411 -2.98374 5.11573e-19)
(7.77274 -2.75416 -4.98696e-19)
(7.6944 -2.52564 -5.14525e-19)
(7.61094 -2.30024 -1.21178e-19)
(7.52666 -2.0793 4.60736e-19)
(7.44507 -1.86356 6.69355e-19)
(7.36892 -1.65336 -5.61055e-19)
(7.30027 -1.44878 8.75886e-20)
(7.241 -1.24986 5.58606e-19)
(7.1936 -1.05733 -1.22219e-18)
(7.16129 -0.884742 3.72894e-19)
(-23.8983 8.99509 4.08634e-17)
(-71.4002 36.1416 -2.96825e-17)
(-103.426 44.7805 -1.93501e-17)
(-97.9273 47.6646 1.98505e-17)
(-76.8922 39.3211 2.21129e-19)
(-56.1849 32.4651 2.06281e-19)
(-40.8213 27.5928 0)
(-29.2871 23.9485 -1.31975e-18)
(-20.0635 21.0786 1.57081e-18)
(-13.2356 19.2942 0)
(-9.42238 19.0421 9.26222e-18)
(-7.96682 20.0133 -2.06985e-17)
(-6.44993 20.9603 -1.21577e-18)
(-2.03028 20.3673 2.77857e-17)
(6.51343 17.3975 -1.46039e-17)
(17.5698 12.5734 2.08171e-19)
(27.7303 7.40227 -4.46071e-19)
(34.2872 3.21345 0)
(36.5912 0.464186 -1.12789e-17)
(35.4614 -0.967407 1.16632e-17)
(32.1347 -1.35266 -2.56247e-19)
(27.6791 -0.931297 -4.98814e-18)
(22.8076 0.119539 4.71885e-18)
(17.8821 1.67873 -7.72989e-19)
(13.0358 3.62977 7.63251e-19)
(8.31219 5.79635 -2.59605e-19)
(3.76791 7.94691 4.03682e-18)
(-0.521271 9.86342 8.35524e-19)
(-4.46147 11.3289 -9.79371e-18)
(-7.93313 12.2074 -4.41192e-19)
(-10.8684 12.4339 5.5152e-18)
(-13.2602 12.0324 6.06861e-18)
(-15.1602 11.1313 -6.41515e-18)
(-16.6373 9.90988 0)
(-17.7641 8.56978 2.75345e-19)
(-18.5846 7.2727 2.47315e-19)
(-19.0938 6.10961 0)
(-19.2435 5.09885 9.27125e-18)
(-18.9704 4.20741 -9.48085e-18)
(-18.2229 3.37956 -1.34004e-19)
(-16.999 2.56493 0)
(-15.3572 1.73016 9.17129e-20)
(-13.4058 0.865703 5.61929e-18)
(-11.2731 -0.0177466 -5.44892e-18)
(-9.07515 -0.890373 0)
(-6.89656 -1.71559 -3.67417e-18)
(-4.79239 -2.44029 4.05265e-18)
(-2.8201 -3.05343 0)
(-1.0314 -3.55578 0)
(0.544884 -3.93324 -8.02845e-20)
(1.90007 -4.19425 -7.56262e-20)
(3.04462 -4.35908 0)
(4.0023 -4.44955 1.90729e-18)
(4.80306 -4.48681 -1.95535e-18)
(5.47805 -4.48884 -1.56284e-18)
(6.05544 -4.46875 2.84703e-19)
(6.55744 -4.43411 2.57048e-18)
(6.9991 -4.38746 -2.24273e-18)
(7.38861 -4.32774 6.52667e-20)
(7.72921 -4.25236 7.54007e-19)
(8.02133 -4.15867 -4.5267e-20)
(8.26442 -4.04478 0)
(8.45803 -3.90997 0)
(8.60241 -3.75469 3.44829e-19)
(8.69874 -3.58046 -3.96612e-19)
(8.74932 -3.38976 0)
(8.75761 -3.18589 3.7224e-20)
(8.72824 -2.97277 0)
(8.66697 -2.75462 2.4261e-20)
(8.5804 -2.53565 -2.3672e-20)
(8.47561 -2.31964 1.67753e-20)
(8.35965 -2.10961 -1.98924e-19)
(8.23903 -1.9076 1.52763e-19)
(8.11926 -1.71454 -7.53324e-21)
(8.00455 -1.53047 0)
(7.89779 -1.35475 0)
(7.80068 -1.18643 0)
(7.71431 -1.02441 3.3916e-19)
(7.63986 -0.868399 6.88562e-20)
(7.57857 -0.729427 -6.40234e-19)
(-7.68972 0.520228 -5.19398e-17)
(-15.6894 1.00578 -7.6039e-17)
(-20.0142 2.10258 7.76808e-17)
(-20.4636 0.952748 -7.27932e-17)
(-16.0491 -1.5197 7.43775e-17)
(-8.42271 -5.81484 -3.21217e-20)
(1.97312 -11.1214 -3.70719e-20)
(14.5162 -17.0008 0)
(27.9053 -23.2454 -2.20331e-19)
(40.1995 -29.4154 0)
(49.4671 -34.9572 -9.79751e-21)
(54.511 -39.2385 3.67641e-17)
(55.0908 -41.8029 -3.74803e-17)
(51.812 -42.6608 -2.76053e-17)
(45.9133 -42.3107 2.81327e-17)
(38.9044 -41.5124 -1.87277e-17)
(32.0919 -40.9375 1.92591e-17)
(26.2763 -40.8806 0)
(21.7707 -41.328 0)
(18.616 -42.1504 0)
(16.7281 -43.1895 2.36552e-18)
(15.9345 -44.284 -2.35286e-18)
(15.9286 -45.2347 1.88012e-18)
(16.2411 -45.7884 -5.36168e-18)
(16.3309 -45.6295 3.72487e-18)
(15.7291 -44.5086 0)
(14.1408 -42.3277 1.51791e-19)
(11.4978 -39.134 0)
(7.93912 -35.1407 -1.11869e-17)
(3.77973 -30.6655 1.11635e-17)
(-0.56104 -26.0238 7.99313e-20)
(-4.6801 -21.5139 0)
(-8.28848 -17.3221 1.2413e-17)
(-11.2518 -13.5718 -2.40243e-17)
(-13.5937 -10.3345 1.18809e-17)
(-15.3892 -7.58917 -9.94199e-18)
(-16.6978 -5.28224 1.9085e-17)
(-17.5377 -3.37069 -9.12794e-18)
(-17.8865 -1.82347 0)
(-17.7185 -0.627886 0)
(-17.029 0.230234 0)
(-15.8438 0.770753 5.50886e-18)
(-14.2125 1.02593 -1.57383e-17)
(-12.2031 1.03167 9.97519e-18)
(-9.90046 0.830058 0)
(-7.41241 0.460519 -7.52422e-18)
(-4.88475 -0.0407005 7.32587e-18)
(-2.48327 -0.605749 5.89693e-18)
(-0.34184 -1.14431 -9.44232e-19)
(1.46939 -1.61043 -5.71444e-19)
(2.93312 -2.00615 -5.13672e-19)
(4.08973 -2.3344 -4.08374e-18)
(5.00556 -2.59498 0)
(5.74319 -2.79493 0)
(6.35475 -2.94734 -2.30897e-18)
(6.88189 -3.06474 2.48176e-18)
(7.35385 -3.15535 0)
(7.78633 -3.22154 0)
(8.18326 -3.26129 1.06818e-19)
(8.54086 -3.27142 1.37049e-19)
(8.85248 -3.24949 0)
(9.112 -3.19483 0)
(9.31537 -3.10863 -1.27985e-19)
(9.46083 -2.99354 -1.10841e-19)
(9.54869 -2.85324 6.5097e-19)
(9.58107 -2.69213 -1.07264e-18)
(9.56183 -2.51511 4.09162e-20)
(9.49654 -2.32747 7.20204e-19)
(9.39243 -2.13469 -6.23062e-19)
(9.25809 -1.94215 4.49373e-19)
(9.10304 -1.75471 -9.42642e-20)
(8.93689 -1.57624 -1.43641e-19)
(8.76855 -1.40923 1.34819e-19)
(8.60537 -1.25463 -2.06694e-20)
(8.4526 -1.11196 -9.21665e-20)
(8.31328 -0.979642 3.56308e-20)
(8.18849 -0.855503 0)
(8.07806 -0.737225 -1.9314e-20)
(7.98145 -0.623384 0)
(7.89769 -0.522219 1.27644e-19)
(2.62398 2.28446 0)
(11.9837 5.64099 1.4048e-19)
(18.9275 10.7349 -1.39508e-19)
(21.0492 17.7519 -7.72034e-17)
(21.9071 23.5016 1.5496e-16)
(27.6876 26.055 -7.79888e-17)
(38.5128 25.123 3.72107e-20)
(47.2698 23.4873 0)
(46.2987 23.9672 0)
(36.0051 26.6153 0)
(24.4082 29.6532 9.95192e-21)
(18.1262 31.5437 -1.01568e-19)
(17.4988 32.0184 0)
(19.6795 31.8418 7.05e-20)
(22.4212 31.9097 1.05308e-19)
(24.8613 32.6405 2.27404e-17)
(26.783 34.0229 -2.30548e-17)
(28.0173 35.8734 -1.00961e-19)
(28.3808 38.0144 0)
(27.8896 40.2477 1.35479e-19)
(26.8767 42.2225 -9.89781e-20)
(25.8752 43.3364 1.29637e-17)
(25.2628 42.9557 -2.69929e-18)
(24.9519 40.966 -1.03827e-17)
(24.442 37.8077 -1.64354e-19)
(23.2475 34.1056 8.05407e-20)
(21.0889 30.2846 -1.90007e-18)
(17.9756 26.5825 1.52505e-18)
(14.0987 23.1333 9.83078e-20)
(9.81049 20.0502 1.89435e-19)
(5.47328 17.3763 2.04167e-19)
(1.39649 15.1124 -1.47225e-18)
(-2.20122 13.2614 1.48621e-18)
(-5.2181 11.8001 3.13441e-19)