/*--------------------------------*- C++ -*----------------------------------*\
| =========                 |                                                 |
| \\      /  F ield         | OpenFOAM: The Open Source CFD Toolbox           |
|  \\    /   O peration     | Version:  2012                                  |
|   \\  /    A nd           | Website:  www.openfoam.com                      |
|    \\/     M anipulation  |                                                 |
\*---------------------------------------------------------------------------*/
FoamFile
{
    version     2.0;
    format      ascii;
    class       volVectorField;
    location    "0.27";
    object      U;
}
// * * * * * * * * * * * * * * * * * * * * * * * * * * * * * * * * * * * * * //

dimensions      [0 1 -1 0 0 0 0];


internalField   nonuniform List<vector> 
42400
(
(-0.711509 0.966032 -2.69283e-17)
(4.74903 -2.53361 -4.0411e-17)
(13.5503 -9.45989 4.1154e-17)
(19.0021 -11.2514 0)
(20.935 -8.69315 0)
(23.1209 -5.16575 4.578e-19)
(25.2268 -1.60611 0)
(25.0584 3.09283 -4.3766e-19)
(21.2213 9.77764 0)
(14.3295 17.6676 -4.01276e-19)
(6.76004 24.7318 -3.85622e-19)
(1.11052 29.2183 3.74391e-19)
(-1.46882 30.8858 5.46622e-17)
(-1.45735 30.6105 -5.56937e-17)
(0.0803482 29.3563 3.4702e-19)
(2.31366 27.6911 0)
(4.80744 25.899 0)
(7.37542 24.1139 0)
(9.9136 22.3593 0)
(12.3469 20.6093 0)
(14.6099 18.8342 0)
(16.627 17.0109 3.83919e-19)
(18.3066 15.1372 1.96487e-17)
(19.5501 13.2356 -3.72454e-18)
(20.2627 11.3449 -1.58366e-17)
(20.3875 9.48297 1.9422e-19)
(19.9568 7.61634 1.52477e-19)
(19.1196 5.66576 -2.29087e-19)
(18.0788 3.55012 0)
(17.0144 1.26169 0)
(15.9478 -1.14457 6.05898e-19)
(14.7872 -3.51248 -6.12698e-19)
(13.4114 -5.62827 1.48778e-20)
(11.7513 -7.31725 -1.87548e-18)
(9.85523 -8.50978 1.83657e-18)
(7.87662 -9.24187 0)
(5.98975 -9.60255 0)
(4.31151 -9.66692 0)
(2.87578 -9.47964 0)
(1.66288 -9.07816 -1.50617e-18)
(0.639201 -8.51686 1.51166e-18)
(-0.223063 -7.86524 -1.63173e-18)
(-0.94537 -7.18848 1.35127e-19)
(-1.5461 -6.52959 3.24206e-18)
(-2.03886 -5.90435 -1.5539e-18)
(-2.42919 -5.30736 1.62671e-18)
(-2.71463 -4.72567 -3.46455e-18)
(-2.89134 -4.1554 1.66385e-18)
(-2.9433 -3.60341 1.60063e-19)
(-2.84758 -3.08166 -1.94726e-18)
(-2.60638 -2.61731 3.9071e-18)
(-2.24664 -2.23918 3.09118e-19)
(-1.81151 -1.95703 -2.23963e-18)
(-1.34909 -1.76556 2.68242e-19)
(-0.899627 -1.65086 0)
(-0.48685 -1.59434 0)
(-0.114474 -1.57498 0)
(0.222226 -1.57505 -2.20628e-19)
(0.524839 -1.58836 -2.09261e-19)
(0.797347 -1.61191 0)
(1.04586 -1.64256 -2.81569e-18)
(1.27675 -1.67758 2.94572e-18)
(1.496 -1.71437 2.53064e-18)
(1.7088 -1.75028 -2.48311e-18)
(1.91932 -1.78257 0)
(2.13052 -1.80852 0)
(2.34421 -1.82556 2.02757e-18)
(2.56118 -1.83148 -1.98192e-18)
(2.78138 -1.8245 -2.38597e-19)
(3.00417 -1.80336 0)
(3.22852 -1.76734 0)
(3.4532 -1.71629 -2.00574e-19)
(3.67695 -1.65058 -1.89109e-19)
(3.89863 -1.5711 0)
(4.11733 -1.47921 -1.67697e-19)
(4.33245 -1.37672 -1.19163e-18)
(4.54373 -1.26586 1.15577e-18)
(4.75166 -1.14867 2.77755e-19)
(4.95808 -1.02645 9.76965e-19)
(5.15408 -0.916228 8.86229e-19)
(4.2068 -2.77239 0)
(10.0018 -5.5498 -7.48481e-17)
(12.9561 -8.50843 7.68843e-17)
(16.2307 -11.4973 0)
(18.2472 -15.493 0)
(16.8027 -16.6876 -6.57772e-17)
(9.77658 -13.519 6.67423e-17)
(-3.44182 -5.47966 4.35125e-19)
(-21.0912 6.00242 0)
(-38.8203 17.4864 3.99068e-19)
(-51.337 24.9374 3.83683e-19)
(-55.4363 26.2858 3.8088e-17)
(-51.9224 22.7581 -2.06545e-18)
(-44.3757 17.4264 -3.78013e-17)
(-36.2412 12.6811 -3.55831e-17)
(-29.2358 9.2414 3.59376e-17)
(-23.6788 6.88317 0)
(-19.3202 5.28592 4.43003e-20)
(-15.8628 4.29558 0)
(-13.1084 3.85911 0)
(-10.9242 3.91352 0)
(-9.2036 4.35138 2.20085e-17)
(-7.84633 5.05208 -2.96395e-18)
(-6.7534 5.90709 -2.06694e-17)
(-5.83539 6.8222 0)
(-5.01503 7.71971 -2.23953e-19)
(-4.22769 8.53937 -1.51824e-19)
(-3.42774 9.23409 2.2798e-19)
(-2.59994 9.77133 6.5116e-18)
(-1.74529 10.126 -6.58963e-18)
(-0.866699 10.2527 -1.1603e-19)
(0.0306126 10.111 -1.28543e-19)
(0.962563 9.67283 1.65174e-19)
(1.96298 8.92413 -4.02505e-20)
(3.06625 7.86617 2.16971e-18)
(4.2831 6.51646 -2.29243e-18)
(5.57002 4.92147 0)
(6.80449 3.17834 1.61818e-19)
(7.79733 1.44322 0)
(8.36031 -0.102615 3.0975e-19)
(8.39355 -1.31856 -4.21747e-18)
(7.93013 -2.15557 4.53188e-18)
(7.10815 -2.65506 -1.90745e-19)
(6.10069 -2.90331 1.87827e-19)
(5.05589 -2.98211 6.39599e-20)
(4.07017 -2.94876 1.77305e-19)
(3.19598 -2.83817 -1.71148e-19)
(2.45898 -2.6728 -3.17718e-18)
(1.87275 -2.47174 3.16991e-18)
(1.44296 -2.25536 0)
(1.16726 -2.04683 -1.71405e-19)
(1.02914 -1.86502 -2.89418e-19)
(1.00062 -1.71979 -2.16261e-18)
(1.04963 -1.6114 2.15172e-18)
(1.14567 -1.5339 2.74373e-19)
(1.26372 -1.47956 -3.83715e-18)
(1.38736 -1.44216 4.29444e-18)
(1.50966 -1.42006 2.20442e-19)
(1.62936 -1.41406 2.09107e-19)
(1.74883 -1.42511 -3.2587e-18)
(1.87276 -1.45321 3.20707e-18)
(2.00634 -1.49672 -1.77465e-19)
(2.15399 -1.55226 -1.77038e-19)
(2.31847 -1.61503 0)
(2.50059 -1.67951 2.12929e-18)
(2.69942 -1.74021 -8.56004e-20)
(2.91266 -1.79221 -2.54217e-18)
(3.13717 -1.83153 0)
(3.36942 -1.85522 4.90806e-19)
(3.60578 -1.86141 -2.38384e-19)
(3.84281 -1.84919 -1.73573e-18)
(4.07741 -1.8185 1.89107e-18)
(4.30691 -1.77006 1.73473e-18)
(4.52921 -1.70523 -1.69236e-18)
(4.74278 -1.62587 3.46399e-19)
(4.94665 -1.53432 -1.29161e-18)
(5.14041 -1.43316 9.35761e-19)
(5.32444 -1.32484 -2.77737e-19)
(5.49957 -1.21258 1.35002e-18)
(5.65856 -1.11537 -1.04923e-18)
(6.63056 -6.04682 -1.46159e-17)
(6.2604 -6.6033 3.32775e-19)
(-6.50884 2.67579 -6.18998e-20)
(-21.233 12.8601 3.32228e-19)
(-31.9002 19.4692 0)
(-40.6115 23.9055 -4.80276e-17)
(-48.7301 27.5898 9.91939e-17)
(-56.226 31.015 -5.1208e-17)
(-61.5635 33.4144 5.36557e-17)
(-62.2237 33.0812 -6.46589e-19)
(-56.0077 28.2418 -5.47741e-17)
(-42.9309 18.631 -5.31747e-20)
(-26.4125 6.69436 -4.88835e-20)
(-11.8434 -3.34961 4.51379e-17)
(-3.04145 -8.60604 -4.61044e-17)
(-0.0100533 -9.50401 3.30716e-19)
(-0.129293 -8.48138 -3.92095e-17)
(-0.821829 -7.55949 1.94561e-18)
(-0.959272 -7.44738 3.73176e-17)
(-0.541671 -8.02508 5.58886e-19)
(0.127292 -8.95582 -5.11659e-19)
(0.835296 -9.95623 -4.66884e-19)
(1.48966 -10.8446 0)
(2.07257 -11.5255 3.59497e-19)
(2.58131 -11.9357 1.94511e-17)
(3.02658 -12.0784 -3.68151e-17)
(3.41939 -11.9778 1.7679e-17)
(3.77512 -11.6653 -1.41697e-17)
(4.11003 -11.1625 1.43386e-17)
(4.44252 -10.4937 1.22412e-17)
(4.79798 -9.68853 -2.26466e-17)
(5.17886 -8.75341 6.3777e-19)
(5.55901 -7.693 1.03723e-17)
(5.87797 -6.51285 0)
(6.05224 -5.2174 0)
(5.99151 -3.82123 1.62624e-19)
(5.62525 -2.36411 0)
(4.93564 -0.92286 4.99346e-20)
(3.98481 0.388161 -5.76564e-18)
(2.91295 1.43935 1.11142e-17)
(1.89473 2.12987 -5.61117e-18)
(1.0756 2.42403 0)
(0.525335 2.36218 0)
(0.235455 2.04115 -3.93006e-18)
(0.148871 1.57748 3.6834e-18)
(0.195718 1.07304 2.09472e-19)
(0.3189 0.598885 0)
(0.48229 0.194106 0)
(0.666995 -0.128079 -2.87936e-18)
(0.863638 -0.371774 2.86513e-18)
(1.06599 -0.5502 1.71203e-19)
(1.26752 -0.67884 0)
(1.46031 -0.771382 2.63705e-18)
(1.63603 -0.837922 -2.32336e-18)
(1.78784 -0.885406 3.98024e-18)
(1.91195 -0.919365 -4.21173e-18)
(2.00899 -0.94562 3.61046e-18)
(2.0846 -0.971133 -7.47505e-18)
(2.14886 -1.00345 7.10278e-18)
(2.21462 -1.0492 -1.24829e-19)
(2.29501 -1.11247 -3.25685e-18)
(2.40086 -1.1937 -2.97538e-18)
(2.53882 -1.28973 3.09963e-18)
(2.7107 -1.3947 0)
(2.914 -1.50141 -2.21069e-18)
(3.14332 -1.60268 8.30915e-20)
(3.39176 -1.69225 2.91273e-18)
(3.65217 -1.76527 0)
(3.91782 -1.81841 -5.12154e-19)
(4.18272 -1.84976 -1.67961e-18)
(4.44184 -1.85865 1.63683e-18)
(4.69106 -1.84546 0)
(4.92727 -1.81145 0)
(5.14831 -1.75858 1.89514e-19)
(5.35296 -1.68933 -1.787e-19)
(5.54086 -1.60654 -1.01184e-18)
(5.71237 -1.5132 1.63928e-18)
(5.86868 -1.41212 0)
(6.01141 -1.30672 -2.80132e-19)
(6.13629 -1.21274 -1.08288e-18)
(-8.17441 3.82141 -8.57567e-17)
(-16.8162 7.09169 1.26663e-16)
(-19.0255 5.55694 -6.42044e-17)
(-20.395 4.10645 -6.15283e-17)
(-23.3072 5.7781 6.26731e-17)
(-26.7366 8.58071 0)
(-29.9515 11.7508 -1.09464e-16)
(-32.3168 14.8079 1.11399e-16)
(-33.0798 17.2036 -9.70388e-17)
(-31.468 18.2753 9.90883e-17)
(-27.1595 17.464 -8.34109e-17)
(-20.7116 14.6948 1.61289e-16)
(-13.4571 10.5007 -1.47215e-16)
(-6.8482 5.82692 1.34571e-16)
(-1.83487 1.72353 -1.22823e-16)
(1.33851 -1.04699 5.88188e-17)
(2.99418 -2.31065 4.8328e-17)
(3.71731 -2.40581 -9.10373e-17)
(4.07348 -1.85684 4.39558e-17)
(4.46222 -1.11252 -5.51851e-19)
(5.08081 -0.451225 3.21277e-20)
(5.95109 0.00547359 3.04615e-17)
(6.96509 0.248614 -3.00402e-17)
(7.9527 0.318265 -3.82698e-19)
(8.73428 0.282162 0)
(9.20008 0.16402 -3.2051e-19)
(9.3237 -0.0344093 0)
(9.18755 -0.367497 -1.88043e-17)
(8.94162 -0.909859 1.65429e-18)
(8.73663 -1.70115 1.74325e-17)
(8.65782 -2.70186 1.47742e-17)
(8.71107 -3.7842 -1.45564e-17)
(8.83954 -4.78084 -1.05672e-19)
(8.9407 -5.53971 2.07748e-19)
(8.89065 -5.94186 9.53011e-18)
(8.5801 -5.92464 -9.75602e-18)
(7.96587 -5.50151 0)
(7.08928 -4.75392 -6.80259e-18)
(6.0525 -3.80548 6.61934e-18)
(4.97942 -2.78679 -3.4308e-19)
(3.98518 -1.8098 2.02253e-19)
(3.15745 -0.957146 0)
(2.54517 -0.277138 0)
(2.15675 0.214734 0)
(1.96806 0.531327 1.68808e-19)
(1.93595 0.70534 -3.27429e-18)
(2.00904 0.776321 3.05845e-18)
(2.13766 0.780849 0)
(2.28218 0.74727 0)
(2.41608 0.693462 -2.53558e-18)
(2.52485 0.627582 2.37686e-18)
(2.60259 0.551264 -2.34309e-18)
(2.64825 0.463725 1.76134e-18)
(2.66249 0.364883 -2.62959e-19)
(2.64676 0.25646 1.82854e-18)
(2.60462 0.141337 -2.31619e-18)
(2.54413 0.021752 3.83097e-18)
(2.47971 -0.102352 -3.5552e-18)
(2.4312 -0.23364 0)
(2.41994 -0.375891 2.08261e-19)
(2.46344 -0.531498 3.17164e-18)
(2.57094 -0.69953 -2.95097e-19)
(2.742 -0.875331 -5.99859e-18)
(2.96821 -1.0516 5.34543e-18)
(3.23665 -1.22021 -2.33316e-18)
(3.53327 -1.37379 -2.43396e-18)
(3.84507 -1.50661 1.79966e-18)
(4.16109 -1.61481 2.76749e-19)
(4.47245 -1.69622 2.06772e-18)
(4.77216 -1.75013 -2.02006e-18)
(5.05483 -1.77699 4.68924e-19)
(5.31653 -1.77824 1.98457e-18)
(5.55474 -1.7561 -1.71338e-18)
(5.76822 -1.7134 0)
(5.95698 -1.65338 1.4922e-18)
(6.12198 -1.57946 -3.89643e-19)
(6.26503 -1.49503 -3.04047e-18)
(6.38865 -1.40318 1.29091e-18)
(6.49552 -1.30772 -1.18535e-18)
(6.5841 -1.22374 1.16038e-18)
(-8.12006 6.16774 2.12869e-17)
(-7.69747 12.1958 0)
(2.09104 5.88691 0)
(13.2513 4.38012 7.16798e-21)
(16.2275 5.29645 0)
(15.5061 9.30513 0)
(13.1479 14.248 0)
(10.7604 18.912 6.00046e-19)
(9.21093 22.6123 0)
(8.77955 25.0518 -1.80366e-19)
(9.34361 26.2142 -1.05186e-17)
(10.5471 26.2661 2.5085e-17)
(11.9821 25.4685 -1.55548e-17)
(13.329 24.1037 0)
(14.4012 22.4217 3.33338e-19)
(15.125 20.6188 -4.51925e-19)
(15.4989 18.8315 0)
(15.5516 17.1334 -2.74213e-17)
(15.3216 15.5879 5.48826e-17)
(14.8342 14.232 -1.31558e-18)
(14.0964 13.0813 -2.66916e-17)
(13.1071 12.1505 -4.41682e-19)
(11.8712 11.4432 0)
(10.4179 10.9424 2.1408e-17)
(8.80726 10.6037 -2.11458e-17)
(7.1434 10.3457 1.67692e-17)
(5.55909 10.0686 -1.67617e-17)
(4.21079 9.65255 -1.2188e-17)
(3.25522 8.98794 1.20783e-17)
(2.84001 7.95092 0)
(3.06368 6.47892 5.30695e-18)
(3.90827 4.58131 -5.36389e-18)
(5.18318 2.37033 -2.42737e-19)
(6.52191 0.0909881 1.44315e-18)
(7.48176 -1.92818 -1.66435e-18)
(7.72235 -3.401 2.31876e-19)
(7.16009 -4.20088 -4.20239e-20)
(5.97346 -4.35198 1.26807e-18)
(4.47492 -4.00711 -1.27526e-18)
(2.97917 -3.38729 -1.53779e-18)
(1.71846 -2.70351 -3.31406e-19)
(0.810901 -2.09601 1.75894e-18)
(0.271997 -1.62754 0)
(0.0534355 -1.30491 -8.52805e-20)
(0.0776531 -1.10314 1.80998e-18)
(0.260676 -0.982683 -4.29137e-18)
(0.524993 -0.903303 4.26523e-18)
(0.807499 -0.834088 -2.02831e-18)
(1.06396 -0.757816 0)
(1.26949 -0.670495 -1.22491e-19)
(1.41568 -0.577281 2.13866e-18)
(1.50577 -0.487224 -2.104e-18)
(1.54961 -0.408821 2.4958e-20)
(1.56009 -0.348186 2.01442e-18)
(1.55219 -0.309132 -1.48193e-18)
(1.54351 -0.293961 1.8824e-18)
(1.55408 -0.304444 2.00478e-18)
(1.60449 -0.342018 -3.82097e-18)
(1.71191 -0.40697 3.37174e-18)
(1.88622 -0.497766 -3.53022e-18)
(2.12813 -0.610676 0)
(2.42993 -0.740032 1.89263e-19)
(2.77823 -0.878944 2.81236e-18)
(3.15741 -1.0202 -2.41718e-18)
(3.55245 -1.15704 -6.4214e-19)
(3.95048 -1.28355 0)
(4.34116 -1.39491 -2.29005e-18)
(4.71632 -1.48734 1.96564e-18)
(5.06945 -1.5582 2.62418e-19)
(5.3954 -1.60597 2.47966e-19)
(5.69032 -1.6303 -4.71938e-19)
(5.95179 -1.632 4.39758e-22)
(6.17888 -1.61289 1.89882e-18)
(6.37217 -1.57555 -1.63903e-18)
(6.53353 -1.52306 1.92156e-19)
(6.66582 -1.45868 0)
(6.77254 -1.38555 1.69967e-18)
(6.85762 -1.30644 -1.31729e-18)
(6.9247 -1.22481 0)
(6.97415 -1.15337 1.15882e-18)
(-5.94396 2.98644 2.32806e-19)
(-11.1305 3.30658 -1.47701e-17)
(-12.1299 1.19455 1.68577e-17)
(-14.5887 -3.44728 -3.47274e-17)
(-19.3037 -6.92401 1.81438e-17)
(-25.8156 -9.94723 8.04206e-19)
(-33.1209 -12.6227 2.04131e-17)
(-40.2498 -15.3074 -2.18477e-17)
(-46.3487 -18.531 -7.20728e-19)
(-50.587 -22.5723 -4.93176e-19)
(-52.3246 -27.4392 -2.36953e-17)
(-51.294 -32.8345 -2.48821e-17)
(-47.759 -38.2106 5.0148e-17)
(-42.4711 -42.9466 -5.41718e-17)
(-36.3652 -46.5918 1.10801e-16)
(-30.1811 -48.9886 -5.78337e-17)
(-24.2819 -50.2235 0)
(-18.7334 -50.5202 0)
(-13.449 -50.072 6.54551e-17)
(-8.34688 -49.0079 -6.10772e-19)
(-3.43915 -47.3934 -6.58566e-17)
(1.14435 -45.2272 6.25296e-17)
(5.18032 -42.4866 -1.23643e-16)
(8.41992 -39.112 6.07498e-17)
(10.6228 -35.0782 5.21706e-17)
(11.7021 -30.4519 -5.61968e-18)
(11.7569 -25.409 -4.85621e-17)
(11.0433 -20.2154 4.27006e-19)
(9.88234 -15.154 -3.67696e-19)
(8.56777 -10.5031 6.19289e-19)
(7.27594 -6.43923 0)
(6.03477 -3.03696 1.70899e-17)
(4.78759 -0.317271 -3.09424e-17)
(3.52967 1.66947 1.37125e-17)
(2.40688 2.80313 0)
(1.67155 3.02804 -4.91769e-18)
(1.46426 2.47448 4.92388e-18)
(1.65329 1.44983 0)
(1.95603 0.300069 0)
(2.15819 -0.743508 -2.26997e-19)
(2.20169 -1.59669 2.11486e-19)
(2.1449 -2.25753 -8.67775e-21)
(2.06467 -2.74801 0)
(2.00724 -3.09353 -7.68977e-19)
(1.98734 -3.30935 -9.33368e-20)
(1.99804 -3.3982 1.14106e-18)
(2.01828 -3.35932 1.07193e-19)
(2.02281 -3.19996 -2.2707e-19)
(1.99293 -2.94213 0)
(1.9251 -2.62097 1.93864e-18)
(1.83018 -2.2757 -3.66969e-18)
(1.72913 -1.93967 1.97438e-18)
(1.64446 -1.634 2.4703e-19)
(1.59398 -1.36806 2.11783e-18)
(1.58935 -1.14397 -2.54401e-19)
(1.6375 -0.961513 -3.61301e-18)
(1.74249 -0.820894 1.3396e-18)
(1.90666 -0.722302 0)
(2.13001 -0.664848 0)
(2.40858 -0.646041 -1.89367e-19)
(2.73462 -0.661455 -1.82435e-19)
(3.09761 -0.705372 0)
(3.48581 -0.771319 -2.54185e-18)
(3.88774 -0.852554 2.49906e-18)
(4.29309 -0.942391 2.79179e-18)
(4.69294 -1.03438 2.31785e-19)
(5.07943 -1.12247 -2.02126e-18)
(5.44545 -1.2012 2.14655e-18)
(5.78452 -1.26603 -2.09637e-18)
(6.09111 -1.31365 -2.68286e-21)
(6.36106 -1.34226 -1.62375e-18)
(6.5921 -1.3516 1.58703e-18)
(6.78398 -1.34278 1.47259e-18)
(6.93837 -1.31796 -1.84129e-18)
(7.05845 -1.27996 1.33109e-18)
(7.14837 -1.23188 -1.47872e-18)
(7.21277 -1.17673 1.37129e-18)
(7.25644 -1.11708 -2.62846e-18)
(7.28349 -1.05629 2.84511e-20)
(7.29539 -1.00478 2.71129e-20)
(12.1406 -3.52511 6.25196e-17)
(15.0995 0.77071 4.15178e-19)
(-1.11061 15.5331 -8.89857e-17)
(-17.6865 30.7308 1.77228e-16)
(-27.5819 40.9863 -8.8538e-17)
(-32.8149 49.8381 8.04702e-17)
(-36.7013 58.9256 -4.65531e-18)
(-40.2262 67.8386 -7.91382e-17)
(-41.5093 74.2582 6.70481e-17)
(-38.0329 75.9335 -6.70385e-17)
(-28.7238 71.9974 5.08271e-17)
(-14.9004 63.2442 -5.1983e-17)
(0.143684 51.7932 3.57696e-17)
(12.9793 40.1597 -3.6061e-17)
(21.7607 30.0331 4.36137e-19)
(26.6075 21.855 4.15243e-19)
(28.7507 15.3004 3.73043e-17)
(29.4559 9.89841 -3.80128e-17)
(29.4844 5.3045 -7.64949e-19)
(29.1057 1.31627 -2.90241e-19)
(28.3423 -2.15265 2.55729e-17)
(27.1685 -5.11977 -2.65383e-17)
(25.5781 -7.56223 0)
(23.644 -9.43285 2.35906e-19)
(21.4671 -10.7172 0)
(19.1666 -11.3982 0)
(16.8761 -11.496 1.95633e-19)
(14.7203 -11.0432 -1.43351e-17)
(12.7858 -10.0938 1.42411e-17)
(11.1136 -8.72698 8.79824e-18)
(9.70284 -7.02214 -9.51177e-18)
(8.52526 -5.04836 4.08437e-19)
(7.53611 -2.8684 -3.15715e-19)
(6.69326 -0.542999 0)
(5.96374 1.85686 1.9862e-19)
(5.31536 4.23352 0)
(4.7156 6.466 0)
(4.15471 8.4324 1.18346e-19)
(3.62402 10.037 0)
(3.15372 11.2436 0)
(2.79164 12.0377 -1.33381e-18)
(2.58004 12.3878 1.28129e-18)
(2.55823 12.2678 0)
(2.75472 11.6898 0)
(3.16024 10.6995 0)
(3.71135 9.38089 6.1726e-20)
(4.29267 7.85953 -1.06154e-19)
(4.76839 6.28142 -1.94301e-18)
(5.03613 4.78063 2.04859e-18)
(5.07189 3.45965 -1.91317e-18)
(4.92568 2.36905 2.10926e-18)
(4.6778 1.51508 -2.10914e-19)
(4.40332 0.884365 -1.01895e-19)
(4.15171 0.455694 0)
(3.94605 0.199926 0)
(3.79426 0.078017 1.37247e-18)
(3.70053 0.0443646 1.96757e-19)
(3.66985 0.0542673 -1.53818e-18)
(3.70979 0.0703967 1.48623e-18)
(3.82264 0.0705153 -1.4671e-18)
(4.00299 0.0445731 -2.61332e-18)
(4.24013 -0.00972007 4.93427e-20)
(4.52096 -0.0897834 5.08334e-18)
(4.83214 -0.190325 -2.55158e-18)
(5.16129 -0.30478 -1.53391e-19)
(5.49723 -0.426037 -2.94609e-19)
(5.82959 -0.546842 -2.20464e-18)
(6.14848 -0.660269 4.26544e-18)
(6.4447 -0.760306 -2.06102e-18)
(6.71037 -0.84243 -2.4507e-19)
(6.93986 -0.903969 -1.84257e-18)
(7.13024 -0.944154 2.01622e-18)
(7.28135 -0.963884 0)
(7.3953 -0.96534 2.02098e-19)
(7.47578 -0.951547 0)
(7.5274 -0.925972 -1.44505e-18)
(7.5551 -0.892128 2.92668e-20)
(7.56386 -0.853224 1.33042e-18)
(7.55788 -0.813238 -9.23433e-19)
(7.53951 -0.780374 -2.72398e-19)
(5.45772 -4.95548 6.16891e-17)
(-5.91389 -5.67897 -9.27411e-17)
(-28.8193 3.17153 -6.61973e-19)
(-41.4778 4.17373 -8.71239e-17)
(-33.0163 -0.568677 8.91868e-17)
(-18.7344 -5.23188 -7.91136e-17)
(-14.2994 -1.33832 1.53642e-16)
(-24.7221 12.7327 -7.50681e-17)
(-43.6355 32.0662 6.35996e-17)
(-62.6799 51.0383 -6.49928e-17)
(-77.3261 66.5028 0)
(-86.4394 77.4836 -9.14264e-19)
(-90.3149 83.9638 9.13591e-19)
(-89.3657 86.2455 0)
(-83.7068 84.6078 0)
(-73.5978 79.3866 0)
(-60.4122 71.4401 0)
(-46.7252 62.4221 -6.36131e-19)
(-34.8079 54.0262 0)
(-25.4017 46.9699 3.19406e-17)
(-18.0353 41.0487 -3.18809e-17)
(-11.9127 35.7964 -5.63546e-17)
(-6.48999 30.9421 5.74496e-17)
(-1.59975 26.4873 4.9638e-17)
(2.7295 22.5261 -5.11151e-17)
(6.47325 19.1251 4.29968e-17)
(9.67763 16.3026 -4.37162e-17)
(12.402 14.0606 3.58568e-17)
(14.6886 12.3644 -3.89383e-18)
(16.5692 11.164 -3.29095e-17)
(18.0583 10.4101 0)
(19.1426 10.0406 -3.75645e-19)
(19.8034 9.99573 -3.01872e-19)
(20.0403 10.2196 0)
(19.8832 10.6506 -1.96511e-19)
(19.3948 11.216 0)
(18.6366 11.8608 0)
(17.6773 12.5471 -6.56361e-18)
(16.5692 13.2464 1.11998e-17)
(15.3599 13.9524 -4.7747e-18)
(14.0951 14.6532 -2.22551e-18)
(12.8195 15.3386 2.2264e-18)
(11.5659 15.9979 -2.33159e-20)
(10.3569 16.6135 0)
(9.19168 17.1283 4.63967e-20)
(8.05877 17.4664 -5.25792e-20)
(6.95988 17.5607 0)
(5.92197 17.3603 0)
(4.99813 16.838 5.27437e-19)
(4.25107 15.9877 -5.56243e-19)
(3.73493 14.8236 -1.29289e-18)
(3.47539 13.4011 1.24538e-18)
(3.4447 11.8099 1.72818e-18)
(3.5615 10.1628 -3.37784e-18)
(3.72547 8.57609 1.7476e-18)
(3.86436 7.14164 4.17242e-19)
(3.96504 5.90999 0)
(4.05769 4.86896 -2.01246e-19)
(4.16304 3.97769 1.47048e-18)
(4.30567 3.21939 -3.03676e-18)
(4.49691 2.57852 1.56102e-18)
(4.73262 2.03517 0)
(5.00211 1.5709 1.67946e-19)
(5.29486 1.17073 0)
(5.6022 0.823 1.53235e-19)
(5.91637 0.519498 1.46303e-19)
(6.22892 0.255281 2.79163e-19)
(6.53016 0.0279948 2.11343e-18)
(6.81001 -0.163262 -1.81056e-18)
(7.05959 -0.319068 2.41911e-19)
(7.2727 -0.440495 1.83296e-18)
(7.44634 -0.529489 -2.22652e-18)
(7.58046 -0.588926 1.6655e-18)
(7.67716 -0.622484 -1.61965e-18)
(7.73989 -0.634469 1.69964e-18)
(7.77288 -0.629603 -1.28586e-18)
(7.78089 -0.612739 -1.36542e-18)
(7.76893 -0.588554 1.32356e-18)
(7.74172 -0.562235 -3.11362e-19)
(7.7033 -0.54022 2.97574e-19)
(-22.5711 9.62757 -5.15822e-17)
(-37.7276 13.6448 -7.65103e-17)
(-23.6784 5.54909 1.56381e-16)
(6.7252 -12.106 -1.57278e-16)
(45.4167 -32.7568 7.98465e-17)
(86.1162 -56.0188 6.27461e-19)
(115.549 -75.2888 -7.74275e-17)
(124.189 -84.6686 1.55412e-16)
(114.267 -83.9935 -3.34159e-18)
(94.877 -77.2307 -7.60876e-17)
(73.802 -68.3206 8.52353e-20)
(54.8529 -59.3521 6.85189e-17)
(38.9544 -50.9414 -6.97495e-17)
(25.722 -43.0392 6.13998e-17)
(14.6194 -35.5669 -6.25291e-17)
(5.61413 -28.7891 -5.27108e-17)
(-0.289496 -23.3759 5.36853e-17)
(-1.682 -19.8743 6.30961e-19)
(1.56044 -18.0677 0)
(7.59317 -17.1389 2.966e-17)
(14.2256 -16.4649 -3.00876e-17)
(20.386 -15.8812 -8.42027e-20)
(25.8664 -15.4184 -1.70431e-17)
(30.6501 -15.1692 1.73982e-17)
(34.7236 -15.2798 4.32841e-19)
(38.0883 -15.7395 0)
(40.6754 -16.2126 1.20044e-19)
(42.3052 -16.3407 4.73336e-19)
(42.836 -15.9407 5.87049e-18)
(42.2456 -14.9978 -6.00207e-18)
(40.617 -13.5806 -1.00115e-18)
(38.085 -11.7752 1.41315e-18)
(34.8135 -9.66413 3.88346e-19)
(30.9853 -7.33265 -2.8039e-18)
(26.7936 -4.88485 5.93276e-18)
(22.4467 -2.4507 -3.24279e-18)
(18.159 -0.154088 -3.42793e-18)
(14.144 1.88952 3.59259e-18)
(10.5779 3.57945 1.65292e-19)
(7.56423 4.87305 -1.23139e-19)
(5.12011 5.78869 4.35098e-21)
(3.19205 6.39325 -2.62741e-18)
(1.67314 6.7561 3.14951e-19)
(0.443442 6.94194 2.34446e-18)
(-0.592113 7.02469 -1.73847e-18)
(-1.49241 7.0624 1.68158e-18)
(-2.27667 7.08362 0)
(-2.92773 7.09403 5.12333e-19)
(-3.40691 7.08315 -4.60694e-19)
(-3.6726 7.02995 -3.182e-19)
(-3.69751 6.91143 -2.94083e-19)
(-3.47712 6.70848 -2.79962e-19)
(-3.03311 6.41068 -2.13102e-19)
(-2.40876 6.02034 -1.51054e-19)
(-1.65764 5.55294 1.2949e-18)
(-0.835077 5.02977 -1.17787e-19)
(0.00983398 4.47099 0)
(0.84836 3.91105 1.66111e-18)
(1.64801 3.39422 -1.24327e-18)
(2.38802 2.92975 0)
(3.05573 2.50324 1.55698e-18)
(3.65289 2.10706 -1.18999e-18)
(4.19138 1.73875 0)
(4.68638 1.39671 1.58022e-19)
(5.15094 1.0802 0)
(5.59197 0.789864 2.14996e-18)
(6.00909 0.527601 -4.58315e-18)
(6.39653 0.295842 2.1463e-18)
(6.74652 0.096792 -2.53791e-19)
(7.05251 -0.0681974 -2.41899e-19)
(7.31072 -0.198952 1.81542e-18)
(7.5202 -0.296536 -1.54888e-18)
(7.68209 -0.363176 2.05902e-19)
(7.7988 -0.402154 1.95905e-19)
(7.87366 -0.417696 -3.75903e-19)
(7.91088 -0.414807 -1.80267e-19)
(7.91568 -0.398965 -1.51827e-18)
(7.89429 -0.375736 2.55708e-20)
(7.85335 -0.350926 1.39478e-18)
(7.7997 -0.329796 2.91666e-19)
(-9.62685 6.96858 0)
(-16.0939 13.9381 -3.56764e-20)
(-17.1268 17.3402 -5.45359e-19)
(-20.1162 20.6027 -8.34322e-17)
(-26.3758 22.745 1.67681e-16)
(-32.3189 23.5713 -1.64854e-16)
(-37.4572 23.0102 8.17491e-17)
(-41.3161 21.6358 0)
(-43.3269 20.2544 -3.69614e-20)
(-43.187 19.4386 -6.22619e-17)
(-40.4047 19.2548 6.34081e-17)
(-34.2715 19.4813 5.28632e-17)
(-24.6481 19.9522 -1.034e-16)
(-12.2532 20.5731 4.20205e-18)
(1.83967 21.3927 4.55506e-18)
(16.4038 22.6014 4.17628e-17)
(30.346 24.1298 4.64439e-19)
(42.8941 25.8053 -3.12643e-17)
(52.8925 27.8941 3.14788e-17)
(58.4691 30.827 -4.87254e-20)
(58.6224 34.4767 3.19058e-19)
(53.7434 38.3802 6.2998e-19)
(44.6056 41.941 -9.92596e-18)
(32.7613 44.299 4.6582e-18)
(21.1483 44.4186 5.61824e-18)
(12.5269 41.8895 2.23596e-19)
(7.63736 37.2055 -1.21554e-19)
(5.47122 31.2804 -4.87449e-19)
(4.73113 24.9706 5.15806e-20)
(4.61876 18.8593 7.73115e-20)
(4.77328 13.2707 0)
(4.99981 8.36258 -3.76138e-18)
(5.15166 4.22634 8.18372e-18)
(5.10298 0.907704 -4.42583e-18)
(4.77016 -1.5943 5.17532e-18)
(4.13838 -3.33283 -5.53466e-18)
(3.25641 -4.40031 -1.42424e-19)
(2.21085 -4.91324 0)
(1.09658 -4.99269 -2.10183e-20)
(-0.00544352 -4.74916 -4.20823e-18)
(-1.03749 -4.28314 4.44778e-18)
(-1.96743 -3.69082 -7.79069e-20)
(-2.7827 -3.04896 6.66525e-20)
(-3.47917 -2.40254 0)
(-4.05169 -1.7739 0)
(-4.49078 -1.17299 1.42342e-18)
(-4.78248 -0.603755 -1.53092e-18)
(-4.91049 -0.069693 -4.59839e-20)
(-4.86062 0.422837 -1.70901e-19)
(-4.6262 0.864223 -4.44451e-20)
(-4.21356 1.24227 1.65732e-19)
(-3.64454 1.54507 0)
(-2.95533 1.76489 -1.06921e-18)
(-2.19166 1.90006 1.00139e-18)
(-1.40098 1.95538 0)
(-0.624155 1.94132 -1.46709e-18)
(0.109956 1.87433 1.36428e-18)
(0.786909 1.76857 -1.44828e-18)
(1.4053 1.62464 1.25634e-18)
(1.97799 1.4471 0)
(2.52545 1.25096 -3.42552e-19)
(3.06545 1.04735 -1.69856e-19)
(3.60939 0.843462 1.3062e-18)
(4.16013 0.645197 -1.8584e-19)
(4.71159 0.457681 -1.22963e-18)
(5.25118 0.285091 0)
(5.76392 0.130647 -1.38504e-19)
(6.23633 -0.00328787 0)
(6.65875 -0.115092 0)
(7.02569 -0.203798 1.87508e-18)
(7.3349 -0.269092 -1.82813e-18)
(7.58603 -0.311382 -1.48571e-18)
(7.7798 -0.331925 -1.68766e-19)
(7.91782 -0.332941 1.37264e-18)
(8.00295 -0.31766 1.6472e-18)
(8.0398 -0.29024 -1.41822e-18)
(8.03501 -0.255498 1.68635e-19)
(7.99715 -0.218496 1.25844e-18)
(7.93587 -0.184367 -2.71684e-18)
(7.86119 -0.15721 8.75606e-19)
(3.82565 0.495523 7.26524e-17)
(-9.14844 7.90295 -5.43718e-17)
(-31.5377 21.5797 -5.24837e-17)
(-41.0286 30.6146 5.37247e-17)
(-33.6516 34.4627 5.38304e-19)
(-16.505 35.5276 5.28329e-19)
(5.12306 35.0901 0)
(26.7473 34.0138 4.67673e-17)
(45.1965 33.0411 -4.78217e-17)
(59.4159 32.584 0)
(70.0341 32.2135 -3.7896e-17)
(77.6263 31.2726 7.31262e-17)
(81.9177 29.8295 -3.3698e-18)
(82.616 28.4275 -5.92886e-17)
(80.1536 27.246 2.87131e-17)
(75.4704 25.9368 5.12027e-19)
(69.3062 24.1082 -2.44087e-19)
(61.507 21.7424 0)
(51.0994 18.9328 2.05594e-17)
(37.6617 15.8241 -2.04706e-17)
(22.7562 12.5978 -1.00247e-19)
(8.49012 9.48809 1.61816e-17)
(-4.02543 7.11067 -1.68082e-17)
(-14.1689 6.04034 1.40311e-17)
(-21.0413 6.09385 -1.43295e-17)
(-23.9279 6.52727 -2.21995e-19)
(-23.0055 6.6256 1.15577e-17)
(-19.3207 6.05512 -1.33291e-18)
(-14.2188 4.8749 -1.90572e-17)
(-8.85075 3.33422 1.40209e-18)
(-4.00371 1.68403 7.55614e-18)
(-0.139764 0.0937281 5.11622e-18)
(2.53973 -1.33097 -5.26091e-18)
(4.04692 -2.53621 0)
(4.55935 -3.50313 1.68486e-19)
(4.34114 -4.24589 1.52205e-19)
(3.66357 -4.79773 0)
(2.74132 -5.18544 2.40674e-18)
(1.724 -5.41618 -2.53283e-18)
(0.707449 -5.50442 -1.00997e-19)
(-0.256923 -5.47936 0)
(-1.13448 -5.35774 7.81432e-20)
(-1.90076 -5.14747 8.83757e-19)
(-2.54243 -4.86248 -9.43847e-19)
(-3.05281 -4.51904 0)
(-3.42883 -4.13283 -2.31483e-19)
(-3.66989 -3.71906 3.36532e-19)
(-3.77768 -3.29279 0)
(-3.75668 -2.86908 0)
(-3.61467 -2.46259 1.54231e-20)
(-3.36301 -2.08689 3.21893e-20)
(-3.01617 -1.75323 0)
(-2.59039 -1.46929 -9.70025e-19)
(-2.10179 -1.23846 1.01942e-18)
(-1.56365 -1.06005 1.2134e-18)
(-0.986231 -0.929823 -6.22984e-21)
(-0.37649 -0.842001 -2.55682e-18)
(0.262326 -0.785038 2.60552e-18)
(0.926653 -0.748714 1.91264e-19)
(1.60946 -0.72423 -1.14523e-18)
(2.30309 -0.705477 1.68244e-19)
(2.99808 -0.688402 0)
(3.68276 -0.670881 0)
(4.34448 -0.652118 -1.17101e-18)
(4.9713 -0.631992 1.28339e-18)
(5.55353 -0.610487 0)
(6.08449 -0.587292 -1.24989e-19)
(6.56019 -0.561664 0)
(6.97851 -0.532538 -9.38114e-19)
(7.33801 -0.498775 9.1535e-19)
(7.63738 -0.459446 -2.08758e-19)
(7.87531 -0.414071 -1.83559e-18)
(8.05111 -0.362797 1.58218e-18)
(8.16541 -0.306514 -1.81812e-19)
(8.22106 -0.246913 0)
(8.2236 -0.18647 0)
(8.18148 -0.128277 0)
(8.10558 -0.0757315 1.37378e-18)
(8.00815 -0.0322329 1.2964e-19)
(7.90142 -0.000325502 -2.25466e-18)
(17.4254 -7.95786 -4.7557e-17)
(41.4674 -21.6764 -6.91372e-17)
(58.3345 -28.4514 7.06377e-17)
(69.4131 -37.0444 -6.72369e-17)
(79.0995 -42.1599 6.90133e-17)
(81.9491 -45.0307 2.99828e-19)
(76.5108 -45.2331 2.99414e-19)
(62.7832 -42.9377 0)
(42.1333 -38.6216 8.46667e-21)
(18.6832 -32.8547 0)
(-1.62225 -27.0208 2.55146e-19)
(-14.9725 -22.7653 1.2194e-17)
(-21.8212 -20.8442 -1.21916e-17)
(-24.8107 -20.7165 -1.06864e-18)
(-26.428 -21.223 6.96592e-19)
(-28.7397 -21.5976 4.96181e-18)
(-33.4797 -21.286 -4.57258e-18)
(-41.9882 -19.605 0)
(-54.2003 -16.0602 0)
(-66.4049 -11.4713 0)
(-71.3942 -8.03584 -9.22838e-18)
(-65.6225 -7.39699 1.7018e-17)
(-52.9088 -8.63119 -1.52821e-18)
(-39.1625 -9.71936 -1.22128e-17)
(-27.7665 -9.64532 5.23338e-18)
(-19.5947 -8.47919 0)
(-14.3205 -6.69374 -2.33712e-19)
(-11.185 -4.79211 0)
(-9.34325 -3.17788 -2.32289e-18)
(-8.10532 -2.09497 2.47371e-18)
(-7.05283 -1.59587 2.65634e-19)
(-6.01501 -1.57593 0)
(-4.98794 -1.88148 1.22247e-18)
(-4.0301 -2.36409 -1.9744e-18)
(-3.21421 -2.90915 8.51371e-19)
(-2.59957 -3.43136 -4.91779e-19)
(-2.20383 -3.88099 7.96446e-19)
(-2.01175 -4.24082 -3.0298e-19)
(-1.98781 -4.51943 0)
(-2.08135 -4.72977 0)
(-2.24701 -4.87745 0)
(-2.44804 -4.96537 -2.60936e-19)
(-2.65338 -4.99647 8.65746e-19)
(-2.83807 -4.97408 -6.12262e-19)
(-2.98294 -4.90187 0)
(-3.07359 -4.78444 7.83466e-19)
(-3.09954 -4.62753 -7.76291e-19)
(-3.05365 -4.43792 -8.69276e-19)
(-2.93171 -4.22321 1.50244e-20)
(-2.73225 -3.99132 -5.37536e-20)
(-2.45625 -3.75001 -5.43758e-20)
(-2.10671 -3.50554 1.00743e-18)
(-1.68812 -3.26229 0)
(-1.20746 -3.02605 0)
(-0.673213 -2.80059 1.09375e-18)
(-0.093665 -2.58571 -1.14174e-18)
(0.521914 -2.38165 0)
(1.16352 -2.18816 0)
(1.82161 -2.00526 -6.82257e-20)
(2.48662 -1.83292 -1.54788e-19)
(3.14915 -1.67104 0)
(3.80037 -1.51943 0)
(4.43226 -1.37778 1.28035e-19)
(5.03769 -1.24548 1.24742e-19)
(5.61034 -1.12152 -1.1603e-18)
(6.14446 -1.00467 1.99072e-18)
(6.6345 -0.893592 1.08368e-19)
(7.07503 -0.787039 -1.83904e-18)
(7.46075 -0.684076 1.86846e-18)
(7.78682 -0.584142 -1.68935e-18)
(8.04929 -0.487043 3.2015e-19)
(8.2456 -0.392886 7.80666e-19)
(8.37505 -0.302047 -1.46908e-18)
(8.4393 -0.21519 3.28729e-20)
(8.44281 -0.133345 2.71195e-18)
(8.39311 -0.0579821 -1.46404e-18)
(8.3008 0.00902281 0)
(8.17891 0.0655832 -2.95796e-19)
(8.04166 0.109802 0)
(7.90247 0.140145 1.08302e-18)
(-4.66197 1.99029 0)
(-9.54943 9.64291 -1.48075e-19)
(-8.61686 5.72135 1.59017e-19)
(-0.0480543 4.25179 7.22981e-18)
(10.0613 0.270557 -1.91767e-17)
(20.4691 -2.76267 1.18045e-17)
(30.363 -6.49654 -3.06973e-19)
(39.9001 -10.2814 0)
(48.4911 -13.3464 0)
(54.4333 -15.1059 0)
(55.6896 -14.9665 -2.62603e-19)
(51.3149 -12.6266 1.38394e-19)
(42.3997 -8.30836 0)
(31.49 -2.76917 -3.42945e-19)
(20.8511 2.72903 -2.27382e-19)
(11.6859 6.52396 -5.11127e-17)
(5.01564 7.74853 5.12188e-17)
(1.43973 6.85578 4.93539e-19)
(0.770382 4.99307 0)
(2.62799 3.13383 -4.21022e-19)
(6.26176 1.70985 2.18798e-19)
(10.0211 0.683911 -3.25817e-17)
(12.3351 -0.0379829 3.44291e-18)
(12.666 -0.528878 2.95531e-17)
(11.2465 -0.817798 3.03532e-19)
(8.56059 -0.91046 -2.39388e-19)
(5.18335 -0.841483 1.7814e-17)
(1.77503 -0.730609 -1.69779e-17)
(-1.06301 -0.74009 -3.38106e-19)
(-3.01262 -0.967025 -1.53137e-19)