/*--------------------------------*- C++ -*----------------------------------*\
| =========                 |                                                 |
| \\      /  F ield         | OpenFOAM: The Open Source CFD Toolbox           |
|  \\    /   O peration     | Version:  2012                                  |
|   \\  /    A nd           | Website:  www.openfoam.com                      |
|    \\/     M anipulation  |                                                 |
\*---------------------------------------------------------------------------*/
FoamFile
{
    version     2.0;
    format      ascii;
    class       surfaceScalarField;
    location    "0.41";
    object      phi;
}
// * * * * * * * * * * * * * * * * * * * * * * * * * * * * * * * * * * * * * //

dimensions      [0 3 -1 0 0 0 0];
oriented        oriented;


internalField   nonuniform List<scalar> 
84340
(
-0.00027009
-0.000103606
0.000373696
-0.000518241
-9.98442e-05
0.000347995
-0.000431248
1.87921e-05
-0.000105785
-8.87032e-06
7.86046e-05
-0.000500983
0.000530151
0.000242167
-0.000781188
0.000939298
0.000643559
-0.00105271
0.00119588
0.00105443
-0.00131102
0.00146117
0.0012419
-0.00150718
0.00187137
0.0012135
-0.0016237
0.00246616
0.00107656
-0.00167136
0.00322779
0.000900826
-0.00166245
0.00414194
0.000710736
-0.00162489
0.00518034
0.000518165
-0.00155656
0.00628879
0.000321214
-0.00142967
0.00732733
0.00013125
-0.00116979
0.00806728
-4.54658e-05
-0.000694489
0.00830322
-0.000205274
-3.06606e-05
0.00798491
-0.000343432
0.000661743
0.00723974
-0.00045117
0.00119633
0.006274
-0.000519424
0.00148517
0.00526522
-0.000543075
0.00155185
0.0043228
-0.000524072
0.0014665
0.00350129
-0.000471443
0.00129296
0.00282315
-0.000399394
0.00107753
0.00229173
-0.000325314
0.00085673
0.00189556
-0.000266355
0.000662529
0.00161202
-0.000233952
0.000517493
0.00141517
-0.000228826
0.000425674
0.00128293
-0.000241365
0.000373607
0.00120127
-0.000258831
0.000340492
0.00115806
-0.000264768
0.000307969
0.00113621
-0.000245009
0.000266862
0.00112998
-0.000210245
0.000216477
0.00113646
-0.000167032
0.000160552
0.00115331
-0.000120922
0.000104073
0.00117884
-7.78436e-05
5.23078e-05
0.00121524
-4.562e-05
9.2259e-06
0.00126272
-2.44294e-05
-2.30558e-05
0.00131992
-1.33544e-05
-4.38439e-05
0.00138367
-1.07288e-05
-5.30164e-05
0.00145042
-1.44384e-05
-5.23189e-05
0.00151612
-2.26905e-05
-4.30087e-05
0.00157793
-3.34398e-05
-2.83664e-05
0.00163374
-4.51634e-05
-1.06429e-05
0.00168172
-5.63293e-05
8.34291e-06
0.0017203
-6.57273e-05
2.71549e-05
0.00174872
-7.25237e-05
4.41031e-05
0.00176664
-7.62627e-05
5.83419e-05
0.00177412
-7.68656e-05
6.93876e-05
0.00177188
-7.45951e-05
7.68357e-05
0.00176131
-6.99588e-05
8.05253e-05
0.00174444
-6.36245e-05
8.04968e-05
0.00172452
-5.63297e-05
7.62445e-05
0.00170504
-4.88244e-05
6.83068e-05
0.00168967
-4.17227e-05
5.70921e-05
0.00168209
-3.55985e-05
4.31788e-05
0.00168548
-3.07368e-05
2.73421e-05
0.00170215
-2.76051e-05
1.09374e-05
0.00173428
-2.63238e-05
-5.80691e-06
0.00178264
-2.72553e-05
-2.11033e-05
0.00184715
-3.0726e-05
-3.37854e-05
0.00192694
-3.70049e-05
-4.27879e-05
0.00202072
-4.69342e-05
-4.68374e-05
0.00212646
-6.11551e-05
-4.45923e-05
0.00224175
-8.06061e-05
-3.46766e-05
0.00236373
-0.000106307
-1.56777e-05
0.00248964
-0.000139237
1.33243e-05
0.00261626
-0.00018026
5.36377e-05
0.00274009
-0.000229957
0.000106134
0.00285724
-0.000288401
0.000171244
0.00296294
-0.00035501
0.000249318
0.00305154
-0.000428445
0.000339837
0.00311675
-0.000506513
0.000441311
0.00315192
-0.000586336
0.000551161
0.00315111
-0.000664819
0.000665637
0.00311049
-0.000739495
0.000780112
0.0030302
-0.000809246
0.000889539
0.00291588
-0.00087565
0.000989966
0.00277623
-0.000940278
0.00107993
-0.00101187
0.00115764
0.00263046
-0.000235918
0.000132312
-0.000384471
4.87085e-05
-0.000115983
-0.000249696
0.000406775
-0.000444153
0.000993889
-0.000344948
0.00163925
-1.79764e-06
0.00236125
0.00033243
0.00312778
0.000475367
0.00387604
0.000465243
0.0045506
0.000402001
0.00511692
0.000334511
0.00555685
0.000270807
0.00586669
0.000208316
0.00604261
0.000145299
0.00609137
8.24843e-05
0.00602344
2.24655e-05
0.00585015
-3.19835e-05
0.00558561
-7.88941e-05
0.00525161
-0.000117164
0.00487902
-0.000146833
0.00450407
-0.000168129
0.00416098
-0.000180979
0.00387544
-0.000185909
0.00366033
-0.000184284
0.00351351
-0.000178488
0.00341862
-0.000171468
0.00334943
-0.000164762
0.00327828
-0.000157673
0.00318251
-0.000145598
0.00304619
-0.000122505
0.00286529
-8.38768e-05
0.0026523
-3.20119e-05
0.00241776
2.42964e-05
0.00217727
7.34511e-05
0.00194912
0.000107229
0.00175008
0.000121195
0.00158807
0.000116393
0.0014663
9.73417e-05
0.00138413
6.8813e-05
0.00133844
3.49598e-05
0.00132474
-7.33515e-07
0.00133743
-3.53855e-05
0.0013707
-6.67088e-05
0.00141858
-9.30374e-05
0.00147555
-0.000113304
0.0015368
-0.000126976
0.00159827
-0.000133998
0.00165674
-0.00013473
0.00170977
-0.000129898
0.00175574
-0.000120565
0.00179385
-0.000108069
0.00182418
-9.39476e-05
0.00184766
-7.98117e-05
0.00186603
-6.71973e-05
0.00188172
-5.74114e-05
0.00189752
-5.14006e-05
0.00191646
-4.96702e-05
0.00194114
-5.22848e-05
0.00197374
-5.89323e-05
0.00201556
-6.90704e-05
0.00206694
-8.21041e-05
0.00212748
-9.75511e-05
0.00219575
-0.000115199
0.00226971
-0.00013512
0.00234675
-0.000157645
0.00242377
-0.000183325
0.00249733
-0.000212797
0.00256369
-0.000246619
0.00261887
-0.000285138
0.00265887
-0.000328401
0.00268001
-0.000376151
0.00267959
-0.000428022
0.00265675
-0.000483672
0.0026134
-0.000542981
0.00255491
-0.000606333
0.00249011
-0.000674699
0.00243035
-0.000749479
0.00238639
-0.00083169
0.00236818
-0.000922067
-0.00101347
0.00236978
0.000130651
1.6611e-06
0.000188758
-9.39873e-06
0.000103152
-0.000164089
-7.25107e-05
-0.000268491
-0.000184686
-0.000232773
-5.07678e-06
-0.000181407
0.000492842
-0.000165489
0.00114822
-0.000180009
0.00182091
-0.000207446
0.0024601
-0.000237191
0.00305781
-0.000263202
0.00362812
-0.000299501
0.00416975
-0.000333318
0.00466884
-0.000353792
0.00509967
-0.000348338
0.00543056
-0.000308427
0.00563353
-0.00023495
0.00569494
-0.000140306
0.00561704
-3.92625e-05
0.00541758
5.26266e-05
0.0051239
0.00012555
0.00476762
0.000175295
0.00437602
0.000205694
0.0039702
0.00022154
0.00356434
0.000227373
0.00316669
0.00022618
0.00278207
0.000219853
0.00241368
0.000210722
0.00206502
0.000203057
0.00174451
0.000198009
0.00145218
0.000208451
0.00118757
0.000232597
0.000949332
0.000262538
0.00073602
0.000286763
0.000547977
0.000295273
0.000385793
0.00028338
0.000258974
0.000243212
0.000168907
0.000187408
0.000117359
0.000120362
0.000103688
4.86304e-05
0.000124418
-2.14636e-05
0.000173741
-8.47084e-05
0.000244747
-0.000137714
0.000330519
-0.00017881
0.000424861
-0.000207645
0.000522635
-0.00022475
0.000619834
-0.000231197
0.000713484
-0.00022838
0.000801498
-0.000217912
0.000882536
-0.000201603
0.000955918
-0.000181451
0.00102155
-0.000159584
0.00107989
-0.000138147
0.00113182
-0.000119124
0.00117855
-0.000104149
0.00122147
-9.43216e-05
0.0012619
-9.00949e-05
0.00130089
-9.12752e-05
0.0013391
-9.71455e-05
0.00137672
-0.00010669
0.00141348
-0.000118864
0.00144878
-0.000132847
0.00148179
-0.000148211
0.00151167
-0.000164999
0.0015377
-0.000183677
0.00155941
-0.000205038
0.00157668
-0.000230066
0.00158988
-0.000259815
0.00160003
-0.000295287
0.00160898
-0.000337354
0.00161952
-0.00038669
0.00163522
-0.000443726
0.00166016
-0.000508604
0.0016983
-0.000581124
0.00175264
-0.000660673
0.00182408
-0.000746142
0.00191043
-0.000835826
0.00200616
-0.000927419
0.00210211
-0.00101802
-0.00110348
0.00219212
-0.000366438
0.0003681
-0.000939818
0.000563981
-0.0015431
0.000439197
-0.00208927
0.000277676
-0.00250203
0.000179986
-0.00278253
9.90975e-05
-0.00294999
1.97132e-06
-0.00300052
-0.000129488
-0.00290725
-0.000300708
-0.00263772
-0.000506726
-0.00217035
-0.000730566
-0.00152738
-0.000942479
-0.00075758
-0.00110311
5.67041e-05
-0.00116808
0.000823832
-0.00111547
0.00146816
-0.000952757
0.00195476
-0.000721545
0.00229538
-0.000480926
0.00253754
-0.000281423
0.00273622
-0.000146055
0.00293015
-6.83777e-05
0.00312971
-2.42638e-05
0.00332268
1.27231e-05
0.00348361
6.06065e-05
0.00358575
0.000125233
0.00360723
0.000204697
0.00353766
0.000289422
0.00338044
0.000367943
0.00314831
0.000435185
0.00285877
0.000487557
0.00254316
0.000524063
0.00223082
0.00054493
0.00194287
0.000550489
0.00168874
0.000540894
0.00146692
0.000517095
0.00127752
0.000472782
0.00110706
0.000413664
0.000956869
0.000337604
0.000819441
0.00025779
0.000689506
0.000178565
0.000567456
0.000100587
0.00045609
2.66586e-05
0.000359124
-4.07484e-05
0.000279482
-9.91678e-05
0.000218384
-0.000146547
0.000175499
-0.000181864
0.000149521
-0.000205219
0.000138636
-0.000217495
0.000140789
-0.000220065
0.000153858
-0.000214671
0.000175775
-0.000203368
0.000204599
-0.000188408
0.000238507
-0.000172055
0.000275773
-0.00015639
0.000314745
-0.000143122
0.000353888
-0.000133465
0.000391871
-0.000128078
0.000427702
-0.000127105
0.000460874
-0.000130317
0.000491488
-0.000137304
0.000520315
-0.000147691
0.000548767
-0.000161299
0.00057879
-0.000178235
0.000612678
-0.000198886
0.000652855
-0.000223854
0.000701666
-0.000253848
0.000761179
-0.000289579
0.00083302
-0.000331655
0.000918233
-0.000380501
0.00101716
-0.000436282
0.00112932
-0.000498854
0.00125331
-0.000567715
0.00138668
-0.000641972
0.00152589
-0.000720332
0.00166634
-0.000801121
0.00180257
-0.000882377
0.00192877
-0.000962022
0.00203954
-0.00103819
0.00213079
-0.00110926
-0.00117545
0.00220276
0.000539237
-0.000171137
0.00134686
-0.000243643
0.0019702
-0.00018414
0.00243212
-0.000184247
0.00290092
-0.000288812
0.00343574
-0.000435728
0.00401714
-0.000579429
0.00459319
-0.000705532
0.0051093
-0.000816817
0.00551877
-0.000916202
0.00578067
-0.000992466
0.00585961
-0.00102142
0.00572647
-0.000969969
0.00536712
-0.000808726
0.00478083
-0.000529174
0.00398599
-0.000157921
0.00301349
0.000250952
0.00190601
0.000626559
0.000714542
0.000910044
-0.000503802
0.00107229
-0.00168502
0.00111284
-0.00276279
0.00105351
-0.00367398
0.000923912
-0.00436987
0.000756503
-0.00482765
0.000583007
-0.00505071
0.000427757
-0.00506333
0.00030204
-0.00490117
0.000205788
-0.00460002
0.000134032
-0.00419513
8.26691e-05
-0.00372071
4.96399e-05
-0.00320948
3.37044e-05
-0.002692
3.3003e-05
-0.00219562
4.45135e-05
-0.00174203
6.35076e-05
-0.00135802
8.87693e-05
-0.00105759
0.000113241
-0.000851142
0.000131153
-0.000729808
0.000136455
-0.000677535
0.000126292
-0.000671163
9.42147e-05
-0.000687136
4.26307e-05
-0.000707871
-2.00133e-05
-0.000723666
-8.33737e-05
-0.000730484
-0.000139729
-0.000726921
-0.000185427
-0.000712325
-0.000219815
-0.000686536
-0.000243284
-0.000650222
-0.00025638
-0.000604879
-0.000260013
-0.000552464
-0.000255783
-0.000494988
-0.000245884
-0.00043429
-0.000232753
-0.000371973
-0.000218707
-0.000309385
-0.000205709
-0.000247582
-0.000195269
-0.000187213
-0.000188447
-0.000128392
-0.000185927
-7.05875e-05
-0.000188122
-1.25988e-05
-0.000195293
4.73578e-05
-0.000207648
0.000111458
-0.0002254
0.000182016
-0.000248794
0.000261224
-0.000278094
0.000350909
-0.00031354
0.000452354
-0.000355292
0.000566154
-0.000403379
0.000692136
-0.000457637
0.00082931
-0.000517674
0.000975861
-0.000582832
0.00112919
-0.000652182
0.001286
-0.000724526
0.00144247
-0.000798439
0.00159447
-0.000872335
0.00173793
-0.000944578
0.00186918
-0.00101363
0.00198538
-0.00107822
0.00208477
-0.00113758
0.00216645
-0.00119094
-0.00124139
0.00223239
0.000224744
-0.000395881
0.00063498
-0.000653879
0.00111786
-0.000667018
0.00171897
-0.000785359
0.00248932
-0.00105916
0.00339399
-0.0013404
0.00434722
-0.00153266
0.00524584
-0.00160416
0.00600031
-0.00157128
0.006552
-0.00146789
0.00688095
-0.00132142
0.00700104
-0.0011415
0.00696297
-0.000931901
0.00684944
-0.000695202
0.00674837
-0.000428103
0.0067236
-0.000133154
0.00679261
0.000181941
0.00691454
0.000504633
0.00700561
0.000818977
0.00696973
0.00110817
0.00672752
0.00135504
0.00623879
0.00154225
0.0055084
0.0016543
0.00458352
0.00168138
0.00354702
0.00161951
0.00250729
0.00146749
0.00156526
0.00124407
0.000805236
0.000965807
0.000264129
0.000675139
-5.26833e-05
0.000399481
-0.000173747
0.000170704
-0.000144143
4.09959e-06
-1.32715e-05
-9.78683e-05
0.000171904
-0.000140662
0.000371548
-0.000136136
0.000558669
-9.83512e-05
0.000702188
-3.0278e-05
0.000779996
5.33453e-05
0.000791021
0.000125431
0.000738627
0.000178687
0.000629014
0.000203828
0.000474403
0.000197243
0.000292612
0.000161778
0.000104601
0.000104637
-7.0089e-05
3.49616e-05
-0.000216111
-3.94047e-05
-0.000324945
-0.000110981
-0.000395209
-0.000173021
-0.000430735
-0.000220854
-0.000438063
-0.000252686
-0.000424246
-0.0002696
-0.000395538
-0.000274592
-0.000356882
-0.000271408
-0.000311875
-0.000263714
-0.000262912
-0.000254672
-0.000211354
-0.000246826
-0.000157685
-0.000242115
-0.000101653
-0.000241958
-4.2416e-05
-0.000247358
2.12915e-05
-0.000259001
9.09816e-05
-0.000277338
0.000168225
-0.000302643
0.000254465
-0.000335035
0.000350847
-0.000374476
0.000458065
-0.000420757
0.000576245
-0.000473472
0.000704872
-0.000532005
0.000842753
-0.000595519
0.000988039
-0.00066296
0.00113829
-0.000733081
0.00129058
-0.000804477
0.00144169
-0.000875635
0.00158825
-0.000944997
0.00172695
-0.00101104
0.00185474
-0.00107236
0.00196891
-0.0011278
0.00206719
-0.0011765
0.00214777
-0.00121816
0.00220939
-0.00125256
-0.00128391
0.00225192
-0.000546513
0.000150632
-0.00118309
-1.72992e-05
-0.00145001
-0.000400099
-0.00145282
-0.000782549
-0.00144251
-0.00106947
-0.00157347
-0.00120945
-0.00189203
-0.00121409
-0.0023621
-0.00113409
-0.00291267
-0.00102071
-0.00347797
-0.000902598
-0.00401119
-0.000788197
-0.00447541
-0.000677285
-0.00483958
-0.000567729
-0.00507802
-0.000456762
-0.00516338
-0.000342738
-0.0050799
-0.000216638
-0.0048233
-7.46519e-05
-0.00440052
8.18516e-05
-0.00383662
0.000255078
-0.00317492
0.000446465
-0.00247545
0.000655571
-0.00181159
0.000878385
-0.00126206
0.00110477
-0.000895162
0.00131448
-0.000747215
0.00147157
-0.000805777
0.00152605
-0.000995343
0.00143364
-0.00121812
0.00118859
-0.00138608
0.000843103
-0.00144628
0.000459674
-0.00140521
0.000129634
-0.00129529
-0.000105816
-0.00115367
-0.000239489
-0.00100523
-0.000289108
-0.000861481
-0.000279881
-0.00072642
-0.000233413
-0.000591582
-0.000165117
-0.000451409
-8.68276e-05
-0.00031649
-9.48877e-06
-0.00019454
5.67367e-05
-9.39451e-05
0.000103233
-2.06817e-05
0.000123979
2.43391e-05
0.000116757
4.51119e-05
8.38649e-05
4.89762e-05
3.10976e-05
4.19042e-05
-3.23325e-05
2.87818e-05
-9.78586e-05
1.36833e-05
-0.000157922
3.61499e-07
-0.000207532
-7.61433e-06
-0.00024471
-7.45998e-06
-0.000269754
2.2456e-06
-0.000284297
2.14424e-05
-0.000290606
4.89512e-05
-0.000291223
8.30953e-05
-0.000288817
0.000122321
-0.000286052
0.000165645
-0.000285439
0.000212846
-0.000289159
0.000264434
-0.000298946
0.000321462
-0.000316028
0.00038526
-0.000341135
0.000457159
-0.000374542
0.000538249
-0.000416125
0.000629182
-0.000465409
0.000730033
-0.000521607
0.000840228
-0.000583667
0.000958528
-0.000650306
0.00108307
-0.000720066
0.00121148
-0.000791368
0.00134098
-0.000862574
0.00146855
-0.000932047
0.00159113
-0.000998214
0.00170575
-0.00105963
0.00180973
-0.00111501
0.00190072
-0.00116336
0.00197691
-0.00120399
0.00203715
-0.00123674
0.00208102
-0.00126203
0.00210936
-0.0012809
-0.00129726
0.0021227
0.000360499
-0.000209867
0.000969852
-0.000626652
0.00176894
-0.00119919
0.00267604
-0.00168965
0.00344625
-0.00183968
0.00385664
-0.00161984
0.00376965
-0.0011271
0.00320232
-0.000566761
0.00229649
-0.000114876
0.00121341
0.000180481
7.14019e-05
0.000353814
-0.00105453
0.000448645
-0.00211492
0.00049266
-0.00307255
0.000500872
-0.00389824
0.000482949
-0.00456322
0.000448343
-0.00504593
0.000408057
-0.00533923
0.000375151
-0.00544596
0.000361813
-0.00537712
0.000377623
-0.00515866
0.000437106
-0.0048246
0.000544321
-0.0044058
0.000685983
-0.00393865
0.000847325
-0.00346313
0.000996046
-0.00301616
0.00107908
-0.00262966
0.00104714
-0.00232262
0.000881542
-0.00209321
0.000613691
-0.00194812
0.000314583
-0.00187404
5.55571e-05
-0.00185192
-0.000127935
-0.00186431
-0.000227098
-0.00189022
-0.0002632
-0.00190807
-0.000262035
-0.00189899
-0.000242491
-0.00184912
-0.000214984
-0.00174816
-0.000187786
-0.00159588
-0.000161777
-0.00140087
-0.000138268
-0.00117624
-0.000121403
-0.000938136
-0.000114121
-0.000703744
-0.000117635
-0.000487945
-0.000131934
-0.00030419
-0.000152658
-0.000157191
-0.000179331
-4.6712e-05
-0.000208338
3.31846e-05
-0.000237819
9.17108e-05
-0.000266058
0.000138537
-0.000291535
0.000181544
-0.000312761
0.000225706
-0.000328459
0.000273081
-0.000337981
0.000323535
-0.000341677
0.000375767
-0.000341048
0.000428309
-0.000338594
0.000480269
-0.000337399
0.000531703
-0.000340594
0.000583611
-0.000350855
0.000637652
-0.000370069
0.000695719
-0.000399202
0.000759519
-0.000438341
0.000830235
-0.000486841
0.000908328
-0.000543501
0.000993454
-0.000606732
0.00108449
-0.000674704
0.00117966
-0.000745475
0.00127669
-0.000817095
0.00137302
-0.000887703
0.00146605
-0.000955602
0.00155332
-0.00101932
0.00163272
-0.00107761
0.00170263
-0.00112953
0.001762
-0.00117438
0.00181041
-0.00121176
0.00184806
-0.00124165
0.00187577
-0.00126444
0.00189484
-0.0012811
0.00190711
-0.00129317
-0.00130362
0.00191347
-0.000174994
-3.48731e-05
-0.000348776
-0.00045287
-0.000547428
-0.00100054
-0.000886172
-0.00135091
-0.0013599
-0.00136595
-0.0019401
-0.00103963
-0.00258913
-0.000478078
-0.00325603
0.000100141
-0.00389372
0.000522812
-0.00447737
0.000764137
-0.00501731
0.000893751
-0.00552807
0.000959411
-0.00602173
0.000986319
-0.00650138
0.000980515
-0.0069594
0.000940976
-0.00737897
0.000867916
-0.00773868
0.00076776
-0.00801849
0.000654964
-0.00820827
0.000551589
-0.00831043
0.000479789
-0.00831714
0.00044381
-0.00818963
0.000416815
-0.0078785
0.000374855
-0.00734244
0.000311269
-0.00658483
0.000238429
-0.00565858
0.000152835
-0.00465884
4.7392e-05
-0.00369933
-7.79632e-05
-0.00287614
-0.000209497
-0.00223541
-0.000326148
-0.00176871
-0.000411144
-0.00143617
-0.000460471
-0.00118405
-0.000479219
-0.000970732
-0.00047652
-0.00077198
-0.000460787
-0.00057625
-0.000438221
-0.000378503
-0.00041273
-0.000179472
-0.000386817
2.05393e-05
-0.000361788
0.000220725
-0.000338453
0.00041699
-0.000317668
0.000603119
-0.00030025
0.000770741
-0.000285257
0.000912856
-0.000274049
0.00102598
-0.000265777
0.00110723
-0.00026059
0.0011575
-0.000258602
0.00117963
-0.000259955
0.00117819
-0.000264615
0.00115879
-0.000272131
0.00112753
-0.000281499
0.00109036
-0.00029129
0.00105246
-0.000300079
0.00101776
-0.00030698
0.00098889
-0.000312177
0.000967411
-0.000317115
0.000954265
-0.000324253
0.000950147
-0.000336475
0.000955692
-0.0003564
0.000971444
-0.000385822
0.000997685
-0.000425442
0.00103422
-0.000474879
0.00108025
-0.000532869
0.0011343
-0.000597553
0.00119432
-0.000666751
0.00125782
-0.000738205
0.0013221
-0.000809755
0.00138449
-0.000879483
0.00144258
-0.000945798
0.00149446
-0.00100748
0.0015388
-0.00106365
0.00157495
-0.00111377
0.00160295
-0.00115753
0.00162337
-0.00119481
0.00163728
-0.00122567
0.00164606
-0.00125043
0.00165133
-0.00126971
0.00165479
-0.00128456
0.00165807
-0.00129646
-0.00130768
0.00166213
0.000390392
-0.000425265
0.000932427
-0.000994905
0.00113065
-0.00119876
0.000936455
-0.00115671
0.000543451
-0.000972949
0.000160671
-0.000656853
-3.39339e-05
-0.000283473
1.10483e-05
5.51589e-05
0.000211785
0.000322075
0.000439041
0.000536882
0.000602888
0.000729904
0.000646313
0.000915986
0.000545022
0.00108761
0.000310595
0.00121494
-7.08363e-06
0.00125865
-0.000328398
0.00118923
-0.000568966
0.00100833
-0.000676637
0.000762634
-0.000663769
0.000538721
-0.000593823
0.000409844
-0.000516249
0.000366236
-0.000414848
0.000315414
-0.000260509
0.000220515
-1.00338e-05
6.07939e-05
0.000341845
-0.00011345
0.00075754
-0.00026286
0.00117651
-0.000371576
0.00153783
-0.000439286
0.00180009
-0.000471755
0.00195026
-0.00047632
0.00199965
-0.000460536
0.00197144
-0.000432264
0.00189123
-0.000399002
0.00178172
-0.000367011
0.00166136
-0.000340431
0.00154419
-0.000321054
0.00144017
-0.000308709
0.00135523
-0.000301877
0.00129303
-0.000299583
0.00125008
-0.000295509
0.00122462
-0.000292203
0.00121236
-0.000287995
0.00120923
-0.00028213
0.0012098
-0.000274614
0.00120986
-0.000265837
0.00120582
-0.000256546
0.00119506
-0.000247845
0.0011761
-0.000241001
0.00114862
-0.000237129
0.00111343
-0.000236946
0.00107244
-0.000240507
0.0010284
-0.000247253
0.000984701
-0.000256377
0.000945074
-0.000267353
0.000913272
-0.000280375
0.00089263
-0.000296473
0.00088563
-0.000317253
0.000893575
-0.00034442
0.000916458
-0.000379282
0.000953045
-0.000422409
0.00100112
-0.000473515
0.00105778
-0.000531538
0.00111975
-0.000594841
0.00118366
-0.000661466
0.00124628
-0.000729374
0.00130473
-0.000796651
0.00135664
-0.000861664
0.00140032
-0.000923159
0.00143482
-0.0009803
0.00145998
-0.00103263
0.00147633
-0.00108001
0.001485
-0.00112244
0.0014875
-0.00116004
0.00148562
-0.00119293
0.00148126
-0.0012213
0.00147631
-0.00124548
0.00147263
-0.00126603
0.00147188
-0.00128381
0.00147541
-0.00129998
-0.00131624
0.00148397
0.000220638
-0.000645903
0.000423566
-0.00119783
0.00048327
-0.00125847
0.000576115
-0.00124955
0.000915899
-0.00131273
0.0016086
-0.00134955
0.00264306
-0.00131794
0.00388479
-0.00118657
0.00513365
-0.000926787
0.00619182
-0.000521287
0.00690347
1.82595e-05
0.00719811
0.000621345
0.00713451
0.00115121
0.00687569
0.00147376
0.00658697
0.00154737
0.00635037
0.00142583
0.00616552
0.00119318
0.00599879
0.000929366
0.00582791
0.000709597
0.00565673
0.000581028
0.00549294
0.000530018
0.00529857
0.000509788
0.0050566
0.000462481
0.00474205
0.000375346
0.00435794
0.000270664
0.0039293
0.00016578
0.00348764
7.00826e-05
0.00306042
-1.20633e-05
0.00266688
-7.82207e-05
0.00231686
-0.000126301
0.00201229
-0.000155961
0.00175022
-0.000170194
0.00152625
-0.000175031
0.00133698
-0.000177743
0.00117826
-0.000181709
0.0010434
-0.000186192
0.000929803
-0.000195115
0.000835401
-0.000207475
0.000752153
-0.000216335
0.000683997
-0.000227353
0.000630094
-0.000238299
0.000589283
-0.000247185
0.000560468
-0.000253316
0.000542597
-0.000256743
0.000534734
-0.000257975
0.000535959
-0.000257771
0.000545121
-0.000257006
0.000560676
-0.000256555
0.000580735
-0.000257188
0.000603282
-0.000259493
0.000626655
-0.000263879
0.00065007
-0.000270668
0.000673966
-0.000280272
0.00069995
-0.000293337
0.000730346
-0.000310772
0.000767483
-0.00033361
0.000812989
-0.000362759
0.000867323
-0.000398754
0.000929631
-0.00044159
0.000997911
-0.000490689
0.00106937
-0.000544971
0.00114082
-0.000602995
0.00120911
-0.000663133
0.0012714
-0.00072375
0.00132539
-0.000783362
0.0013695
-0.000840763
0.00140294
-0.000895108
0.00142573
-0.000945946
0.00143859
-0.000993165
0.00144286
-0.0010369
0.00144023
-0.00107737
0.00143258
-0.0011148
0.00142182
-0.00114928
0.00140973
-0.00118084
0.00139795
-0.00120952
0.00138794
-0.00123548
0.00138099
-0.00125908
0.00137813
-0.00128094
0.00138004
-0.00130189
-0.00132304
0.00138683
-0.00078518
0.000139277
-0.00196456
-1.84576e-05
-0.00291441
-0.000308615
-0.00371805
-0.000445907
-0.0046555
-0.000375291
-0.00583857
-0.000166477
-0.0072038
4.72881e-05
-0.00858904
0.000198676
-0.00983041
0.000314577
-0.0107905
0.000438838
-0.0113613
0.000589023
-0.0114652
0.000725255
-0.0110847
0.000770664
-0.0102816
0.000670661
-0.00918853
0.000454341
-0.00796454
0.000201845
-0.00675315
-1.82094e-05
-0.00564697
-0.000176819
-0.00466004
-0.000277335
-0.00374152
-0.000337489
-0.00284076
-0.00037074
-0.00195135
-0.000379623
-0.00112168
-0.000367187
-0.000408379
-0.000337958
0.000161419
-0.000299133
0.000588012
-0.000260813
0.000886881
-0.000228787
0.0010757
-0.000200881
0.00117179
-0.000174313
0.0011918
-0.00014631
0.00115076
-0.00011492
0.00106124
-8.06741e-05
0.00093325
-4.70435e-05
0.000775673
-2.01657e-05
0.000600487
-6.52363e-06
0.000425424
-1.11299e-05
0.000265381
-3.50719e-05
0.000132224
-7.43179e-05
3.73925e-05
-0.000121503
-2.09526e-05
-0.000169007
-4.81337e-05
-0.000211118
-5.05127e-05
-0.000244806
-3.44733e-05
-0.000269355
-5.60139e-06
-0.000285615
3.16672e-05
-0.000295243
7.41192e-05
-0.000300222
0.000119647
-0.000302533
0.000167059
-0.000303968
0.00021593
-0.000306058
0.000266498
-0.000310061
0.000319593
-0.000316974
0.00037649
-0.000327565
0.000438625
-0.000342408
0.000507205
-0.000361917
0.000582807
-0.000386374
0.000665118
-0.000415921
0.000752878
-0.000450519
0.000844017
-0.000489893
0.000935919
-0.000533493
0.00102573
-0.000580501
0.00111063
-0.000629874
0.00118809
-0.000680449
0.00125601
-0.000731055
0.0013129
-0.000780644
0.00135794
-0.000828405
0.00139102
-0.000873839
0.0014127
-0.000916789
0.00142415
-0.000957395
0.00142697
-0.000995982
0.00142299
-0.00103292
0.00141408
-0.00106847
0.00140199
-0.0011027
0.00138824
-0.00113553
0.00137415
-0.00116674
0.00136082
-0.00119619
0.00134921
-0.00122386
0.00134012
-0.00124999
0.00133418
-0.001275
0.0013318
-0.00129951
-0.00132415
0.00133292
1.93731e-05
0.000119904
-7.39401e-07
1.65494e-06
4.20361e-05
-0.000351391
0.000147214
-0.000551085
0.000195084
-0.000423161
0.000136062
-0.000107456
-2.38924e-05
0.000207243
-0.000240354
0.000415138
-0.000441623
0.000515846
-0.000544569
0.000541783
-0.000471535
0.000515989
-0.000206616
0.000460336
0.000164946
0.000399102
0.000488759
0.000346848
0.00064128
0.00030182
0.000592536
0.00025059
0.000398323
0.000176004
0.000139485
8.20187e-05
-0.000104734
-3.31164e-05
-0.000269294
-0.000172928
-0.00030037
-0.000339664
-0.000156839
-0.000523154
0.000163163
-0.000687189
0.000604697
-0.000779491
0.00106948
-0.000763914
0.00146076
-0.000652094
0.00172233
-0.000490358
0.00184202
-0.000320572
0.00183431
-0.000166599
0.00172653
-3.85369e-05
0.00155307
5.85446e-05
0.00135354
0.000118857
0.0011481
0.0001584
0.000956552
0.000171378
0.000791125
0.000158903
0.000656178
0.000123818
0.000553533
6.75727e-05
0.000473415
5.79986e-06
0.000414598
-6.26855e-05
0.000374699
-0.000129109
0.000351845
-0.000188264
0.000344152
-0.000237112
0.000349309
-0.000274513
0.000364631
-0.000300937
0.000387556
-0.000318168
0.000416127
-0.000328793
0.000449243
-0.000335649
0.000486599
-0.000341325
0.00052839
-0.00034785
0.000574952
-0.000356623
0.000626482
-0.000368504
0.000682903
-0.000383986
0.000743835
-0.00040334
0.000808625
-0.000426707
0.000876377
-0.000454126
0.000945968
-0.000485511
0.00101606
-0.000520606
0.00108511
-0.000558943
0.00115145
-0.000599836
0.00121336
-0.000642415
0.00126919
-0.000685699
0.00131745
-0.000728712
0.001357
-0.000770609
0.00138715
-0.000810787
0.00140771
-0.000848971
0.0014191
-0.000885227
0.00142223
-0.000919913
0.0014184
-0.000953562
0.00140913
-0.000986721
0.00139601
-0.00101979
0.00138047
-0.00105292
0.00136375
-0.00108599
0.00134688
-0.00111865
0.00133065
-0.00115052
0.00131571
-0.00118125
0.00130256
-0.00121072
0.00129161
-0.00123903
0.00128311
-0.00126651
0.00127721
-0.0012936
-0.00132069
0.00127374
0.000153723
-3.38196e-05
0.000218027
-6.26484e-05
-4.51316e-05
-8.82323e-05
-0.000478801
-0.000117415
-0.000786513
-0.00011545
-0.000814896
-7.90724e-05
-0.000588785
-1.88683e-05
-0.000228792
5.51444e-05
0.000149921
0.000137134
0.000469729
0.000221975
0.000682924
0.000302794
0.000771084
0.000372176
0.000746224
0.000423962
0.000640719
0.000452353
0.00049171
0.000450828
0.000329958
0.000412342
0.000173654
0.000332307
4.75232e-05
0.00020815
-1.74376e-05
3.18443e-05
4.71039e-06
-0.000195076
0.00013544
-0.000470394
0.000385452
-0.000773166
0.000744526
-0.00104626
0.00116804
-0.001203
0.0015861
-0.00118198
0.0019301
-0.000996097
0.00215132
-0.000711578
0.00224061
-0.000409859
0.00221333
-0.000139323
0.00210321
7.15875e-05
0.00194029
0.000221469
0.00174283
0.000316312
0.00154078
0.000360448
0.00135044
0.000361726
0.00117653
0.000332813
0.00102894
0.000271401
0.000903669
0.000192847
0.000807566
0.000101903
0.000738476
6.40439e-06
0.000689999
-8.06314e-05
0.000661556
-0.000159821
0.000652613
-0.00022817
0.00066095
-0.000282849
0.000682653
-0.000322639
0.000713044
-0.000348558
0.000747958
-0.000363707
0.000784555
-0.000372246
0.000821477
-0.000378246
0.000858486
-0.000384859
0.000895909
-0.000394046
0.00093417
-0.000406765
0.000973523
-0.00042334
0.00101399
-0.000443806
0.00105537
-0.000468092
0.00109732
-0.000496076
0.00113935
-0.000527535
0.00118081
-0.000562063
0.00122088
-0.000599021
0.00125859
-0.000637548
0.00129282
-0.000676636
0.00132239
-0.000715268
0.00134625
-0.000752574
0.00136361
-0.000787975
0.0013741
-0.000821274
0.0013778
-0.000852673
0.00137528
-0.000882701
0.00136745
-0.000912087
0.00135547
-0.000941588
0.00134057
-0.000971812
0.00132386
-0.00100309
0.00130634
-0.0010354
0.0012888
-0.00106845
0.00127186
-0.00110171
0.00125598
-0.00113464
0.00124153
-0.00116679
0.00122876
-0.00119795
0.00121786
-0.00122813
0.00120891
-0.00125757
0.00120192
-0.00128661
-0.00131553
0.00119676
0.000262062
-0.000295882
0.000642949
-0.000443535
0.000916094
-0.000361377
0.00109367
-0.00029499
0.00128977
-0.000311552
0.00155882
-0.000348119
0.00189573
-0.000355784
0.00225882
-0.000307945
0.00259638
-0.000200425
0.00286836
-5.0004e-05
0.00306032
0.000110832
0.00318457
0.000247927
0.00326937
0.000339168
0.00334238
0.000379343
0.00341856
0.000374643
0.00349857
0.00033233
0.00357135
0.000259526
0.00361446
0.000165042
0.00359504
5.12686e-05
0.0034881
-8.81386e-05
0.0032648
-0.000247099
0.00290071
-0.000409074
0.00239829
-0.000543839
0.00181021
-0.000614926
0.00123117
-0.000602938
0.000759842
-0.000524766
0.000465631
-0.000417367
0.000366144
-0.000310371
0.000449333
-0.000222513
0.00066916
-0.000148239
0.000976108
-8.5479e-05
0.00132106
-2.86378e-05
0.00165854
2.29672e-05
0.00195354
6.67262e-05
0.00218717
9.91811e-05
0.0023425
0.000116071
0.0024181
0.000117242
0.00241594
0.000104062
0.00234422
7.81284e-05
0.00223351
3.008e-05
0.00210262
-2.89285e-05
0.00196493
-9.04817e-05
0.00182982
-0.000147741
0.00170379
-0.000196607
0.00159169
-0.000236458
0.00149691
-0.000268932
0.00142136
-0.000296691
0.0013653
-0.000322188
0.00132744
-0.000347001
0.00130527
-0.00037187
0.00129558
-0.000397076
0.00129507
-0.000422834
0.00130077
-0.000449504