/*--------------------------------*- C++ -*----------------------------------*\
| =========                 |                                                 |
| \\      /  F ield         | OpenFOAM: The Open Source CFD Toolbox           |
|  \\    /   O peration     | Version:  2012                                  |
|   \\  /    A nd           | Website:  www.openfoam.com                      |
|    \\/     M anipulation  |                                                 |
\*---------------------------------------------------------------------------*/
FoamFile
{
    version     2.0;
    format      ascii;
    class       volVectorField;
    location    "0.41";
    object      U;
}
// * * * * * * * * * * * * * * * * * * * * * * * * * * * * * * * * * * * * * //

dimensions      [0 1 -1 0 0 0 0];


internalField   nonuniform List<vector> 
42400
(
(5.0453 -3.64554 4.15709e-17)
(-10.8388 4.54591 5.933e-17)
(-35.4145 32.3033 -6.02845e-17)
(-54.514 48.3906 0)
(-59.3667 57.2884 0)
(-62.3271 63.9315 -7.40461e-19)
(-63.6082 68.0306 0)
(-60.6003 67.2526 6.53973e-19)
(-52.8825 62.2266 0)
(-41.8566 55.0316 6.11418e-19)
(-28.9378 47.1302 5.98558e-19)
(-15.0646 39.3216 -5.87073e-19)
(-0.963271 32.2184 -3.0258e-17)
(12.5531 26.4069 3.08856e-17)
(24.5832 22.0942 -5.40172e-19)
(34.2522 18.7646 0)
(40.9149 15.4282 0)
(44.4126 11.4178 0)
(44.9755 6.94056 0)
(43.0694 2.79403 0)
(39.2411 -0.250747 0)
(34.0874 -1.85052 -6.44666e-19)
(28.2485 -2.11523 -1.20927e-17)
(22.379 -1.45389 3.74043e-19)
(17.1343 -0.423657 1.08958e-17)
(13.0955 0.402561 -4.69656e-19)
(10.5839 0.615976 -4.33659e-19)
(9.49855 0.13255 7.97957e-19)
(9.38294 -0.785645 0)
(9.65383 -1.72255 0)
(9.82942 -2.29116 9.33303e-18)
(9.64694 -2.35793 -9.4278e-18)
(9.08515 -1.95681 4.94614e-19)
(8.27376 -1.2287 -8.81759e-18)
(7.37204 -0.341412 8.48678e-18)
(6.51394 0.565402 0)
(5.78837 1.40361 0)
(5.24288 2.12989 0)
(4.88798 2.72857 0)
(4.70658 3.20096 -6.202e-18)
(4.66497 3.55793 6.21789e-18)
(4.72358 3.81563 -5.22406e-18)
(4.84179 3.99316 7.9762e-19)
(4.98543 4.11059 8.75247e-18)
(5.1264 4.18495 -4.03537e-18)
(5.24326 4.22881 3.20362e-18)
(5.32044 4.25215 -6.2465e-18)
(5.34992 4.2609 2.85089e-18)
(5.33039 4.25714 1.40345e-19)
(5.26497 4.24151 -2.008e-18)
(5.16022 4.21465 3.72336e-18)
(5.02513 4.17844 -6.71206e-20)
(4.87057 4.13694 -1.60899e-18)
(4.70814 4.09708 1.21547e-19)
(4.5491 4.0671 0)
(4.40421 4.0549 0)
(4.28387 4.06626 0)
(4.19706 4.10448 -5.47678e-20)
(4.15181 4.17037 -4.39961e-20)
(4.15483 4.26208 0)
(4.21064 4.37421 -4.66519e-19)
(4.32218 4.49873 4.80017e-19)
(4.49155 4.6259 2.50459e-19)
(4.71964 4.74462 -2.45724e-19)
(5.00625 4.84313 0)
(5.35003 4.90963 0)
(5.7479 4.93303 -2.01815e-20)
(6.19547 4.90385 1.97255e-20)
(6.68604 4.81458 -1.58101e-21)
(7.2092 4.66044 0)
(7.75076 4.43839 0)
(8.29083 4.14794 1.59407e-21)
(8.80349 3.79232 1.42935e-21)
(9.25779 3.37855 0)
(9.62091 2.91779 1.47608e-23)
(9.86281 2.42264 9.75905e-20)
(9.96717 1.91307 -9.47067e-20)
(9.92976 1.38725 5.78407e-21)
(9.7996 0.909277 -3.46435e-20)
(9.57093 0.287483 1.06067e-20)
(3.55344 -3.03966 0)
(12.2397 -16.3878 1.63353e-16)
(32.6166 -28.9772 -1.6802e-16)
(45.9158 -42.3524 0)
(42.3594 -34.6155 0)
(18.003 -8.12915 1.46413e-16)
(-7.39689 19.7495 -1.4941e-16)
(-18.7942 35.0101 -6.60057e-19)
(-18.1825 39.3406 0)
(-13.0984 39.4136 -6.19674e-19)
(-7.49864 38.3942 -6.07361e-19)
(-2.34719 36.9698 -1.18372e-16)
(2.21945 35.2222 8.19498e-18)
(6.19211 33.1225 1.17615e-16)
(9.56801 30.6841 1.05851e-16)
(12.3244 27.9833 -1.0555e-16)
(14.4268 25.1223 0)
(15.8357 22.2298 1.62245e-18)
(16.5321 19.4671 0)
(16.5737 16.9746 0)
(16.0772 14.8725 0)
(15.2159 13.2373 -6.60424e-17)
(14.1983 12.0707 6.63409e-18)
(13.2239 11.2881 6.40217e-17)
(12.4543 10.7561 0)
(11.9681 10.3364 -3.23708e-19)
(11.726 9.93279 4.35057e-19)
(11.5757 9.52399 -7.99186e-19)
(11.3081 9.15155 -3.51147e-17)
(10.7464 8.84865 3.54706e-17)
(9.81806 8.64255 -7.80389e-19)
(8.5836 8.4782 -6.6415e-19)
(7.20149 8.29178 -2.07246e-17)
(5.84069 8.0144 2.09699e-17)
(4.64964 7.62591 1.59133e-17)
(3.71939 7.14549 -1.59755e-17)
(3.08399 6.61481 0)
(2.73008 6.07032 2.54356e-19)
(2.62268 5.54263 0)
(2.71547 5.05584 3.72511e-19)
(2.95663 4.62884 -6.056e-18)
(3.29419 4.27578 6.38887e-18)
(3.67939 4.0053 -3.15186e-19)
(4.07024 3.81982 2.78676e-19)
(4.43357 3.71622 -7.50838e-20)
(4.7453 3.68687 2.15106e-19)
(4.99033 3.72096 -1.8758e-19)
(5.16185 3.80543 -2.04477e-18)
(5.26018 3.92571 2.05776e-18)
(5.29157 4.06654 0)
(5.26694 4.21295 -5.33352e-20)
(5.20064 4.35143 -1.73123e-19)
(5.10893 4.47117 -7.53001e-19)
(5.00863 4.56506 7.69039e-19)
(4.91556 4.63026 3.97567e-20)
(4.84325 4.66823 -9.46963e-19)
(4.80201 4.68403 9.8873e-19)
(4.79861 4.68494 5.46986e-20)
(4.83615 4.67883 4.39428e-20)
(4.91499 4.67231 -4.05621e-19)
(5.03327 4.66938 3.99186e-19)
(5.18774 4.67088 -2.13845e-20)
(5.37509 4.67428 -5.51794e-21)
(5.59187 4.6738 0)
(5.83458 4.66109 1.34987e-19)
(6.09958 4.6264 -1.56984e-20)
(6.38243 4.55976 -1.36775e-19)
(6.67716 4.45202 0)
(6.97557 4.29569 1.71127e-20)
(7.26665 4.08592 -1.68781e-20)
(7.5368 3.82146 -1.13317e-19)
(7.77091 3.50548 1.08809e-19)
(7.95505 3.14603 1.20699e-19)
(8.08071 2.7554 -1.38039e-19)
(8.1501 2.34845 1.9009e-20)
(8.1806 1.93994 -1.21056e-19)
(8.20556 1.54121 8.1295e-20)
(8.26486 1.15934 -5.79109e-21)
(8.40412 0.798369 1.42662e-19)
(8.58521 0.472923 -1.04418e-19)
(-2.14825 1.18381 -1.10633e-17)
(3.51536 1.64549 1.33552e-19)
(9.62102 -7.51687 4.16422e-19)
(10.7927 -7.0289 1.59654e-19)
(3.01972 -3.81723 0)
(-1.84773 0.020924 -8.18578e-17)
(-1.74134 2.77552 1.75572e-16)
(0.807184 4.78735 -9.38924e-17)
(3.31168 6.8615 1.09553e-16)
(4.89133 9.4843 4.51007e-18)
(5.64525 12.566 -1.18588e-16)
(6.01263 15.7723 -9.68668e-19)
(6.36981 18.8216 -9.58831e-19)
(6.90549 21.4997 1.26117e-16)
(7.63143 23.6631 -1.28363e-16)
(8.43891 25.2165 -1.51279e-18)
(9.19703 26.0866 -1.15715e-16)
(9.82441 26.2257 6.02666e-18)
(10.3006 25.6165 1.1078e-16)
(10.6659 24.2946 3.36442e-19)
(10.9799 22.3836 -3.11886e-19)
(11.2694 20.0496 -2.9203e-19)
(11.5156 17.4719 0)
(11.687 14.8296 -7.14579e-19)
(11.7545 12.2665 5.41839e-17)
(11.6935 9.86195 -1.00603e-16)
(11.492 7.67493 4.73117e-17)
(11.1011 5.757 -3.32751e-17)
(10.4251 4.20009 3.37069e-17)
(9.3491 3.13441 2.29429e-17)
(7.80958 2.64296 -4.07125e-17)
(5.89159 2.64397 4.0295e-18)
(3.86357 2.8872 1.49644e-17)
(2.07063 3.0634 0)
(0.777445 2.95664 0)
(0.0649373 2.52049 3.49239e-19)
(-0.127546 1.84866 0)
(0.0674166 1.07822 -1.89834e-19)
(0.510683 0.325844 -4.38379e-18)
(1.08986 -0.32583 7.81342e-18)
(1.7214 -0.825229 -4.03706e-18)
(2.341 -1.1498 0)
(2.90216 -1.29873 0)
(3.37439 -1.28622 -1.83181e-18)
(3.74132 -1.13496 1.65961e-18)
(3.99798 -0.871455 4.60095e-21)
(4.14818 -0.522875 0)
(4.20232 -0.115528 0)
(4.17568 0.325677 -5.18565e-19)
(4.08706 0.777364 5.15818e-19)
(3.95764 1.21792 5.34491e-20)
(3.80966 1.62807 0)
(3.66486 1.99175 3.68367e-21)
(3.54265 2.29722 -5.14666e-20)
(3.45832 2.53797 -1.14461e-19)
(3.42151 2.71319 -3.75512e-22)
(3.43542 2.82744 -1.61086e-19)
(3.49696 2.88945 2.78766e-19)
(3.59793 2.91035 -2.7562e-19)
(3.72699 2.90157 1.41862e-20)
(3.87201 2.87292 1.17011e-19)
(4.02227 2.83129 6.84918e-20)
(4.17008 2.77995 -6.17495e-20)
(4.31146 2.7187 0)
(4.44599 2.64483 -2.16934e-20)
(4.57612 2.55423 -3.58601e-20)
(4.70612 2.44265 7.83499e-20)
(4.84106 2.30695 0)
(4.9862 2.14611 -2.6138e-20)
(5.14687 1.96189 -1.56418e-19)
(5.32888 1.75898 1.51112e-19)
(5.53906 1.5443 0)
(5.78564 1.32562 0)
(6.07769 1.10995 1.92852e-20)
(6.42318 0.902218 -1.90644e-20)
(6.82508 0.704766 -1.3062e-19)
(7.27713 0.518337 2.08116e-19)
(7.75873 0.340272 0)
(8.24802 0.180989 -3.48292e-20)
(8.65803 0.0068916 -1.79172e-19)
(-12.967 8.42776 -2.11416e-17)
(-22.904 12.0488 2.9399e-17)
(-15.9768 4.58612 -1.44101e-17)
(-7.52526 -6.47676 -1.14432e-17)
(-3.57607 -12.2269 1.12162e-17)
(-1.71456 -15.9276 0)
(0.559275 -19.0184 -4.08343e-18)
(4.3231 -22.3628 4.86539e-18)
(9.81301 -26.2483 1.18674e-17)
(17.0273 -30.4904 -1.21159e-17)
(25.7392 -34.7107 2.74632e-17)
(35.3733 -38.449 -6.58053e-17)
(44.9248 -41.1571 8.06876e-17)
(53.0929 -42.2751 -9.54016e-17)
(58.5946 -41.3881 1.07595e-16)
(60.5837 -38.4146 -5.74384e-17)
(58.9911 -33.6853 -5.94288e-17)
(54.5417 -27.8393 1.20581e-16)
(48.4175 -21.5616 -6.02658e-17)
(41.7613 -15.3594 -3.34112e-19)
(35.3387 -9.49343 1.3347e-18)
(29.4809 -4.0518 -4.27968e-17)
(24.2096 0.933233 4.28241e-17)
(19.4212 5.41474 -2.59198e-19)
(15.0218 9.31157 0)
(10.9762 12.5045 -2.24623e-19)
(7.3233 14.9179 0)
(4.09421 16.5166 1.10137e-17)
(1.29202 17.344 -3.07163e-18)
(-1.0957 17.5138 -8.94993e-18)
(-3.07777 17.1772 -4.57269e-18)
(-4.63761 16.4947 4.82138e-18)
(-5.73785 15.5828 -6.31962e-19)
(-6.33342 14.4841 -3.95701e-19)
(-6.39516 13.1947 -1.65438e-18)
(-5.93447 11.7072 1.95969e-18)
(-5.01675 10.0313 0)
(-3.76103 8.21581 1.38826e-18)
(-2.31766 6.35079 -1.46075e-18)
(-0.855675 4.53099 -7.96417e-20)
(0.475763 2.8475 -2.93146e-19)
(1.58248 1.38555 0)
(2.42563 0.194397 0)
(3.00925 -0.710056 0)
(3.36083 -1.3398 -1.78483e-19)
(3.51842 -1.72412 1.16318e-18)
(3.52228 -1.90042 -1.16557e-18)
(3.41044 -1.90784 0)
(3.21726 -1.78423 0)
(2.97385 -1.56537 9.98541e-19)
(2.70888 -1.28484 -8.94489e-19)
(2.44865 -0.973535 8.90863e-19)
(2.2161 -0.658789 -6.74291e-19)
(2.02917 -0.36327 1.44995e-19)
(1.89923 -0.103872 -5.61375e-19)
(1.83007 0.109061 7.27386e-19)
(1.81801 0.271884 -1.09743e-18)
(1.85346 0.386935 9.94741e-19)
(1.9236 0.460989 0)
(2.01577 0.503198 -6.57012e-20)
(2.12053 0.523038 -5.87609e-19)
(2.23358 0.528743 1.44518e-19)
(2.35627 0.526494 8.88515e-19)
(2.49468 0.520319 -6.30003e-19)
(2.65789 0.512476 2.35782e-19)
(2.85603 0.504001 1.275e-19)
(3.09859 0.495198 -1.02135e-19)
(3.39317 0.485969 -1.233e-20)
(3.74463 0.475963 6.38091e-20)
(4.15463 0.464631 -4.82525e-20)
(4.6212 0.451229 2.741e-20)
(5.13842 0.434846 1.6431e-19)
(5.69601 0.414501 -1.45952e-19)
(6.27903 0.389292 0)
(6.86798 0.358511 1.94426e-19)
(7.43962 0.321613 -3.23187e-20)
(7.96921 0.278446 -4.61498e-19)
(8.43214 0.22667 2.04073e-19)
(8.81806 0.177333 -2.25775e-19)
(9.08323 0.0795306 2.18441e-19)
(-1.29758 3.64523 6.15922e-17)
(1.92664 5.82054 0)
(9.39237 4.42749 0)
(16.1361 3.2468 7.76403e-19)
(21.0281 2.20195 0)
(26.2477 1.4708 0)
(32.3066 0.594361 0)
(39.3269 -0.817111 1.98604e-19)
(47.1148 -2.92753 0)
(54.954 -5.59052 -8.5584e-19)
(61.5262 -8.18052 1.62459e-16)
(65.0152 -9.65564 -3.21393e-16)
(63.4626 -8.80366 1.59449e-16)
(55.5099 -4.78945 0)
(41.2747 2.23741 -7.30185e-19)
(22.8195 10.8339 1.32716e-19)
(3.70106 18.652 0)
(-12.3904 23.4003 9.64439e-17)
(-23.0933 23.8282 -1.88027e-16)
(-28.0557 20.0956 6.96125e-18)
(-28.5574 13.4651 8.3198e-17)
(-26.5493 5.64691 9.50168e-19)
(-23.7717 -1.8116 0)
(-21.307 -7.87842 -6.43426e-17)
(-19.5573 -12.1091 6.64977e-17)
(-18.4526 -14.543 -5.60802e-17)
(-17.7097 -15.4773 5.73376e-17)
(-17.0484 -15.2973 4.70699e-17)
(-16.2791 -14.3667 -4.71342e-17)
(-15.3023 -12.9545 0)
(-14.1067 -11.2606 -3.27639e-17)
(-12.736 -9.4409 3.3081e-17)
(-11.253 -7.62181 4.6242e-19)
(-9.72307 -5.9107 -2.11409e-17)
(-8.20837 -4.3929 2.1705e-17)
(-6.77297 -3.14579 1.34338e-19)
(-5.48124 -2.2289 -3.81474e-19)
(-4.38027 -1.66978 -1.17081e-17)
(-3.47817 -1.45819 1.17727e-17)
(-2.73379 -1.5467 8.34665e-18)
(-2.07794 -1.86854 -9.46119e-19)
(-1.44431 -2.336 -7.84671e-18)
(-0.809259 -2.8597 0)
(-0.19864 -3.35598 3.26182e-19)
(0.340188 -3.76097 -3.74516e-18)
(0.771307 -4.03973 8.18206e-18)
(1.08219 -4.18118 -6.98386e-18)
(1.2783 -4.18923 3.06092e-18)
(1.37465 -4.07763 0)
(1.3915 -3.8676 1.70283e-19)
(1.35235 -3.58535 -2.01085e-18)
(1.28176 -3.25846 2.05075e-18)
(1.20272 -2.91258 8.11569e-20)
(1.13424 -2.56927 -1.38077e-18)
(1.09006 -2.24499 1.11614e-18)
(1.07842 -1.95094 -1.1258e-18)
(1.10288 -1.6933 -1.00207e-18)
(1.16384 -1.47392 2.03085e-18)
(1.26037 -1.29104 -1.47123e-18)
(1.39181 -1.14034 1.51515e-18)
(1.55881 -1.01594 0)
(1.76365 -0.911384 -4.63799e-20)
(2.00982 -0.820411 -7.00279e-19)
(2.30128 -0.737554 6.29243e-19)
(2.64147 -0.65846 1.19908e-19)
(3.03247 -0.580012 0)
(3.47421 -0.500306 2.39735e-19)
(3.96396 -0.418517 -2.03095e-19)
(4.49603 -0.334725 -3.77126e-21)
(5.06159 -0.249711 -6.46294e-21)
(5.6488 -0.164767 -1.15625e-20)
(6.24313 -0.0815044 -5.03953e-21)
(6.82805 -0.0017104 1.64789e-19)
(7.38607 0.0727461 -1.45389e-19)
(7.90023 0.139951 2.42256e-20)
(8.35589 0.197917 0)
(8.74268 0.244798 2.94475e-19)
(9.05533 0.277007 -2.33024e-19)
(9.2991 0.302175 0)
(9.4578 0.270068 2.85982e-19)
(12.0924 -6.76881 -4.47171e-19)
(14.033 -5.44858 -3.15651e-17)
(1.38757 4.27936 2.90348e-17)
(-3.34026 10.9905 -5.85509e-17)
(2.89965 10.6443 2.87849e-17)
(12.7153 9.26373 -3.97021e-19)
(21.397 9.21139 2.58709e-17)
(27.2338 10.9518 -2.6912e-17)
(30.2823 13.8999 2.9722e-19)
(31.116 17.1994 1.12013e-18)
(30.1639 20.2969 -2.00782e-17)
(27.5504 23.0957 -1.67155e-17)
(23.2102 25.8527 3.87447e-17)
(17.0881 29.0084 -2.94445e-17)
(9.3293 32.9943 5.59984e-17)
(0.399734 37.9841 -2.5454e-17)
(-8.97183 43.8035 0)
(-17.9483 49.9109 0)
(-25.7446 55.4454 1.66663e-17)
(-31.7428 59.437 -8.92482e-19)
(-35.486 61.0256 -1.48533e-17)
(-36.6902 59.6426 1.213e-17)
(-35.3814 55.1935 -2.35346e-17)
(-32.0758 48.1879 1.07725e-17)
(-27.7132 39.6719 9.88535e-18)
(-23.2345 30.8744 -1.89604e-20)
(-19.1719 22.7626 -1.12459e-17)
(-15.6253 15.8812 3.94692e-20)
(-12.5232 10.4465 -4.95783e-20)
(-9.81619 6.49864 1.19218e-19)
(-7.5269 3.9572 0)
(-5.71001 2.6357 1.09595e-17)
(-4.39686 2.28481 -2.19433e-17)
(-3.58023 2.63873 1.09922e-17)
(-3.18731 3.42326 0)
(-3.09089 4.37385 -1.02551e-17)
(-3.16263 5.2691 1.02747e-17)
(-3.24912 5.88642 0)
(-3.18883 6.05039 0)
(-2.83269 5.67735 -7.11921e-18)
(-2.12081 4.77085 7.41635e-18)
(-1.13311 3.43826 5.8371e-20)
(-0.0574702 1.88261 0)
(0.907085 0.335723 4.7243e-18)
(1.65282 -1.02692 -7.29667e-19)
(2.17757 -2.11881 -4.87366e-18)
(2.52702 -2.92014 -2.4776e-19)
(2.73979 -3.44404 4.38151e-19)
(2.83522 -3.71802 0)
(2.82721 -3.78127 -3.03571e-18)
(2.73652 -3.68195 5.43793e-18)
(2.59166 -3.47073 -2.70609e-18)
(2.42346 -3.19384 -2.425e-19)
(2.25956 -2.88881 -2.0284e-18)
(2.1215 -2.58318 3.84652e-19)
(2.02432 -2.29507 2.9915e-18)
(1.97754 -2.03476 -1.07972e-18)
(1.98657 -1.80642 0)
(2.05426 -1.60983 0)
(2.18201 -1.44188 1.07765e-19)
(2.37041 -1.29779 9.23215e-20)
(2.61945 -1.17213 0)
(2.92842 -1.05943 8.90928e-19)
(3.29548 -0.954733 -8.83566e-19)
(3.71734 -0.85381 -6.87048e-19)
(4.18879 -0.753372 6.10851e-20)
(4.70252 -0.651122 4.19405e-19)
(5.24902 -0.545762 -2.32445e-19)
(5.81677 -0.436936 2.26964e-19)
(6.39256 -0.325135 -4.3823e-21)
(6.96202 -0.211561 -2.14479e-20)
(7.51036 -0.0979688 1.36524e-20)
(8.02318 0.0135057 1.22243e-19)
(8.48727 0.120502 -1.55586e-19)
(8.89144 0.220562 1.93647e-19)
(9.22712 0.311211 -2.11483e-19)
(9.48867 0.38994 2.75458e-19)
(9.67419 0.453904 -5.65563e-19)
(9.78187 0.503796 -2.976e-20)
(9.83124 0.513789 -2.89007e-20)
(6.68423 -6.18665 -5.76266e-17)
(17.9891 -17.3772 -2.10852e-19)
(30.0262 -25.192 8.36461e-17)
(46.0223 -36.8988 -1.66983e-16)
(66.9025 -48.5726 8.35263e-17)
(84.0296 -58.8398 -7.42121e-17)
(92.9615 -65.322 5.36361e-18)
(93.0237 -67.502 7.0755e-17)
(86.2615 -66.3272 -6.05191e-17)
(75.5381 -63.0881 5.99533e-17)
(63.1183 -58.8126 -4.9489e-17)
(50.3523 -54.0557 4.99179e-17)
(37.8961 -48.9971 -4.00317e-17)
(26.0087 -43.6092 4.06131e-17)
(14.7861 -37.7957 -1.53881e-19)
(4.28742 -31.4937 -1.35744e-19)
(-5.43097 -24.6804 -4.67757e-17)
(-14.3129 -17.3969 4.75995e-17)
(-22.3132 -9.78729 1.53204e-19)
(-29.4109 -2.06343 -5.03132e-19)
(-35.5968 5.48023 -2.2415e-17)
(-40.8061 12.4356 2.19499e-17)
(-44.8316 18.2618 0)
(-47.262 22.3085 2.89738e-19)
(-47.4561 23.8984 0)
(-44.6908 22.524 0)
(-38.6887 18.237 1.80246e-19)
(-30.1447 11.9442 5.27947e-18)
(-20.5296 5.12603 -5.48717e-18)
(-11.3763 -0.854668 -3.2438e-18)
(-3.7933 -5.25759 3.15936e-18)
(1.67307 -7.95939 1.57645e-19)
(4.97428 -9.16898 -1.74771e-19)
(6.3693 -9.19448 0)
(6.26716 -8.35347 -7.64826e-20)
(5.10356 -6.9349 0)
(3.2782 -5.1537 0)
(1.17815 -3.20779 -1.34171e-19)
(-0.872047 -1.30378 0)
(-2.61178 0.358495 0)
(-3.84503 1.6204 4.98906e-18)
(-4.45349 2.38501 -4.64825e-18)
(-4.40936 2.62622 0)
(-3.77619 2.39647 0)
(-2.6959 1.8109 0)
(-1.37201 1.02217 -2.36276e-19)
(-0.0245076 0.182791 2.47256e-19)
(1.16114 -0.580109 3.2335e-18)
(2.07374 -1.18363 -3.44838e-18)
(2.68559 -1.59398 2.86769e-18)
(3.03188 -1.81704 -3.1772e-18)
(3.17858 -1.88272 2.9205e-19)
(3.1961 -1.83088 1.25437e-19)
(3.14527 -1.70188 0)
(3.07319 -1.53131 0)
(3.01425 -1.34758 -1.25114e-18)
(2.9925 -1.17099 -5.41693e-21)
(3.02395 -1.014 1.23295e-18)
(3.11855 -0.882248 -9.46358e-19)
(3.28157 -0.776118 9.24622e-19)
(3.51471 -0.692444 1.30413e-18)
(3.81679 -0.626086 -1.91297e-19)
(4.18403 -0.571187 -2.08534e-18)
(4.61025 -0.522052 9.6723e-19)
(5.08693 -0.473725 4.01461e-20)
(5.60332 -0.422311 6.82724e-20)
(6.1467 -0.365123 3.6331e-19)
(6.70281 -0.300696 -5.98692e-19)
(7.25637 -0.228696 2.37871e-19)
(7.79175 -0.149755 1.08357e-20)
(8.29367 -0.065251 -3.76081e-20)
(8.74785 0.0229429 5.08232e-20)
(9.14168 0.112688 0)
(9.46476 0.201755 2.19216e-20)
(9.70941 0.287903 0)
(9.87129 0.368856 -2.95248e-19)
(9.95002 0.442098 -3.88813e-20)
(9.95046 0.50516 3.15321e-19)
(9.88009 0.554136 -2.75668e-19)
(9.77507 0.586594 -1.32016e-19)
(3.85359 -0.889216 -4.22918e-18)
(23.5838 -9.00227 6.36027e-18)
(52.6147 -20.2233 2.05343e-20)
(74.1316 -25.9879 -8.81473e-19)
(78.5736 -23.207 9.02785e-19)
(69.0456 -14.9142 -8.9591e-18)
(52.6068 -5.56368 2.26674e-17)
(36.0134 1.02396 -1.24237e-17)
(22.8547 3.41548 1.90567e-17)
(13.5795 2.39354 -1.8217e-17)
(7.12824 -0.596856 0)
(2.36632 -4.44541 6.80704e-19)
(-1.43379 -8.47273 -1.31805e-19)
(-4.68621 -12.2639 0)
(-7.62922 -15.5104 0)
(-10.4613 -17.9601 0)
(-13.3527 -19.3999 0)
(-16.474 -19.6844 7.84099e-20)
(-19.991 -18.7283 0)
(-24.0373 -16.4982 1.71912e-17)
(-28.6852 -13.0542 -1.64928e-17)
(-33.9096 -8.5873 -2.82012e-17)
(-39.5149 -3.39554 2.90099e-17)
(-44.9902 2.06732 2.30919e-17)
(-49.3097 7.05159 -2.36799e-17)
(-50.9723 10.5166 1.75581e-17)
(-48.5345 11.4188 -1.79797e-17)
(-41.557 9.42297 1.10071e-17)
(-31.2572 5.29183 -3.51609e-18)
(-20.1592 0.468455 -7.52771e-18)
(-10.8436 -3.73716 0)
(-4.70361 -6.63905 2.06559e-19)
(-1.64895 -8.20741 2.06816e-19)
(-0.728179 -8.79489 0)
(-0.903853 -8.79333 7.7059e-20)
(-1.4727 -8.46282 0)
(-2.07797 -7.92653 0)
(-2.5529 -7.2316 4.26812e-18)
(-2.80518 -6.41534 -8.23259e-18)
(-2.78075 -5.53771 4.25307e-18)
(-2.45242 -4.67017 4.00544e-18)
(-1.83203 -3.87777 -4.1488e-18)
(-0.978597 -3.20633 -1.1604e-19)
(0.0110683 -2.67392 0)
(1.01604 -2.28521 3.69469e-18)
(1.93497 -2.02041 -3.2544e-18)
(2.70241 -1.85423 0)
(3.29637 -1.75738 0)
(3.72952 -1.69745 -2.50922e-18)
(4.02894 -1.6428 2.76588e-18)
(4.22079 -1.56636 2.45583e-18)
(4.32533 -1.45042 -2.31016e-18)
(4.35969 -1.28966 -1.86958e-18)
(4.34245 -1.09099 3.27352e-18)
(4.29608 -0.870473 -1.52953e-18)
(4.24615 -0.648353 -2.96956e-19)
(4.21864 -0.443842 0)
(4.23671 -0.271183 9.39754e-20)
(4.31827 -0.137781 -7.10063e-19)
(4.47471 -0.0443744 1.36103e-18)
(4.71072 0.0134246 -6.70454e-19)
(5.02468 0.0430683 0)
(5.40955 0.0531615 -6.08747e-20)
(5.8538 0.0520218 0)
(6.34243 0.0467727 -4.0114e-20)
(6.85812 0.0428881 -1.76916e-20)
(7.38228 0.0440685 -2.20733e-20)
(7.89619 0.052347 -1.43675e-19)
(8.38203 0.0683481 1.41621e-19)
(8.82379 0.0916435 1.1337e-20)
(9.20802 0.121152 1.18926e-19)
(9.5243 0.155525 -1.5804e-19)
(9.76559 0.193462 2.41959e-19)
(9.92834 0.23389 -2.35285e-19)
(10.0126 0.275987 3.75558e-19)
(10.0221 0.319046 -2.71433e-19)
(9.9646 0.362191 -3.92376e-19)
(9.85159 0.404232 3.80371e-19)
(9.69734 0.442514 -9.7164e-20)
(9.53098 0.479662 1.0181e-19)
(3.50865 -0.86035 -2.17078e-18)
(20.4358 -12.9902 6.22979e-20)
(54.1281 -26.9568 -3.38156e-18)
(82.6298 -45.8117 1.2913e-17)
(94.3183 -53.7907 -9.48142e-18)
(83.7161 -50.8795 -5.1079e-20)
(54.4539 -38.713 2.85002e-17)
(19.727 -24.9058 -6.16581e-17)
(-7.78231 -15.3936 -2.72223e-18)
(-24.3993 -10.8666 3.60599e-17)
(-32.7255 -9.79476 -6.61521e-19)
(-36.0241 -10.8518 -3.8715e-17)
(-36.2857 -13.2556 3.94746e-17)
(-34.5075 -16.5816 -3.69504e-17)
(-31.2382 -20.5351 3.76409e-17)
(-26.951 -24.8197 3.30144e-17)
(-22.154 -29.0724 -3.36047e-17)
(-17.419 -32.9024 -7.84774e-20)
(-13.3651 -35.95 0)
(-10.5934 -37.9249 -2.29365e-17)
(-9.52582 -38.6041 2.28936e-17)
(-10.1926 -37.8357 6.91942e-19)
(-12.0995 -35.6073 1.58403e-17)
(-14.3054 -32.1395 -1.66438e-17)
(-15.6821 -27.9251 4.8172e-19)
(-15.2621 -23.6241 0)
(-12.5405 -19.8849 -4.12092e-19)
(-7.81095 -17.0568 -4.23737e-19)
(-2.1624 -15.1166 -1.73688e-17)
(3.05893 -13.8176 1.79007e-17)
(6.92349 -12.8692 1.49091e-17)
(9.20663 -12.0228 -1.50602e-17)
(10.177 -11.1106 1.59101e-19)
(10.2638 -10.0577 -1.08705e-17)
(9.84001 -8.87154 1.99368e-17)
(9.16147 -7.59777 -9.35517e-18)
(8.38364 -6.28249 -6.92808e-18)
(7.59878 -4.96573 7.14946e-18)
(6.86919 -3.68098 -3.0527e-20)
(6.24042 -2.45552 -1.05598e-19)
(5.74707 -1.31612 1.34931e-19)
(5.4048 -0.293595 -3.70406e-18)
(5.20929 0.580094 5.32673e-19)
(5.14396 1.28132 3.29328e-18)
(5.18101 1.79452 -2.82576e-18)
(5.29934 2.12293 2.62442e-18)
(5.47212 2.27881 0)
(5.67137 2.28704 1.9439e-18)
(5.86725 2.18154 -2.0115e-18)
(6.02908 2.00257 1.34956e-18)
(6.129 1.79172 -2.80662e-19)
(6.14745 1.5862 -1.48941e-19)
(6.07817 1.4137 -1.32414e-19)
(5.93108 1.28868 -1.16993e-19)
(5.73184 1.2116 -8.7001e-19)
(5.5181 1.17144 9.97199e-20)
(5.33267 1.1509 0)
(5.21557 1.13224 -5.93479e-19)
(5.19704 1.10204 4.11544e-19)
(5.29351 1.05342 0)
(5.50686 0.985907 -3.19502e-19)
(5.82647 0.903579 2.80853e-19)
(6.23272 0.812767 0)
(6.70068 0.72002 -5.35633e-21)
(7.20332 0.630779 0)
(7.71406 0.548768 -7.29643e-20)
(8.20855 0.475925 1.23329e-19)
(8.66593 0.412698 -5.07814e-21)
(9.06966 0.358507 -1.31321e-21)
(9.40789 0.312288 -1.1336e-20)
(9.6734 0.272989 2.71827e-19)
(9.86318 0.239973 -2.3678e-19)
(9.97779 0.213239 5.30982e-20)
(10.0206 0.193425 5.71593e-20)
(9.99734 0.1816 -1.05833e-19)
(9.91577 0.178872 -4.92862e-20)
(9.7858 0.185899 -5.50898e-19)
(9.61951 0.20235 -3.28575e-20)
(9.43138 0.227022 5.56502e-19)
(9.24107 0.257785 1.40524e-19)
(19.7433 -7.5396 0)
(58.5207 -17.2117 -2.66455e-19)
(80.5572 -30.0504 -3.80358e-19)
(81.06 -28.3227 -6.12961e-17)
(60.1525 -22.4 1.21696e-16)
(28.2359 -10.4412 -1.16836e-16)
(-4.931 2.64876 5.75224e-17)
(-30.1161 13.0987 0)
(-44.4678 19.9899 6.63381e-19)
(-51.124 24.1945 -4.68497e-17)
(-54.1051 26.6854 4.84871e-17)
(-55.6723 27.9853 4.33711e-17)
(-56.568 28.2157 -8.63065e-17)
(-56.7177 27.3379 2.11838e-18)
(-55.7841 25.3891 2.48082e-18)
(-53.4996 22.6576 3.87007e-17)
(-49.936 19.6332 2.25772e-19)
(-45.5648 16.8982 -3.20115e-17)
(-41.2479 14.854 3.2314e-17)
(-37.7415 13.522 4.10436e-19)
(-34.5737 12.3767 1.44768e-19)
(-30.0665 10.7237 -4.27663e-19)
(-23.258 8.4259 -2.21852e-17)
(-14.9343 5.93461 2.93701e-18)
(-6.61858 3.89626 2.00044e-17)
(0.569806 2.70734 1.45101e-19)
(6.18255 2.34318 -1.42052e-17)
(10.1853 2.51637 2.76136e-17)
(12.7153 2.89607 -2.3741e-17)
(13.9843 3.25828 1.07693e-17)
(14.2561 3.50028 0)
(13.8434 3.59723 -1.21475e-17)
(13.0465 3.5577 2.12083e-17)
(12.109 3.40449 -9.30119e-18)
(11.1931 3.16811 5.85904e-18)
(10.3848 2.88753 -5.85881e-18)
(9.71036 2.60454 -1.80115e-19)
(9.15921 2.35736 0)
(8.70345 2.17457 -1.71317e-19)
(8.31176 2.06633 -1.41227e-18)
(7.95534 2.02959 1.47711e-18)
(7.6118 2.05686 4.19568e-20)
(7.26444 2.13553 -3.892e-20)
(6.90169 2.24829 0)
(6.51965 2.37515 0)
(6.12548 2.49575 2.79131e-19)
(5.73583 2.58984 -1.70984e-19)
(5.37458 2.63868 -6.6473e-20)
(5.0668 2.62854 -1.03896e-19)
(4.83056 2.55398 1.5777e-19)
(4.67037 2.42003 -1.18278e-19)
(4.57597 2.24177 0)
(4.52809 2.04073 4.40486e-20)
(4.50858 1.83938 -6.66652e-20)
(4.50982 1.65578 0)
(4.53862 1.50028 6.76852e-20)
(4.61327 1.37514 -4.34381e-20)
(4.75581 1.27644 1.92565e-20)
(4.98348 1.19721 -4.55304e-20)
(5.30292 1.1302 0)
(5.70824 1.06957 -5.62728e-21)
(6.18277 1.01143 1.44352e-20)
(6.70262 0.953595 6.67608e-20)
(7.24071 0.894959 2.72914e-20)
(7.7703 0.834968 -8.57202e-20)
(8.26757 0.773254 0)
(8.71337 0.709511 -7.37523e-21)
(9.09411 0.643545 0)
(9.40196 0.575448 0)
(9.63439 0.505816 4.3181e-19)
(9.79319 0.435918 -4.21026e-19)
(9.88312 0.36776 -4.26646e-19)
(9.91067 0.303986 -9.39522e-20)
(9.8832 0.247611 4.55152e-19)
(9.80853 0.201632 6.30088e-19)
(9.6952 0.168567 -5.52959e-19)
(9.55278 0.15003 6.57264e-20)
(9.39212 0.14644 6.07084e-19)
(9.22515 0.157224 -1.353e-18)
(9.06311 0.174218 4.55414e-19)
(29.8287 -11.1008 4.50536e-17)
(58.1433 -18.9197 -3.34265e-17)
(54.4319 -19.1094 -2.88573e-17)
(47.8553 -14.8507 2.9517e-17)
(46.1645 -13.9275 3.36175e-19)
(44.5721 -10.737 3.14885e-19)
(41.2577 -5.05944 0)
(35.9165 3.0446 1.79001e-17)
(28.2979 12.965 -1.79795e-17)
(18.2701 23.4563 0)
(5.93476 33.2132 -9.99519e-18)
(-8.22056 41.2951 1.65779e-17)
(-22.6131 47.1082 -3.49648e-18)
(-34.2978 50.2571 -1.57438e-18)
(-39.997 50.5349 -8.22782e-19)
(-37.7582 47.8896 2.52496e-19)
(-28.0331 42.6437 -4.82836e-19)
(-14.2964 36.0848 0)
(-2.20577 30.3237 -7.78165e-18)
(3.90069 27.1267 8.11416e-18)
(4.27212 26.3234 -3.59102e-19)
(2.79312 26.0311 -8.96935e-18)
(2.76056 24.7326 8.63831e-18)
(4.55237 22.3596 -9.01113e-18)
(6.9215 19.5005 9.1173e-18)
(8.79038 16.6309 -1.46946e-19)
(9.80249 13.9974 -7.41689e-18)
(10.0578 11.6968 6.81275e-19)
(9.77444 9.75468 1.30811e-17)
(9.15115 8.15897 -2.62213e-19)
(8.34049 6.87259 -5.59528e-18)
(7.46035 5.83973 -4.82651e-18)
(6.60869 4.99738 5.10604e-18)
(5.86631 4.29098 0)
(5.2867 3.67796 -1.65208e-20)
(4.8857 3.12582 -2.9365e-20)
(4.64615 2.62133 0)
(4.52925 2.16534 -5.47414e-18)
(4.48463 1.75605 5.54593e-18)
(4.46857 1.40132 4.58693e-20)
(4.45324 1.11571 0)
(4.42323 0.900915 -4.21557e-20)
(4.37484 0.751122 -3.06253e-18)
(4.3133 0.657926 2.97705e-18)
(4.24837 0.611901 0)
(4.19114 0.603658 1.81708e-18)
(4.15111 0.623991 -2.00237e-18)
(4.13395 0.664008 0)
(4.13983 0.715643 0)
(4.16333 0.772207 3.44302e-20)
(4.1958 0.829031 3.01522e-20)
(4.2302 0.883623 0)
(4.26663 0.935197 -7.4846e-19)
(4.31552 0.983899 7.64771e-19)
(4.39636 1.03008 6.15199e-19)
(4.53217 1.07387 -1.02505e-19)
(4.74246 1.11492 -1.05092e-18)
(5.03754 1.15238 9.56471e-19)
(5.41606 1.18486 -3.16604e-21)
(5.86578 1.21058 -3.48901e-19)
(6.36629 1.22756 2.48227e-20)
(6.89272 1.23391 0)
(7.41923 1.228 0)
(7.92187 1.20868 -3.29551e-19)
(8.38069 1.17535 3.75384e-19)
(8.78101 1.12805 0)
(9.11398 1.06746 -5.00567e-20)
(9.37648 0.994965 0)
(9.5703 0.912673 -3.33346e-19)
(9.7008 0.823393 3.25319e-19)
(9.77528 0.73056 -9.78846e-20)
(9.80138 0.638044 -7.69807e-19)
(9.78609 0.54987 6.78647e-19)
(9.73545 0.469875 -9.76744e-20)
(9.65494 0.40136 0)
(9.55016 0.346786 0)
(9.42743 0.307566 0)
(9.29394 0.28404 8.16869e-19)
(9.1572 0.27463 1.0242e-19)
(9.02434 0.271847 -1.41822e-18)
(12.4625 -7.34476 -7.7267e-17)
(27.5428 -18.4653 -1.12785e-16)
(30.6452 -23.2502 1.15205e-16)
(30.5236 -29.529 -1.1076e-16)
(34.6258 -34.9772 1.13742e-16)
(37.1956 -41.223 5.53787e-19)
(34.964 -47.1896 5.44498e-19)
(26.1933 -51.3307 0)
(9.70203 -52.4631 -2.78405e-19)
(-14.7656 -49.8929 0)
(-45.2471 -43.782 4.50801e-19)
(-75.3454 -35.2825 5.44445e-17)
(-95.2911 -26.7596 -5.52409e-17)
(-98.7967 -20.8514 -3.74288e-17)
(-88.3783 -18.3515 3.7609e-17)
(-72.234 -17.6787 -2.7554e-17)
(-57.2844 -16.8293 2.95417e-17)
(-46.2357 -15.0255 0)
(-38.6324 -12.4022 0)
(-32.8152 -9.30998 0)
(-27.6766 -6.16002 1.86839e-17)
(-22.9873 -3.22094 -3.76114e-17)
(-18.6133 -0.635933 5.51478e-19)
(-14.5178 1.55163 3.75666e-17)
(-10.6556 3.22614 -1.94734e-17)
(-6.97764 4.2958 0)
(-3.5869 4.82501 -5.82925e-19)
(-0.627775 4.93315 0)
(1.7198 4.75895 1.46852e-17)
(3.30465 4.43487 -1.44021e-17)
(4.10406 4.04691 8.61174e-20)
(4.27444 3.61891 0)
(4.08668 3.12387 -1.00552e-17)
(3.80864 2.51888 1.88366e-17)
(3.62095 1.793 -8.96324e-18)
(3.60021 0.987503 6.61706e-18)
(3.7397 0.174538 -1.23645e-17)
(3.98801 -0.567266 5.7371e-18)
(4.28237 -1.16761 0)
(4.56254 -1.5915 0)
(4.78452 -1.84348 0)
(4.92598 -1.9454 -2.64808e-18)
(4.98282 -1.92633 7.3323e-18)
(4.96343 -1.81684 -4.55585e-18)
(4.88349 -1.64505 0)
(4.76262 -1.43473 3.03702e-18)
(4.62202 -1.20481 -2.94745e-18)
(4.48276 -0.969655 -2.26011e-18)
(4.36449 -0.739535 3.84681e-19)
(4.28448 -0.52088 2.18267e-19)
(4.25671 -0.316442 1.83836e-19)
(4.2914 -0.125663 1.55567e-18)
(4.39482 0.054434 0)
(4.56949 0.227748 0)
(4.81451 0.397394 9.56388e-19)
(5.12572 0.564491 -1.03619e-18)
(5.49566 0.727754 0)
(5.91348 0.883872 0)
(6.36517 1.02837 -5.32058e-20)
(6.83437 1.15656 -6.85133e-20)
(7.30352 1.26426 0)
(7.75531 1.34829 0)
(8.17416 1.40663 8.21889e-20)
(8.54746 1.4385 7.801e-20)
(8.86651 1.44427 -5.62366e-19)
(9.12705 1.42535 9.92789e-19)
(9.32923 1.38405 4.74421e-20)
(9.47696 1.32355 -9.3902e-19)
(9.57667 1.24768 9.85332e-19)
(9.63573 1.16078 -9.05341e-19)
(9.66096 1.06748 1.54201e-19)
(9.65765 0.972409 4.37801e-19)
(9.62938 0.879862 -8.79943e-19)
(9.57862 0.793537 -3.51679e-20)
(9.50765 0.716299 1.70881e-18)
(9.41947 0.650057 -9.50943e-19)
(9.31817 0.595779 0)
(9.2088 0.553554 -2.06058e-19)
(9.09654 0.521621 0)
(8.98606 0.495935 8.16517e-19)
(-5.5412 1.13565 0)
(8.7274 -1.57502 5.68755e-20)
(36.5496 -11.4727 -5.4264e-20)
(48.3346 -13.4298 3.0441e-17)
(31.9534 -8.5719 -6.52247e-17)
(2.24332 0.200377 3.3659e-17)
(-22.8806 7.27423 -5.54076e-19)
(-34.9233 9.88075 0)
(-35.6489 8.76949 0)
(-29.1641 5.80137 0)
(-18.4147 2.43085 -4.60094e-19)
(-5.89972 -0.3656 -4.4851e-19)
(5.83907 -2.16356 0)
(14.879 -3.13814 1.15237e-20)
(20.7563 -3.83547 6.51388e-19)
(24.2726 -4.77067 -4.48856e-17)
(26.3846 -6.09565 4.45315e-17)
(27.5596 -7.61248 2.20516e-20)
(27.9079 -8.97587 0)
(27.5292 -9.86173 -4.27496e-20)
(26.5533 -9.9832 4.1554e-19)
(24.966 -9.13931 -3.1081e-17)
(22.7395 -7.28217 2.60179e-18)
(20.0149 -4.57012 2.8832e-17)
(17.1782 -1.47342 6.75436e-19)
(14.5413 1.45512 -8.90977e-20)
(12.1538 3.78719 1.94293e-17)
(9.97072 5.36249 -1.87193e-17)
(7.99761 6.19411 -1.65491e-19)
(6.2566 6.3914 -4.15217e-19)
(4.72886 6.12086 -3.65657e-19)
(3.37637 5.584 8.14811e-18)
(2.18912 4.95087 -8.23217e-18)
(1.22101 4.31325 -3.10896e-19)
(0.594838 3.69735 1.9815e-19)
(0.45012 3.0819 -4.70141e-20)
(0.832515 2.44147 3.76998e-20)
(1.63764 1.78263 0)
(2.65029 1.15022 -5.59629e-20)
(3.65361 0.607401 1.74383e-18)
(4.49845 0.195399 -1.80103e-18)