/*--------------------------------*- C++ -*----------------------------------*\
| =========                 |                                                 |
| \\      /  F ield         | OpenFOAM: The Open Source CFD Toolbox           |
|  \\    /   O peration     | Version:  2012                                  |
|   \\  /    A nd           | Website:  www.openfoam.com                      |
|    \\/     M anipulation  |                                                 |
\*---------------------------------------------------------------------------*/
FoamFile
{
    version     2.0;
    format      ascii;
    class       surfaceScalarField;
    location    "0.5";
    object      phi;
}
// * * * * * * * * * * * * * * * * * * * * * * * * * * * * * * * * * * * * * //

dimensions      [0 3 -1 0 0 0 0];
oriented        oriented;


internalField   nonuniform List<scalar> 
84340
(
-0.000431847
0.000480686
-4.88394e-05
-0.00110087
0.000877818
-0.000208799
-0.0015938
0.000919122
-0.000426193
-0.00184762
0.000776145
-0.000522317
-0.00189689
0.000493987
-0.000444721
-0.00173915
6.47005e-05
-0.000222442
-0.0014187
-0.000410581
9.0133e-05
-0.00108428
-0.000753895
0.000419474
-0.000896569
-0.000864262
0.000676551
-0.000889093
-0.000796493
0.000789017
-0.000960302
-0.000653753
0.000724961
-0.00100969
-0.000449245
0.000498629
-0.00100438
-0.000182853
0.000177544
-0.000951139
7.32458e-05
-0.000126483
-0.000858242
0.000227913
-0.000320809
-0.000747455
0.000279465
-0.000390252
-0.000640319
0.000265795
-0.000372931
-0.000553096
0.000220407
-0.000307631
-0.00049223
0.000156047
-0.000216913
-0.000453583
7.445e-05
-0.000113097
-0.000424402
-2.44207e-05
-4.76107e-06
-0.000388325
-0.000136497
0.00010042
-0.000333537
-0.000249967
0.000195179
-0.000259887
-0.000346728
0.000273078
-0.000178933
-0.00041075
0.000329796
-0.000105538
-0.000437779
0.000364385
-4.89928e-05
-0.000435871
0.000379325
-1.19833e-05
-0.000417094
0.000380085
1.57856e-05
-0.000390252
0.000362483
4.04864e-05
-0.000359735
0.000335034
7.23899e-05
-0.000327871
0.000295968
0.00011333
-0.000297568
0.000256628
0.000157713
-0.000262512
0.000218129
0.000204903
-0.000229816
0.000182625
0.000251952
-0.000199733
0.000152684
0.000298259
-0.000177037
0.00013073
0.000344107
-0.000164114
0.000118266
0.000389145
-0.000161526
0.000116487
0.000431194
-0.000167877
0.000125828
0.000462512
-0.000176627
0.00014531
0.000486147
-0.000188963
0.000165328
0.000495979
-0.000198961
0.000189129
0.000490369
-0.000201808
0.000207419
0.00046955
-0.000195396
0.000216216
0.000435925
-0.000181921
0.000215546
0.000394105
-0.000167701
0.000209521
0.000350998
-0.000160869
0.000203976
0.000316032
-0.000168214
0.00020318
0.000299499
-0.000191658
0.000208191
0.0003107
-0.000228719
0.000217518
0.000356431
-0.000275558
0.000229827
0.000438526
-0.000328924
0.000246829
0.000552202
-0.00038681
0.000273133
0.000686539
-0.000447868
0.000313531
0.000827312
-0.000510499
0.000369726
0.000960703
-0.000572434
0.000439043
0.00107618
-0.00063103
0.000515557
0.00116767
-0.00068387
0.000592372
0.00123331
-0.00072923
0.000663598
0.00127418
-0.000766217
0.000725339
0.00129311
-0.000794675
0.000775745
0.00129356
-0.00081502
0.000814568
0.00127904
-0.000828113
0.000842641
0.00125277
-0.00083524
0.000861508
0.00121767
-0.000838119
0.000873217
0.00117637
-0.000838863
0.000880162
0.0011313
-0.000839782
0.000884854
0.00108475
-0.00084301
0.000889564
0.00103887
-0.000850041
0.000895915
0.00099565
-0.000861345
0.000904568
0.000956746
-0.000876231
0.000915134
0.000923417
-0.000893019
0.000926348
0.000896421
-0.000909436
0.000936431
0.000875993
-0.000923103
0.000943531
0.000861839
-0.000931964
0.000946118
0.000853137
-0.000934583
0.000943284
0.000848521
-0.000930312
0.000934929
0.000846109
-0.000919444
0.000921855
0.000843642
-0.000903587
0.000906055
-0.000885962
0.000893041
0.000836563
0.000465069
1.56175e-05
0.00120114
0.000141751
0.0018901
0.000230161
0.00247572
0.000190524
0.00294095
2.87533e-05
0.0032258
-0.000220149
0.00324198
-0.000426759
0.00291546
-0.000427378
0.00223471
-0.000183507
0.00128142
0.000156793
0.00020885
0.00041882
-0.00080509
0.000564695
-0.00162896
0.000641018
-0.00223435
0.000678639
-0.00270037
0.000693931
-0.00309405
0.000673145
-0.00346819
0.000639933
-0.00384793
0.00060015
-0.00423876
0.000546875
-0.00463291
0.000468595
-0.00500184
0.000344519
-0.00528481
0.000146469
-0.00539553
-0.000139247
-0.00526768
-0.000474577
-0.00491015
-0.000768277
-0.00440899
-0.000938939
-0.00387018
-0.000974687
-0.00336581
-0.000921466
-0.00292329
-0.000832772
-0.00254243
-0.000740587
-0.00221381
-0.000656497
-0.00192907
-0.000582302
-0.00167443
-0.000517157
-0.00144402
-0.000460225
-0.00123246
-0.000411288
-0.00103882
-0.000370683
-0.000864457
-0.000338476
-0.000711606
-0.000314377
-0.000581796
-0.000297687
-0.000471383
-0.000287041
-0.000379399
-0.000280947
-0.000300217
-0.000278143
-0.000224634
-0.000277391
-0.000141733
-0.000278296
-4.24036e-05
-0.000281251
7.74062e-05
-0.000287511
0.000215422
-0.000298885
0.000364208
-0.000317
0.000515073
-0.000342522
0.00066133
-0.000374976
0.000798875
-0.000413104
0.000925231
-0.000455279
0.00103819
-0.000499771
0.00113519
-0.000544869
0.00121365
-0.000588952
0.00127178
-0.000630571
0.00130927
-0.000668515
0.00132725
-0.000701853
0.00132797
-0.000729946
0.00131419
-0.000752438
0.00128878
-0.000769263
0.00125443
-0.000780667
0.00121356
-0.000787246
0.00116833
-0.000790013
0.00112063
-0.000790423
0.0010721
-0.000790325
0.00102407
-0.000791757
0.000977646
-0.000796586
0.00093368
-0.000806075
0.000892875
-0.000820538
0.000855853
-0.000839209
0.000823227
-0.000860393
0.000795619
-0.000881828
0.000773649
-0.000901132
0.00075788
-0.000916194
0.000748754
-0.000925457
0.000746537
-0.000928094
0.000751254
-0.00092416
0.000762539
-0.000914872
-0.000903671
0.000780248
7.88286e-05
-6.32112e-05
0.000215723
4.85682e-06
0.000252335
0.000193548
0.000168375
0.000274484
-2.66236e-05
0.000223752
-0.000373614
0.000126841
-0.000832419
3.20459e-05
-0.00121769
-4.21089e-05
-0.00132115
-8.00431e-05
-0.00107067
-9.36855e-05
-0.000540427
-0.000111427
0.00018
-0.000155732
0.00105236
-0.000231347
0.0020387
-0.000307695
0.00310226
-0.000369633
0.00417776
-0.000402356
0.00521812
-0.000400427
0.00618229
-0.000364013
0.00702704
-0.000297877
0.00770737
-0.000211742
0.00817537
-0.000123474
0.00838417
-6.23286e-05
0.0083017
-5.67834e-05
0.0079315
-0.000104372
0.00732469
-0.000161469
0.00656271
-0.000176962
0.00573507
-0.000147045
0.00490858
-9.49788e-05
0.00411825
-4.24351e-05
0.00338402
-6.36093e-06
0.00272396
3.55793e-06
0.0021551
-1.34419e-05
0.00168825
-5.03067e-05
0.00132534
-9.73148e-05
0.0010601
-0.000146044
0.000880399
-0.000190983
0.000771314
-0.00022939
0.000717402
-0.000260466
0.00070424
-0.000284524
0.000719614
-0.000302414
0.000753877
-0.00031521
0.000799875
-0.000324142
0.000853009
-0.000330525
0.000910515
-0.000335803
0.000970739
-0.000341474
0.00103221
-0.000348987
0.00109292
-0.000359593
0.00115011
-0.000374189
0.00120079
-0.000393204
0.00124239
-0.000416568
0.00127305
-0.000443766
0.00129174
-0.000473972
0.00129817
-0.0005062
0.00129273
-0.000539431
0.00127647
-0.000572691
0.00125096
-0.000605065
0.00121812
-0.000635674
0.00117993
-0.000663661
0.00113822
-0.000688232
0.00109453
-0.000708746
0.00105009
-0.000724827
0.00100589
-0.00073647
0.000962764
-0.000744118
0.000921445
-0.000748694
0.000882586
-0.000751562
0.000846671
-0.00075441
0.000813924
-0.000759011
0.000784253
-0.000766914
0.000757292
-0.000779114
0.000732559
-0.000795805
0.000709665
-0.000816314
0.000688498
-0.000839226
0.000669338
-0.000862668
0.000652853
-0.000884647
0.000640013
-0.000903355
0.000631955
-0.000917398
0.000629825
-0.000925965
0.000634651
-0.000928987
0.0006473
-0.000927522
-0.000924842
0.000668471
0.000102037
-0.000165248
0.000345644
-0.00023875
0.0008221
-0.000282908
0.0015515
-0.000454921
0.0024329
-0.000657639
0.0033407
-0.000780962
0.00415428
-0.000781532
0.00478921
-0.000677044
0.00523276
-0.000523594
0.00551447
-0.000375392
0.0056637
-0.000260652
0.00568291
-0.000174943
0.00555703
-0.000105469
0.00528929
-3.99611e-05
0.00489948
2.01779e-05
0.00442753
6.96016e-05
0.00392082
0.000106284
0.00342696
0.00012984
0.00298667
0.000142415
0.00262188
0.00015305
0.00231746
0.000180948
0.00203174
0.000223385
0.00168956
0.000285404
0.00124122
0.000343962
0.000678861
0.000400891
7.9577e-05
0.000422322
-0.000464108
0.000396639
-0.000897082
0.000337995
-0.00120613
0.00026661
-0.0014033
0.000190814
-0.00149779
9.80445e-05
-0.00148612
-2.51089e-05
-0.00138677
-0.000149661
-0.00121619
-0.000267894
-0.000993967
-0.000368264
-0.000740393
-0.000444557
-0.000473667
-0.000496116
-0.000208283
-0.00052585
4.53644e-05
-0.000538172
0.000280582
-0.000537632
0.000493638
-0.000528266
0.000682917
-0.00051342
0.000848189
-0.000495797
0.000989948
-0.000477562
0.00110891
-0.000460438
0.0012057
-0.000445778
0.00128071
-0.0004346
0.00133414
-0.00042762
0.00136622
-0.000425283
0.00137746
-0.000427812
0.00136896
-0.000435266
0.00134259
-0.000447601
0.00130106
-0.00046467
0.0012478
-0.000486165
0.00118661
-0.000511502
0.00112125
-0.000539709
0.001055
-0.000569423
0.000990371
-0.000599031
0.000929061
-0.000626922
0.000872085
-0.00065177
0.000819996
-0.000672739
0.000773118
-0.000689592
0.000731687
-0.000702687
0.000695895
-0.000712901
0.000665827
-0.000721494
0.000641346
-0.000729929
0.000621979
-0.000739644
0.000606886
-0.000751822
0.000594946
-0.000767174
0.000584952
-0.000785811
0.000575869
-0.000807231
0.00056706
-0.000830418
0.000558434
-0.000854042
0.000550466
-0.000876678
0.000544129
-0.000897017
0.000540756
-0.000914025
0.000541868
-0.000927076
0.000548988
-0.000936107
0.00056342
-0.000941953
-0.000947166
0.000585744
-0.000611569
0.000446321
-0.00135194
0.000501618
-0.00180065
0.000165806
-0.00204491
-0.000210657
-0.00215593
-0.000546624
-0.00212083
-0.000816061
-0.00191681
-0.000985556
-0.00154409
-0.00104976
-0.00103857
-0.00102911
-0.000467207
-0.000946754
6.35431e-05
-0.000791402
0.000428669
-0.000540069
0.000547435
-0.000224235
0.000446883
6.05908e-05
0.00023193
0.000235131
1.37429e-05
0.000287789
-0.000143976
0.000264004
-0.000213287
0.000199151
-0.000179034
0.000108162
-4.04312e-05
1.44476e-05
0.000180114
-3.95973e-05
0.000422499
-1.89995e-05
0.000648041
5.98616e-05
0.000836879
0.000155124
0.00100138
0.00023639
0.00113361
0.000290091
0.00121972
0.000310533
0.00125938
0.00029833
0.00127107
0.000254922
0.00127945
0.000182435
0.00129348
8.40154e-05
0.00130012
-3.17475e-05
0.00130254
-0.000152089
0.00129985
-0.000265196
0.00129295
-0.000361367
0.00128465
-0.000436255
0.00127825
-0.000489715
0.00127645
-0.000524055
0.00128072
-0.000542443
0.00129112
-0.000548032
0.00130651
-0.000543654
0.00132488
-0.000531788
0.00134371
-0.000514631
0.00136031
-0.000494155
0.00137201
-0.000472147
0.00137645
-0.000450212
0.00137164
-0.000429788
0.00135618
-0.000412167
0.00132942
-0.000398519
0.00129152
-0.000389916
0.00124357
-0.000387311
0.00118742
-0.000391455
0.0011255
-0.00040275
0.0010604
-0.000421066
0.000994509
-0.000445606
0.000929714
-0.000474913
0.000867343
-0.000507051
0.000808241
-0.00053993
0.000752974
-0.000571655
0.000702007
-0.000600803
0.000655822
-0.000626555
0.000614942
-0.000648712
0.00057987
-0.000667615
0.000550986
-0.000684017
0.00052842
-0.000698928
0.000511945
-0.000713453
0.000500923
-0.000728622
0.000494342
-0.00074524
0.000490942
-0.000763774
0.000489416
-0.000784285
0.000488631
-0.000806446
0.000487827
-0.000829614
0.000486733
-0.000852947
0.000485602
-0.000875547
0.000485164
-0.000896579
0.000486526
-0.000915387
0.000491033
-0.000931584
0.000500109
-0.000945183
0.000515009
-0.000956854
-0.000968423
0.000536266
0.000858322
-0.000412001
0.00217983
-0.00081989
0.00338308
-0.00103745
0.00437581
-0.00120338
0.005195
-0.00136581
0.00588461
-0.00150567
0.00649748
-0.00159843
0.00705796
-0.00161025
0.00753907
-0.00151022
0.00786085
-0.00126853
0.00793467
-0.000865224
0.00770316
-0.000308565
0.00714489
0.000334034
0.00627895
0.000926532
0.00513968
0.0013744
0.00375387
0.00167361
0.00211619
0.00190168
0.000238802
0.00207654
-0.00175912
0.00210608
-0.00357852
0.00183385
-0.00488009
0.00126197
-0.00554043
0.000641341
-0.00568297
0.000202401
-0.00548977
-3.80769e-05
-0.00508973
-0.000163649
-0.00456107
-0.000238567
-0.00396
-0.000290541
-0.00332716
-0.000334504
-0.00269913
-0.000373108
-0.00210696
-0.00040974
-0.00157715
-0.000445794
-0.00112852
-0.000480376
-0.000769054
-0.000511555
-0.000496439
-0.000537812
-0.000299155
-0.000558651
-0.000161104
-0.000574305
-6.56666e-05
-0.000585152
1.50535e-06
-0.000591227
5.13031e-05
-0.000592241
9.10799e-05
-0.000587809
0.000125185
-0.00057776
0.000155758
-0.000562361
0.00018354
-0.000542413
0.000208593
-0.000519208
0.000230807
-0.000494361
0.000250215
-0.00046962
0.00026714
-0.000446714
0.000282199
-0.000427226
0.000296204
-0.000412525
0.000309992
-0.000403705
0.000324205
-0.000401524
0.000339074
-0.000406324
0.000354279
-0.000417956
0.000368963
-0.00043575
0.000381917
-0.000458561
0.000391912
-0.000484907
0.000398049
-0.000513187
0.000400012
-0.000541893
0.000398147
-0.000569789
0.000393366
-0.000596022
0.000386958
-0.000620146
0.000380347
-0.000642101
0.000374878
-0.000662146
0.000371631
-0.000680771
0.000371295
-0.000698593
0.000374103
-0.000716261
0.000379835
-0.000734354
0.000387904
-0.000753309
0.00039749
-0.000773359
0.000407717
-0.000794512
0.000417827
-0.000816557
0.000427322
-0.000839109
0.000436051
-0.000861675
0.000444235
-0.000883731
0.000452447
-0.000904792
0.000461544
-0.000924484
0.000472566
-0.000942607
0.00048661
-0.000959227
0.000504611
-0.000974854
-0.000990719
0.000526907
-7.75709e-05
-0.000334431
-0.000198497
-0.000698964
-0.000294998
-0.000940947
-0.000270849
-0.00122753
-4.39552e-05
-0.00159271
0.000406347
-0.00195597
0.0010058
-0.00219788
0.00157689
-0.00218134
0.00189522
-0.00182855
0.00182892
-0.00120223
0.00142738
-0.000463682
0.000865796
0.000253014
0.00034012
0.00085971
-7.26253e-05
0.00133928
-0.00038533
0.0016871
-0.000634349
0.00192263
-0.00082547
0.0020928
-0.000975486
0.00222656
-0.00111808
0.00224868
-0.00128468
0.00200045
-0.00147184
0.00144913
-0.00163254
0.000802036
-0.00172549
0.00029535
-0.00174214
-2.1418e-05
-0.0016883
-0.000217489
-0.00157708
-0.00034979
-0.0014252
-0.000442421
-0.00125508
-0.00050462
-0.00108564
-0.000542549
-0.000932371
-0.000563012
-0.000804885
-0.00057328
-0.000705782
-0.000579479
-0.000631789
-0.000585548
-0.000576512
-0.000593088
-0.000533236
-0.000601928
-0.000496658
-0.000610883
-0.000463392
-0.000618418
-0.000431556
-0.000623063
-0.000400238
-0.000623559
-0.000369122
-0.000618925
-0.00033828
-0.000608601
-0.000308
-0.000592641
-0.000278576
-0.000571837
-0.000250108
-0.000547676
-0.00022235
-0.000522118
-0.000194689
-0.000497281
-0.000166256
-0.000475147
-0.00013614
-0.000457341
-0.000103642
-0.000445022
-6.85035e-05
-0.000438843
-3.10565e-05
-0.000438971
7.76016e-06
-0.00044514
4.65341e-05
-0.00045673
8.36425e-05
-0.000472859
0.000117575
-0.000492494
0.000147226
-0.000514558
0.000172067
-0.000538028
0.000192183
-0.000562009
0.00020818
-0.000585787
0.000221019
-0.000608861
0.000231832
-0.000630959
0.000241751
-0.00065202
0.000251773
-0.000672167
0.000262662
-0.000691659
0.000274898
-0.000710829
0.00028866
-0.000730023
0.000303851
-0.000749545
0.000320155
-0.000769613
0.000337122
-0.000790326
0.000354266
-0.000811656
0.000371167
-0.000833458
0.000387553
-0.000855495
0.000403354
-0.000877476
0.000418728
-0.000899104
0.000434053
-0.000920116
0.000449891
-0.000940322
0.000466928
-0.000959644
0.000485882
-0.000978182
0.000507343
-0.000996316
-0.00101491
0.000531531
-0.00045241
0.00011798
-0.00106316
-8.82143e-05
-0.00158588
-0.000418227
-0.00219737
-0.000616038
-0.00307298
-0.000717105
-0.00422133
-0.000807615
-0.00555098
-0.000868232
-0.00693695
-0.000795364
-0.00825458
-0.000510917
-0.00940238
-5.44388e-05
-0.0102983
0.000432209
-0.0108705
0.000825228
-0.0110887
0.00107793
-0.0109366
0.00118717
-0.0104211
0.00117163
-0.00955843
0.00105994
-0.00835235
0.000886718
-0.00680868
0.000682885
-0.00503457
0.000474574
-0.00330675
0.000272632
-0.00194426
8.66347e-05
-0.00108925
-5.29768e-05
-0.000637773
-0.000156126
-0.00042159
-0.0002376
-0.000329196
-0.000309883
-0.000301288
-0.000377698
-0.0003039
-0.000439809
-0.000315261
-0.000493259
-0.000321699
-0.000536111
-0.000315562
-0.000569149
-0.000294084
-0.000594759
-0.000257841
-0.000615722
-0.000210106
-0.000633282
-0.000156768
-0.000646426
-0.000105658
-0.000653038
-6.48633e-05
-0.000651677
-4.06572e-05
-0.000642624
-3.59061e-05
-0.000627815
-4.96251e-05
-0.00060984
-7.77597e-05
-0.00059079
-0.000114676
-0.000571685
-0.000154643
-0.000552675
-0.0001928
-0.00053368
-0.000225542
-0.000514935
-0.000250483
-0.000497178
-0.000266271
-0.000481493
-0.000272394
-0.000469024
-0.00026902
-0.000460715
-0.000256875
-0.000457168
-0.000237124
-0.000458595
-0.000211254
-0.000464841
-0.000180936
-0.000475458
-0.000147877
-0.000489789
-0.000113676
-0.00050706
-7.9698e-05
-0.000526472
-4.69871e-05
-0.000547269
-1.62179e-05
-0.000568798
1.23073e-05
-0.000590534
3.8627e-05
-0.000612106
6.30559e-05
-0.000633291
8.60957e-05
-0.000653999
0.000108331
-0.000674255
0.000130326
-0.000694162
0.00015254
-0.000713874
0.000175273
-0.000733561
0.000198637
-0.000753386
0.000222571
-0.00077348
0.000246879
-0.000793921
0.000271282
-0.000814729
0.000295487
-0.000835861
0.000319247
-0.000857218
0.00034241
-0.000878657
0.000364953
-0.000900019
0.000386995
-0.000921146
0.000408786
-0.000941907
0.000430686
-0.000962221
0.000453122
-0.00098208
0.000476534
-0.00100159
0.000501279
-0.00102106
-0.00104118
0.00052755
0.000326771
-0.000208791
0.000655298
-0.000416742
0.000728594
-0.000491522
0.000504312
-0.000391756
-4.23585e-05
-0.000170435
-0.000888129
3.81559e-05
-0.00192683
0.000170466
-0.00295285
0.000230665
-0.00371436
0.000250586
-0.00402947
0.000260673
-0.0038716
0.000274344
-0.00333357
0.000287198
-0.00254452
0.000288877
-0.00162953
0.00027218
-0.000694451
0.000236544
0.000176472
0.00018902
0.000918036
0.000145155
0.00150078
0.000100139
0.00192208
5.3279e-05
0.00216883
2.58785e-05
0.00224409
1.13794e-05
0.002188
3.10841e-06
0.00203989
-8.01501e-06
0.00183363
-3.13411e-05
0.00159754
-7.37927e-05
0.00135609
-0.000136247
0.00113034
-0.000214062
0.000936424
-0.000299342
0.00078313
-0.000382817
0.000670732
-0.000456751
0.0005921
-0.000516127
0.000535223
-0.000558845
0.000486532
-0.000584592
0.000434006
-0.0005939
0.000368947
-0.000587979
0.000286533
-0.000569263
0.000186147
-0.000542238
7.16279e-05
-0.000513295
-4.9375e-05
-0.000488837
-0.000167416
-0.000472749
-0.000273889
-0.000465212
-0.000362963
-0.000463601
-0.000432074
-0.000464569
-0.000481246
-0.000465762
-0.000512026
-0.000466398
-0.00052661
-0.00046691
-0.000527348
-0.000468286
-0.000516536
-0.000471526
-0.000496352
-0.000477353
-0.000468827
-0.00048612
-0.000435824
-0.000497844
-0.000399013
-0.000512269
-0.000359839
-0.000528963
-0.000319502
-0.000547397
-0.00027895
-0.000567024
-0.000238877
-0.000587343
-0.000199735
-0.000607939
-0.000161758
-0.000628511
-0.000124993
-0.00064887
-8.93496e-05
-0.000668934
-5.46493e-05
-0.000688699
-2.06812e-05
-0.000708223
1.27505e-05
-0.000727594
4.57894e-05
-0.000746913
7.8507e-05
-0.000766279
0.000110897
-0.000785777
0.000142886
-0.000805469
0.000174352
-0.000825387
0.000205158
-0.000845534
0.000235177
-0.000865881
0.000264329
-0.00088637
0.000292599
-0.000906928
0.000320051
-0.000927471
0.000346825
-0.00094792
0.000373132
-0.000968215
0.000399233
-0.000988323
0.000425416
-0.00100826
0.00045196
-0.00102814
0.000479099
-0.0010482
-0.00106908
0.000507001
-0.000436581
0.00022779
-0.00138787
0.000534547
-0.00266505
0.000785656
-0.00404352
0.00098672
-0.00531373
0.00109977
-0.00638954
0.00111397
-0.00724577
0.0010267
-0.00788334
0.000868237
-0.00831695
0.000684197
-0.00856236
0.000506075
-0.00863067
0.000342653
-0.00853318
0.000189713
-0.0082836
3.92961e-05
-0.00789551
-0.000115915
-0.00738672
-0.000272246
-0.0067666
-0.000431095
-0.00603913
-0.000582323
-0.00522695
-0.000712039
-0.00436273
-0.00081094
-0.00345691
-0.000879938
-0.00251823
-0.000927308
-0.00156221
-0.000952911
-0.000597122
-0.000973099
0.000360868
-0.000989331
0.00128611
-0.000999032
0.00214664
-0.000996784
0.0029072
-0.000974613
0.00353478
-0.000926926
0.00400344
-0.000851476
0.00429671
-0.000750023
0.00440949
-0.000628908
0.0043487
-0.000498049
0.00413342
-0.000369316
0.00379314
-0.000253618
0.00336461
-0.000159451
0.00288682
-9.14779e-05
0.00239539
-5.08055e-05
0.00191884
-3.67431e-05
0.00147728
-4.72783e-05
0.00108297
-7.84378e-05
0.000741696
-0.00012394
0.000454507
-0.000176412
0.000219314
-0.000229376
3.21678e-05
-0.000278616
-0.000111848
-0.000322381
-0.000218072
-0.000360686
-0.000291937
-0.00039442
-0.000338773
-0.000424691
-0.000363651
-0.000452475
-0.000371257
-0.000478514
-0.000365781
-0.00050332
-0.000350827
-0.000527223
-0.000329364
-0.000550427
-0.000303709
-0.000573052
-0.000275559
-0.000595174
-0.000246056
-0.000616845
-0.000215887
-0.000638108
-0.000185395
-0.000659004
-0.000154697
-0.000679568
-0.000123793
-0.000699837
-9.26446e-05
-0.000719848
-6.12277e-05
-0.00073964
-2.95614e-05
-0.000759261
2.28919e-06
-0.000778764
3.42185e-05
-0.000798208
6.60927e-05
-0.000817651
9.77657e-05
-0.000837141
0.000129095
-0.000856717
0.000159959
-0.000876399
0.000190268
-0.00089619
0.000219974
-0.000916077
0.000249081
-0.000936034
0.00027764
-0.000956028
0.000305747
-0.000976027
0.000333539
-0.000996006
0.000361173
-0.00101596
0.000388818
-0.00103591
0.000416633
-0.00105595
0.00044475
-0.00107632
-0.00109758
0.000473251
0.000383718
-0.000155928
0.000968539
-5.02734e-05
0.00152478
0.000229412
0.00196819
0.000543314
0.00221686
0.0008511
0.00223205
0.00109877
0.00202353
0.00123522
0.00164436
0.00124741
0.00116689
0.00116167
0.000655932
0.00101703
0.000150879
0.000847705
-0.000336996
0.000677588
-0.000816379
0.000518679
-0.00130447
0.000372175
-0.00181277
0.000236057
-0.00235345
0.000109581
-0.00292449
-1.12795e-05
-0.00350597
-0.00013056
-0.00405413
-0.000262778
-0.00451939
-0.00041468
-0.00485134
-0.000595354
-0.00500583
-0.000798429
-0.00497791
-0.00100101
-0.00479066
-0.00117658
-0.00448821
-0.00130148
-0.00412999
-0.001355
-0.00377895
-0.00132566
-0.00348652
-0.00121936
-0.0032772
-0.00106079
-0.00314338
-0.000883846
-0.00305513
-0.000717154
-0.00297707
-0.00057611
-0.00288161
-0.000464777
-0.00275334
-0.000381883
-0.00258801
-0.000324788
-0.00238852
-0.000290964
-0.00216286
-0.000276464
-0.00192319
-0.000276415
-0.00168408
-0.000286391
-0.00145979
-0.000302729
-0.0012611
-0.000322623
-0.00109353
-0.00034398
-0.000957451
-0.00036546
-0.000849568
-0.0003865
-0.000764838
-0.000407111
-0.000697936
-0.000427587
-0.000644097
-0.000448259
-0.000599436
-0.000469352
-0.000560966
-0.000490945
-0.000526475
-0.000513005
-0.000494369
-0.000535426
-0.000463513
-0.000558078
-0.000433113
-0.000580826
-0.000402618
-0.000603547
-0.00037166
-0.000626132
-0.000340013
-0.000648491
-0.000307573
-0.000670548
-0.000274331
-0.000692245
-0.000240354
-0.000713545
-0.00020576
-0.000734431
-0.000170699
-0.000754909
-0.000135336
-0.000775002
-9.98412e-05
-0.000794755
-6.43832e-05
-0.000814222
-2.91245e-05
-0.000833467
5.78227e-06
-0.000852558
4.01989e-05
-0.000871557
7.40074e-05
-0.000890525
0.000107117
-0.000909508
0.000139469
-0.000928543
0.000171043
-0.000947652
0.000201854
-0.000966846
0.000231956
-0.00098613
0.000261431
-0.0010055
0.00029039
-0.00102497
0.00031896
-0.00104453
0.000347276
-0.00106422
0.000375466
-0.00108414
0.000403635
-0.00110449
-0.00112578
0.000431828
-0.00036823
0.000212302
-0.000732102
0.000313599
-0.000742216
0.000239526
-0.000455432
0.000256529
-3.41937e-05
0.000429862
0.000398762
0.000665814
0.000752805
0.000881177
0.000991872
0.00100835
0.00113078
0.00102276
0.00121735
0.000930459
0.00129378
0.00077127
0.00137312
0.000598247
0.00144105
0.000450751
0.00146703
0.000346196
0.00141527
0.000287815
0.00126281
0.000262047
0.00102332
0.000228208
0.000717799
0.00017496
0.000388083
6.69384e-05
9.45215e-05
-0.000121119
-0.000114563
-0.000386269
-0.000210014
-0.000702978
-0.00020369
-0.00100734
-0.000130877
-0.0012494
-4.17666e-05
-0.0013906
9.35129e-06
-0.00140611
-2.10224e-05
-0.00129528
-0.000147974
-0.00109241
-0.000349194
-0.000859573
-0.000578949
-0.000654091
-0.000790462
-0.000505642
-0.000951985
-0.000414586
-0.00105114
-0.000365624
-0.00109117
-0.000341852
-0.00108391
-0.000332047
-0.00104533
-0.000329541
-0.000990673
-0.000331124
-0.000931739
-0.000335348
-0.000876492
-0.000341639
-0.000829388
-0.000349833
-0.000792017
-0.000359994
-0.000763709
-0.000372287
-0.000742315
-0.000386854
-0.000725089
-0.000403726
-0.000709423
-0.000422777
-0.000693272
-0.000443738
-0.000675284
-0.000466248
-0.00065473
-0.000489905
-0.000631354
-0.000514321
-0.000605212
-0.000539147
-0.000576536
-0.000564102
-0.000545645
-0.00058897
-0.000512874
-0.000613596
-0.000478547
-0.000637874
-0.000442956
-0.000661723
-0.000406367
-0.000685081
-0.00036902
-0.000707896
-0.000331136
-0.000730129
-0.000292926
-0.000751756
-0.000254586
-0.000772771
-0.000216302
-0.000793192
-0.000178247
-0.000813058
-0.000140574
-0.000832428
-0.000103419
-0.000851377
-6.68983e-05
-0.000869988
-3.11067e-05
-0.000888349
3.88277e-06
-0.000906547
3.80187e-05
-0.000924661
7.12711e-05
-0.00094276
0.000103631
-0.000960902
0.00013511
-0.000979131
0.000165744
-0.000997481
0.000195589
-0.00101598
0.000224719
-0.00103463
0.000253228
-0.00105347
0.000281218
-0.00107252
0.000308798
-0.0010918
0.00033607
-0.00111141
0.000363114
-0.00113153
-0.00115259
0.000389927
-0.000140598
0.0003529
-0.000489668
0.000662669
-0.000978018
0.000727876
-0.00144998
0.000728488
-0.0017404
0.000720289
-0.0017653
0.000690713
-0.00151699
0.000632862
-0.00104675
0.000538107
-0.000414371
0.000390387
0.000337623
0.000178464
0.00119361
-8.47192e-05
0.00214808
-0.000356226
0.00318008
-0.000581245
0.00424939
-0.000723108
0.00531299
-0.00077579
0.00633193
-0.000756891
0.00726214
-0.000701999
0.0080649
-0.000627802
0.0087073
-0.000575468
0.0091412
-0.000555011
0.00931766
-0.000562731
0.0091968
-0.000582118
0.00877912
-0.000589664
0.00808977
-0.00056004
0.0071733
-0.000474128
0.00609686
-0.000329679
0.00495042
-0.000148838
0.00383316
2.48536e-05
0.00282678
0.000146803
0.0019766
0.000196092
0.00129275
0.000178212
0.000753012
0.000125147
0.000334494
5.28942e-05
1.70122e-05
-2.43712e-05
-0.000225428
-8.96069e-05
-0.000401965
-0.000153004
-0.000523428
-0.000209662
-0.000601682
-0.000257095
-0.000648059
-0.000295262
-0.000672427
-0.000325465
-0.000682749
-0.000349672
-0.00068494
-0.000370096
-0.000682866
-0.000388928
-0.000678648
-0.000407944
-0.000673077
-0.000428348
-0.000666078
-0.000450738
-0.000657142
-0.000475183
-0.000645671
-0.000501377
-0.000631184
-0.000528807
-0.000613422
-0.000556909
-0.000592341
-0.000585182
-0.000568067
-0.000613244
-0.000540829
-0.000640835
-0.000510911
-0.000667791
-0.000478626
-0.000694007
-0.000444303
-0.000719403
-0.000408286
-0.000743913
-0.00037093
-0.000767485
-0.000332595
-0.000790091
-0.000293635
-0.000811731
-0.000254386
-0.00083244
-0.000215158
-0.000852286
-0.000176224
-0.000871363
-0.000137815
-0.000889786
-0.000100123
-0.00090768
-6.32989e-05
-0.000925173
-2.74571e-05
-0.000942389
7.32447e-06
-0.000959443
4.10009e-05
-0.000976437
7.35576e-05
-0.000993458
0.000105008
-0.00101058
0.000135389
-0.00102786
0.000164763
-0.00104535
0.00019321
-0.00106308
0.000220825
-0.00108109
0.000247716
-0.00109941
0.000273989
-0.00111808
0.000299746
-0.00113717
0.00032506
-0.00115684
-0.00117745
0.000349921
0.00071247
-0.00035957
0.00169559
-0.000320447
0.00233173
9.17278e-05
0.00253559
0.000524629
0.00234073
0.000915154
0.00176784
0.0012636
0.000885796
0.00151491
-0.000148044
0.00157195
-0.00109264
0.00133498
-0.00170645
0.000792276
-0.0018891
9.79248e-05
-0.00174061
-0.000504716
-0.0014672
-0.000854656
-0.00122164
-0.000968662
-0.00105245
-0.000944978
-0.00095082
-0.000858525
-0.00090488
-0.000747939
-0.000908861
-0.000623821
-0.000987873
-0.000496455
-0.00117125
-0.000371633
-0.00147186
-0.000262123
-0.00187794
-0.000176033
-0.00235495
-0.000112659
-0.00284837
-6.66206e-05
-0.00329174
-3.07578e-05
-0.00361738
-4.03761e-06
-0.00377472
8.50599e-06
-0.00375394
4.07096e-06
-0.00358326
-2.38779e-05
-0.00331169
-7.54724e-05
-0.00298562
-0.000147864
-0.00264373
-0.000216739
-0.00231299
-0.000277852
-0.00200664
-0.00033072
-0.00172116
-0.000375088
-0.00146348
-0.000410677
-0.00123675
-0.000436392
-0.00104022
-0.000453627
-0.000873564
-0.000461918
-0.000736851
-0.000462178
-0.000629913
-0.00045661
-0.000551731
-0.000448278
-0.000500025
-0.000440634
-0.000471083
-0.000436887
-0.000460007
-0.000439423
-0.000461287
-0.000449458
-0.000469514
-0.000466956
-0.000480003
-0.000490889
-0.000489164
-0.000519646
-0.000494598
-0.000551475
-0.000494958
-0.000584824
-0.000489689
-0.000618513
-0.000478766
-0.000651757
-0.000462477
-0.00068408
-0.000441291
-0.000715194
-0.000415783
-0.000744911
-0.000386601
-0.000773095
-0.000354436
-0.00079965
-0.000319993
-0.000824533
-0.000283966
-0.000847758
-0.000246997
-0.000869409
-0.000209657
-0.000889626
-0.000172426
-0.000908594
-0.00013569
-0.000926523
-9.97401e-05
-0.00094363
-6.47835e-05
-0.000960129
-3.09553e-05
-0.000976217
1.66826e-06
-0.000992066
3.30591e-05
-0.00100783
6.32266e-05
-0.00102363
9.22092e-05
-0.00103956
0.000120067
-0.00105572
0.000146877
-0.00107216
0.000172729
-0.00108893
0.000197723
-0.00110608
0.000221963
-0.00112365
0.000245551
-0.00114166
0.000268578
-0.0011602
0.000291107
-0.00117937
-0.00119946
0.000313112
-0.000563505
0.000203935
-0.00124201
0.000358061
-0.00167186
0.000521576
-0.00191877
0.000771542
-0.00209005
0.00108643
-0.00226001
0.00143356
-0.00245189
0.00170678
-0.00266399
0.00178405
-0.00289476
0.00156576
-0.00315186
0.00104938
-0.00343994
0.00038601
-0.00375464
-0.000190022
-0.00407164
-0.000537652
-0.00435453
-0.00068577
-0.00457096
-0.00072855
-0.00467733
-0.000752154
-0.00465058
-0.000774691
-0.00448499
-0.000789411
-0.00419441
-0.000787032
-0.00379958
-0.000766459
-0.00333481
-0.000726894
-0.00284376
-0.000667089
-0.0023696
-0.00058682
-0.00194632
-0.000489902
-0.00159023
-0.000386846
-0.00130125
-0.00029302