/*--------------------------------*- C++ -*----------------------------------*\
| =========                 |                                                 |
| \\      /  F ield         | OpenFOAM: The Open Source CFD Toolbox           |
|  \\    /   O peration     | Version:  2012                                  |
|   \\  /    A nd           | Website:  www.openfoam.com                      |
|    \\/     M anipulation  |                                                 |
\*---------------------------------------------------------------------------*/
FoamFile
{
    version     2.0;
    format      ascii;
    class       volVectorField;
    location    "0.5";
    object      U;
}
// * * * * * * * * * * * * * * * * * * * * * * * * * * * * * * * * * * * * * //

dimensions      [0 1 -1 0 0 0 0];


internalField   nonuniform List<vector> 
42400
(
(-15.2119 13.3342 7.243e-17)
(-34.3924 25.2831 1.0247e-16)
(-39.7553 30.1961 -1.04743e-16)
(-39.9366 24.6885 0)
(-31.8114 16.3182 0)
(-16.4952 1.8601 1.34116e-20)
(4.84387 -16.8787 0)
(27.652 -35.9345 -1.63741e-20)
(45.3288 -50.4996 0)
(52.8822 -56.7474 -3.2229e-21)
(48.9372 -53.1347 -1.77075e-21)
(35.4542 -40.646 7.47976e-21)
(17.2401 -23.2155 -1.28599e-17)
(0.856648 -7.10206 1.31366e-17)
(-9.01255 2.92865 4.29287e-20)
(-12.2978 6.72835 0)
(-11.6966 6.80938 0)
(-9.51118 5.28498 0)
(-6.84864 3.15315 0)
(-4.13093 0.80677 0)
(-1.51906 -1.54178 0)
(0.903276 -3.70663 7.89236e-20)
(3.05571 -5.50171 -7.56182e-18)
(4.82653 -6.77818 1.34968e-18)
(6.10506 -7.46841 6.54818e-18)
(6.83725 -7.62032 2.75696e-20)
(7.05451 -7.36585 1.22779e-20)
(6.85831 -6.84531 1.86093e-21)
(6.37905 -6.1582 0)
(5.73479 -5.36152 0)
(5.02962 -4.49262 1.76398e-19)
(4.33973 -3.59434 -1.78103e-19)
(3.71984 -2.73196 7.72057e-20)
(3.21042 -1.96348 -3.92456e-19)
(2.84863 -1.33808 3.01698e-19)
(2.66362 -0.895478 0)
(2.67427 -0.651129 0)
(2.87844 -0.601386 0)
(3.23773 -0.72024 0)
(3.67032 -0.951528 -2.39525e-18)
(4.06201 -1.19886 2.40323e-18)
(4.28222 -1.34475 -2.71247e-18)
(4.21817 -1.29637 1.49777e-19)
(3.83461 -1.02384 5.40396e-18)
(3.20658 -0.592257 -2.61829e-18)
(2.50152 -0.146951 2.6292e-18)
(1.91443 0.15526 -5.43796e-18)
(1.5921 0.222174 2.60707e-18)
(1.59134 0.0588412 1.86821e-19)
(1.89127 -0.260808 -2.65411e-18)
(2.43544 -0.645926 5.23666e-18)
(3.16545 -1.02769 2.99928e-19)
(4.03049 -1.37285 -2.84753e-18)
(4.97809 -1.676 3.13188e-19)
(5.9455 -1.94321 0)
(6.8633 -2.18001 0)
(7.66878 -2.3876 0)
(8.31885 -2.56442 -2.67457e-19)
(8.79483 -2.70856 -2.56305e-19)
(9.09896 -2.81916 0)
(9.24705 -2.89676 -3.67932e-18)
(9.26149 -2.94333 3.84348e-18)
(9.16687 -2.96246 3.38807e-18)
(8.98826 -2.95984 -3.32535e-18)
(8.75082 -2.94357 0)
(8.47951 -2.92371 0)
(8.19786 -2.91071 2.85289e-18)
(7.92583 -2.91284 -2.78965e-18)
(7.67723 -2.93355 -3.30295e-19)
(7.45815 -2.97 0)
(7.26689 -3.01334 0)
(7.09578 -3.05087 -2.84598e-19)
(6.93395 -3.06906 -2.7022e-19)
(6.77037 -3.05641 0)
(6.59601 -3.00553 -2.429e-19)
(6.40523 -2.91422 -1.79621e-18)
(6.19623 -2.78552 1.74258e-18)
(5.97078 -2.62807 4.11566e-19)
(5.7323 -2.46004 1.50976e-18)
(5.49445 -2.30984 1.40864e-18)
(-9.3977 11.0737 0)
(-16.4384 21.1305 -9.85651e-17)
(-10.4448 19.9056 1.01036e-16)
(2.96654 12.5031 0)
(19.8836 0.848081 0)
(39.2322 -13.3485 -7.73532e-17)
(52.9909 -23.7011 7.91736e-17)
(51.5372 -22.8854 1.64243e-20)
(34.159 -11.3847 0)
(12.4781 1.33977 3.24837e-21)
(-2.20761 6.96002 1.78943e-21)
(-9.66844 5.60402 1.99268e-17)
(-13.7964 2.15511 -1.07577e-18)
(-15.3455 -0.480629 -2.03031e-17)
(-14.8702 -2.84918 -2.13515e-17)
(-13.9019 -5.82291 2.12299e-17)
(-13.0041 -9.14961 0)
(-11.9446 -12.545 -4.15429e-19)
(-10.469 -16.2285 0)
(-8.43422 -20.4178 0)
(-5.76062 -25.1034 0)
(-2.52151 -29.885 1.82479e-17)
(0.920996 -33.9346 -2.61397e-18)
(3.94184 -36.2596 -1.63772e-17)
(5.9681 -36.2564 0)
(6.83174 -34.1465 -1.49603e-19)
(6.79282 -30.7853 -1.23952e-20)
(6.25163 -27.0587 -1.87867e-21)
(5.50293 -23.4928 -1.06877e-18)
(4.69461 -20.2662 1.08045e-18)
(3.88748 -17.3925 -4.0354e-19)
(3.11738 -14.8478 -3.84599e-19)
(2.42694 -12.6002 -4.78435e-18)
(1.85015 -10.6235 5.10747e-18)
(1.41481 -8.91016 5.62638e-18)
(1.13761 -7.45557 -5.85094e-18)
(1.01426 -6.25688 0)
(1.02522 -5.30897 2.37833e-19)
(1.13864 -4.59137 0)
(1.31903 -4.06374 4.01517e-19)
(1.53182 -3.68146 -4.33239e-18)
(1.75345 -3.40218 4.71224e-18)
(1.98133 -3.17982 -2.22455e-19)
(2.23266 -2.97208 2.17047e-19)
(2.5361 -2.75134 6.11645e-20)
(2.92236 -2.51315 2.0565e-19)
(3.41221 -2.2758 -1.99743e-19)
(4.00574 -2.06746 -3.13913e-18)
(4.67904 -1.90949 3.13042e-18)
(5.39431 -1.80932 0)
(6.11465 -1.76254 -1.88993e-19)
(6.81117 -1.75953 -3.35234e-19)
(7.46217 -1.79114 -2.30953e-18)
(8.04907 -1.85077 2.29627e-18)
(8.55419 -1.93334 3.09582e-19)
(8.96198 -2.03316 -4.33707e-18)
(9.2617 -2.14267 4.86038e-18)
(9.44932 -2.25271 2.67297e-19)
(9.52751 -2.35394 2.56204e-19)
(9.50435 -2.43859 -3.92023e-18)
(9.39175 -2.5016 3.85891e-18)
(9.2041 -2.54116 -2.25556e-19)
(8.95758 -2.55871 -2.16973e-19)
(8.66985 -2.55879 0)
(8.35991 -2.54878 2.75987e-18)
(8.04744 -2.53817 -7.45938e-20)
(7.75112 -2.53712 -3.31664e-18)
(7.4861 -2.55405 0)
(7.26129 -2.59317 6.61179e-19)
(7.07779 -2.65268 -3.15581e-19)
(6.92914 -2.72473 -2.38163e-18)
(6.80343 -2.79696 2.60501e-18)
(6.68658 -2.85517 2.42301e-18)
(6.56543 -2.88611 -2.35297e-18)
(6.43009 -2.8796 4.89387e-19)
(6.27496 -2.82973 -1.83953e-18)
(6.09899 -2.73534 1.34013e-18)
(5.90551 -2.60023 -4.11651e-19)
(5.70286 -2.43366 1.96712e-18)
(5.50921 -2.25243 -1.54361e-18)
(0.737941 0.104711 1.47083e-17)
(-5.76284 5.26215 1.46436e-20)
(-15.9722 15.1214 -2.85054e-19)
(-22.625 19.8856 3.08113e-20)
(-22.0493 18.7368 0)
(-17.5586 13.3328 5.43683e-17)
(-12.3545 6.47504 -1.10483e-16)
(-9.41715 1.46225 5.61088e-17)
(-10.0354 0.376591 -5.28555e-17)
(-13.1272 3.27793 2.91635e-18)
(-16.5193 8.56462 5.2183e-17)
(-18.7106 14.3882 2.70204e-19)
(-19.2695 19.8121 2.57512e-19)
(-18.3536 24.8848 -4.32738e-17)
(-16.4527 29.8189 4.4081e-17)
(-14.0215 34.5346 6.5071e-19)
(-11.4228 38.9407 3.2395e-17)
(-9.03908 43.0874 -5.8497e-18)
(-7.07586 46.837 -2.79881e-17)
(-5.25747 49.7524 3.32915e-19)
(-2.65557 50.9238 -3.4212e-19)
(2.23635 48.9241 -3.54854e-19)
(10.3892 42.5402 0)
(20.4691 32.4128 3.85234e-19)
(28.9268 21.6426 2.11168e-17)
(32.7754 13.5942 -4.52796e-17)
(31.8223 9.26932 2.46557e-17)
(27.995 7.41045 -2.57135e-17)
(23.3823 6.37569 2.60584e-17)
(19.1837 5.28655 2.36645e-17)
(15.7793 3.97881 -4.43567e-17)
(13.147 2.58867 2.38927e-18)
(11.1522 1.28668 1.92696e-17)
(9.66338 0.187435 0)
(8.57539 -0.656143 0)
(7.80425 -1.24025 2.82038e-19)
(7.27938 -1.59269 0)
(6.94069 -1.7549 -3.35006e-20)
(6.73654 -1.77069 -8.21982e-18)
(6.62283 -1.67974 1.55792e-17)
(6.56543 -1.51553 -7.7601e-18)
(6.54108 -1.30488 0)
(6.53679 -1.06956 0)
(6.5518 -0.828172 -5.0162e-18)
(6.59453 -0.59833 4.74114e-18)
(6.67794 -0.397916 2.47826e-19)
(6.81351 -0.244724 0)
(7.00567 -0.154274 0)
(7.24896 -0.136536 -3.42336e-18)
(7.52905 -0.193458 3.40554e-18)
(7.82623 -0.319043 1.88669e-19)
(8.11912 -0.501462 0)
(8.38756 -0.725727 3.04079e-18)
(8.61469 -0.975856 -2.68476e-18)
(8.78829 -1.23633 4.60002e-18)
(8.90121 -1.49304 -4.8636e-18)
(8.95092 -1.73386 4.19038e-18)
(8.93846 -1.94916 -8.69019e-18)
(8.86722 -2.13199 8.29891e-18)
(8.74214 -2.27825 -1.21146e-19)
(8.56939 -2.38663 -3.84201e-18)
(8.35656 -2.45853 -3.56679e-18)
(8.11318 -2.49801 3.72146e-18)
(7.85112 -2.51167 0)
(7.58443 -2.50835 -2.7239e-18)
(7.32833 -2.49847 7.16902e-20)
(7.0971 -2.49267 3.64189e-18)
(6.9015 -2.49999 0)
(6.74642 -2.52589 -6.57624e-19)
(6.62979 -2.57084 -2.17718e-18)
(6.54313 -2.63009 2.13224e-18)
(6.47378 -2.6946 0)
(6.40785 -2.75296 0)
(6.33295 -2.79353 2.59379e-19)
(6.2401 -2.80626 -2.46499e-19)
(6.12461 -2.78394 -1.39473e-18)
(5.98624 -2.72293 2.25556e-18)
(5.82945 -2.62355 0)
(5.66392 -2.49186 -4.00506e-19)
(5.50811 -2.3455 -1.55606e-18)
(5.24411 -4.18905 -3.30905e-17)
(4.90055 -1.58682 5.284e-17)
(-2.98621 5.32238 -2.80621e-17)
(-3.49619 10.5954 -3.41253e-17)
(-0.288074 12.8613 3.53561e-17)
(1.6985 16.9673 0)
(1.87093 22.1679 -9.14651e-17)
(1.506 26.7625 9.27361e-17)
(1.79797 29.5647 -1.00632e-16)
(3.61916 30.0786 1.02682e-16)
(7.35015 28.3022 -1.02521e-16)
(12.7647 24.53 2.06182e-16)
(19.0304 19.2923 -2.0125e-16)
(24.8311 13.4651 1.9431e-16)
(28.974 8.08923 -1.84914e-16)
(30.9334 3.83597 9.04578e-17)
(30.8488 0.874262 7.67402e-17)
(29.2771 -0.935404 -1.47296e-16)
(26.7598 -1.79217 7.10949e-17)
(23.6316 -1.78744 -3.33458e-19)
(19.9664 -0.950267 1.37621e-20)
(15.6653 0.640046 4.51464e-17)
(10.6703 2.64809 -4.52166e-17)
(5.26804 4.33395 -3.70189e-19)
(0.336764 4.85385 0)
(-3.00635 3.84703 -3.40221e-19)
(-4.32237 1.7424 0)
(-4.30978 -0.640067 -7.40804e-18)
(-3.97376 -2.69222 2.86644e-18)
(-3.66412 -4.28444 4.34273e-18)
(-3.11564 -5.54166 2.15076e-18)
(-2.07378 -6.54962 -1.82982e-18)
(-0.608342 -7.30042 -2.37558e-19)
(1.02753 -7.74173 7.82779e-20)
(2.60888 -7.83027 2.34083e-18)
(4.00233 -7.57747 -2.45178e-18)
(5.15338 -7.04483 0)
(6.05899 -6.31601 -3.62046e-18)
(6.74338 -5.47411 3.43142e-18)
(7.24229 -4.58966 -3.59384e-19)
(7.59395 -3.71726 2.25131e-19)
(7.8349 -2.89627 0)
(7.99784 -2.15341 0)
(8.11037 -1.50612 0)
(8.19431 -0.96506 2.02511e-19)
(8.26531 -0.535967 -3.69119e-18)
(8.33267 -0.220722 3.43541e-18)
(8.39967 -0.0178129 0)
(8.46447 0.0776358 0)
(8.52169 0.0738461 -2.8627e-18)
(8.56456 -0.0178663 2.68795e-18)
(8.58724 -0.183639 -2.61279e-18)
(8.5865 -0.407811 1.96773e-18)
(8.5624 -0.67369 -2.82774e-19)
(8.51736 -0.964193 2.02656e-18)
(8.45428 -1.26241 -2.56406e-18)
(8.37439 -1.55229 4.2364e-18)
(8.27638 -1.81951 -3.93817e-18)
(8.15707 -2.05266 0)
(8.01326 -2.24411 2.27268e-19)
(7.84382 -2.39055 3.59096e-18)
(7.65112 -2.49284 -2.97804e-19)
(7.44151 -2.55548 -6.88943e-18)
(7.22473 -2.58579 6.21547e-18)
(7.01266 -2.59298 -2.73218e-18)
(6.81746 -2.58712 -2.91349e-18)
(6.6494 -2.57804 2.14887e-18)
(6.51499 -2.57406 3.31878e-19)
(6.41561 -2.58076 2.57421e-18)
(6.34721 -2.60019 -2.50424e-18)
(6.30132 -2.63061 5.91953e-19)
(6.26681 -2.66698 2.53207e-18)
(6.23218 -2.702 -2.19097e-18)
(6.18748 -2.72745 0)
(6.12569 -2.73542 1.96516e-18)
(6.04332 -2.71938 -5.03637e-19)
(5.94063 -2.67475 -4.06252e-18)
(5.8219 -2.59966 1.73621e-18)
(5.69517 -2.49798 -1.63053e-18)
(5.57528 -2.38383 1.60754e-18)
(-9.34794 4.54473 -5.39954e-17)
(-12.9401 1.14552 0)
(-0.15595 -8.75261 0)
(18.0609 -26.2336 -3.57886e-19)
(37.5701 -40.7782 0)
(52.5176 -51.6612 0)
(59.6963 -55.8078 0)
(59.4196 -53.3629 9.12395e-19)
(54.7966 -46.8447 0)
(49.1085 -39.0383 -2.4984e-19)
(43.7398 -31.4605 -2.21564e-17)
(38.0264 -24.3523 3.19596e-17)
(30.7925 -17.671 -1.07296e-17)
(22.1476 -11.7249 0)
(13.6597 -6.9477 3.32893e-19)
(6.79769 -3.51294 -3.9905e-19)
(1.98798 -1.27664 0)
(-0.983811 0.0588192 1.32415e-17)
(-2.4702 0.833559 -2.68169e-17)
(-2.95803 1.46961 2.83089e-19)
(-3.11329 2.49669 1.33117e-17)
(-3.58304 4.25175 -2.84393e-19)
(-4.6819 6.57115 0)
(-6.40338 9.04455 -7.42609e-18)
(-8.41532 11.3193 7.99124e-18)
(-10.1129 13.1125 -3.60161e-18)
(-10.9732 14.173 3.76436e-18)
(-10.8322 14.3524 5.13837e-19)
(-9.71492 13.6523 -5.83533e-19)
(-7.63611 12.1848 0)
(-4.65921 10.1058 2.13439e-18)
(-1.06354 7.61648 -2.15757e-18)
(2.68485 4.99726 -7.09351e-20)
(6.11439 2.56762 3.15601e-18)
(8.8924 0.562253 -3.26087e-18)
(10.8867 -0.916981 1.06095e-20)
(12.1348 -1.87666 8.47349e-20)
(12.7662 -2.38943 3.53442e-18)
(12.9363 -2.55193 -3.55179e-18)
(12.786 -2.45916 -3.31482e-18)
(12.4275 -2.19315 -1.02939e-19)
(11.9436 -1.82069 3.44094e-18)
(11.3928 -1.39478 0)
(10.8156 -0.957099 -1.37481e-19)
(10.2398 -0.540152 2.43387e-18)
(9.68403 -0.168919 -5.54578e-18)
(9.16112 0.137974 5.19323e-18)
(8.67981 0.367401 -2.41637e-18)
(8.2467 0.511085 0)
(7.86777 0.565101 -1.1972e-19)
(7.54925 0.52953 2.27835e-18)
(7.29753 0.408342 -2.22447e-18)
(7.11752 0.209586 5.97846e-20)
(7.00981 -0.0542898 2.12301e-18)
(6.96783 -0.366424 -1.55054e-18)
(6.97665 -0.706411 1.9589e-18)
(7.01476 -1.05231 2.08572e-18)
(7.05832 -1.38335 -3.99974e-18)
(7.08617 -1.68257 3.56752e-18)
(7.08372 -1.93839 -3.74303e-18)
(7.04454 -2.14507 0)
(6.96991 -2.3021 2.10503e-19)
(6.86717 -2.41317 3.12391e-18)
(6.74739 -2.48494 -2.67504e-18)
(6.62311 -2.52592 -7.26222e-19)
(6.50615 -2.54542 0)
(6.40581 -2.55248 -2.6714e-18)
(6.32752 -2.55496 2.29585e-18)
(6.27233 -2.55864 3.18738e-19)
(6.23706 -2.56672 2.96021e-19)
(6.21535 -2.57967 -5.78554e-19)
(6.19914 -2.59551 -6.58035e-21)
(6.18027 -2.61041 2.38752e-18)
(6.1518 -2.61952 -2.06498e-18)
(6.10897 -2.61772 2.43847e-19)
(6.04957 -2.60036 0)
(5.97431 -2.56373 2.24301e-18)
(5.88687 -2.5059 -1.73698e-18)
(5.79329 -2.43021 0)
(5.70506 -2.34642 1.59782e-18)
(6.03055 0.193629 -1.06442e-18)
(27.3055 -6.46175 -9.71378e-17)
(52.1583 -15.8253 9.10818e-17)
(70.58 -20.3557 -1.8017e-16)
(80.6843 -21.8718 8.92922e-17)
(85.9198 -20.8943 6.83805e-19)
(87.58 -18.4825 7.10667e-17)
(86.3915 -14.7107 -7.34686e-17)
(82.2549 -9.19766 -5.64435e-19)
(73.9292 -1.29161 -2.63338e-19)
(59.3247 9.82601 -3.85374e-17)
(37.4408 23.714 -1.83722e-17)
(11.746 37.0547 5.92828e-17)
(-9.77375 45.1314 -2.74987e-17)
(-21.1813 45.8179 4.63216e-17)
(-23.7082 40.2896 -1.89738e-17)
(-22.0365 30.5984 0)
(-18.9279 18.1467 0)
(-15.0364 4.08066 1.91547e-17)
(-11.1154 -9.45046 4.03553e-18)
(-8.63862 -19.305 -2.3262e-17)
(-8.83243 -23.6724 2.61412e-17)
(-10.7552 -23.8571 -5.11323e-17)
(-12.3791 -22.2805 2.46817e-17)
(-12.6024 -20.3421 1.75448e-17)
(-11.4892 -18.4478 -4.2037e-18)
(-9.50547 -16.6129 -1.40258e-17)
(-7.0601 -14.8196 5.45586e-20)
(-4.38796 -13.1135 -3.24945e-20)
(-1.65274 -11.5672 3.17987e-20)
(0.98068 -10.2341 0)
(3.34016 -9.12968 -5.69344e-19)
(5.29224 -8.23886 1.79138e-18)
(6.78343 -7.53822 -1.2352e-18)
(7.8396 -7.00116 0)
(8.53372 -6.59286 1.94685e-18)
(8.94639 -6.27235 -1.96005e-18)
(9.14247 -5.9975 0)
(9.16798 -5.7298 0)
(9.0547 -5.44177 1.57152e-18)
(8.82731 -5.11987 -1.65741e-18)
(8.50893 -4.76327 -1.06272e-19)
(8.12334 -4.38071 0)
(7.69515 -3.98646 -1.29583e-18)
(7.24895 -3.59656 1.46315e-19)
(6.80817 -3.22609 1.54759e-18)
(6.39434 -2.88773 6.39767e-20)
(6.02666 -2.5912 -1.92079e-19)
(5.72173 -2.34345 0)
(5.49304 -2.14899 1.64694e-18)
(5.34975 -2.01009 -3.03894e-18)
(5.29501 -1.9266 1.63268e-18)
(5.32428 -1.89572 2.33788e-19)
(5.42456 -1.91169 1.84868e-18)
(5.57565 -1.96611 -2.0928e-19)
(5.75315 -2.04861 -3.2181e-18)
(5.93276 -2.14801 1.192e-18)
(6.09412 -2.25353 0)
(6.22335 -2.35569 0)
(6.31375 -2.44701 -1.80035e-19)
(6.36511 -2.52229 -1.77469e-19)
(6.38216 -2.57869 0)
(6.37283 -2.61561 -2.66773e-18)
(6.34651 -2.63433 2.62045e-18)
(6.31248 -2.63763 3.05763e-18)
(6.27868 -2.62925 2.97507e-19)
(6.25087 -2.61337 -2.24263e-18)
(6.23212 -2.59397 2.47144e-18)
(6.22275 -2.57433 -2.41397e-18)
(6.22068 -2.55653 -1.14596e-20)
(6.22212 -2.54127 -1.94924e-18)
(6.22244 -2.52786 1.90208e-18)
(6.21702 -2.51441 1.81461e-18)
(6.20204 -2.49822 -2.27019e-18)
(6.17497 -2.47622 1.68306e-18)
(6.1349 -2.4454 -1.87079e-18)
(6.08285 -2.40306 1.78016e-18)
(6.0217 -2.34779 -3.43434e-18)
(5.9555 -2.28259 1.61069e-20)
(5.8923 -2.21363 1.51954e-20)
(15.0887 -9.00578 3.8696e-18)
(25.3315 -16.0124 3.93591e-19)
(22.3806 -14.4141 -6.22973e-18)
(20.3258 -13.7784 1.17897e-17)
(25.9862 -16.2269 -5.94076e-18)
(34.6348 -19.3111 5.78212e-18)
(42.7555 -21.2021 1.25546e-18)
(47.1895 -20.6102 -8.02542e-18)
(45.3773 -16.9776 1.12283e-17)
(36.48 -10.6597 -1.08008e-17)
(21.4391 -2.67939 1.20728e-17)
(1.96736 6.20978 -1.24037e-17)
(-19.9481 15.7567 9.57092e-18)
(-41.9595 25.5426 -9.57612e-18)
(-62.0741 34.9792 1.41212e-19)
(-80.0838 43.8808 1.07776e-19)
(-97.3867 52.7659 1.00004e-17)
(-113.885 61.5789 -1.0215e-17)
(-122.982 66.5398 -1.83534e-19)
(-114.077 60.8227 -1.05217e-19)
(-85.8301 43.0543 9.99968e-19)
(-51.7749 21.6963 -1.21067e-18)
(-25.8171 5.68468 0)
(-10.6603 -3.32963 5.00676e-20)
(-2.41583 -7.86081 0)
(2.46559 -10.1479 0)
(5.71153 -11.2683 6.47256e-21)
(7.98545 -11.7047 1.06696e-18)
(9.60144 -11.7187 -1.09869e-18)
(10.7504 -11.5093 -6.67291e-19)
(11.5548 -11.2156 6.42559e-19)
(12.0854 -10.9131 -5.74801e-21)
(12.3881 -10.6239 1.38802e-20)
(12.503 -10.3423 0)
(12.4688 -10.0534 -7.88356e-20)
(12.3175 -9.74524 0)
(12.0697 -9.40912 0)
(11.7351 -9.03757 -5.80518e-20)
(11.3154 -8.62424 0)
(10.8112 -8.16542 0)
(10.2274 -7.66278 2.44525e-19)
(9.57712 -7.12495 -2.8821e-19)
(8.88328 -6.56699 0)
(8.17598 -6.00776 0)
(7.48871 -5.46663 0)
(6.85391 -4.9605 2.18252e-20)
(6.29926 -4.50201 -6.40738e-20)
(5.84529 -4.09903 -7.46685e-19)
(5.50407 -3.75505 8.12338e-19)
(5.279 -3.47014 -1.028e-18)
(5.16509 -3.24192 1.16382e-18)
(5.15001 -3.06636 -1.50015e-19)
(5.21559 -2.93834 -6.90698e-20)
(5.33999 -2.85183 0)
(5.50018 -2.80005 0)
(5.67447 -2.77558 1.18964e-18)
(5.84455 -2.77059 2.13524e-19)
(5.99678 -2.77734 -1.33946e-18)
(6.12265 -2.78867 1.36113e-18)
(6.21848 -2.79858 -1.32021e-18)
(6.28477 -2.80264 -2.50717e-18)
(6.3251 -2.7981 -1.31827e-20)
(6.34497 -2.78387 5.0645e-18)
(6.35073 -2.76025 -2.56587e-18)
(6.3485 -2.72861 -1.52037e-19)
(6.34348 -2.69098 -3.1932e-19)
(6.33939 -2.64964 -2.41128e-18)
(6.33825 -2.60681 4.70903e-18)
(6.34037 -2.56428 -2.29696e-18)
(6.34461 -2.52321 -2.84665e-19)
(6.34882 -2.484 -2.16089e-18)
(6.35028 -2.44628 2.3633e-18)
(6.34634 -2.40901 0)
(6.33481 -2.37067 2.48661e-19)
(6.31433 -2.32951 0)
(6.28455 -2.28374 -1.82744e-18)
(6.24638 -2.2317 1.16459e-20)
(6.20188 -2.17261 1.70707e-18)
(6.15365 -2.10895 -1.22299e-18)
(6.10715 -2.04469 -3.87098e-19)
(7.16976 -6.08765 4.24501e-17)
(26.3044 -18.866 -6.37543e-17)
(50.6535 -34.9261 -1.15391e-19)
(77.4147 -52.5652 -6.10033e-17)
(103.205 -70.2236 6.23872e-17)
(123.512 -86.7189 -5.57436e-17)
(130.96 -98.0845 1.08266e-16)
(117.607 -99.3189 -5.18765e-17)
(81.4743 -87.9848 3.87509e-17)
(31.1287 -67.5134 -3.91932e-17)
(-19.0633 -45.4438 0)
(-58.4415 -27.722 -7.50076e-20)
(-83.6862 -16.0498 1.59709e-19)
(-95.8429 -9.56404 0)
(-97.1516 -6.86451 0)
(-90.1637 -6.59905 0)
(-77.5557 -7.41632 0)
(-61.6358 -8.07259 -1.16169e-19)
(-44.3585 -7.94218 0)
(-27.7396 -7.14945 8.36734e-18)
(-13.7904 -6.24727 -8.28879e-18)
(-3.55866 -5.78976 -9.61839e-18)
(3.33951 -6.02488 9.84434e-18)
(8.00069 -6.80851 3.88449e-18)
(11.2757 -7.80169 -3.96831e-18)
(13.5154 -8.70862 2.34142e-19)
(14.7983 -9.34928 -2.43564e-19)
(15.2037 -9.63229 -1.9888e-18)
(14.92 -9.55222 -8.01274e-19)
(14.2204 -9.19439 2.90664e-18)
(13.3938 -8.68997 0)
(12.6671 -8.15496 1.20557e-19)
(12.1571 -7.65591 1.10656e-19)
(11.8635 -7.21833 0)
(11.7075 -6.84503 7.8358e-20)
(11.5863 -6.53187 0)
(11.4169 -6.27537 0)
(11.1542 -6.07234 2.80989e-18)
(10.787 -5.91461 -4.89899e-18)
(10.3247 -5.78602 2.17653e-18)
(9.78516 -5.66582 1.12779e-18)
(9.19036 -5.53528 -1.1471e-18)
(8.56605 -5.3832 -1.91579e-21)
(7.94185 -5.20738 0)
(7.34877 -5.01275 -1.30209e-19)
(6.81502 -4.80796 9.25135e-20)
(6.36217 -4.60214 0)
(6.00298 -4.40296 0)
(5.74118 -4.21582 6.74143e-19)
(5.5726 -4.04389 -7.59087e-19)
(5.48707 -3.88858 -1.00981e-18)
(5.47065 -3.75008 9.57327e-19)
(5.50764 -3.62783 1.0994e-18)
(5.58238 -3.52083 -2.10139e-18)
(5.68054 -3.42776 1.06959e-18)
(5.78992 -3.34705 2.86674e-19)
(5.90076 -3.2768 0)
(6.00578 -3.21482 -1.39279e-19)
(6.10006 -3.15869 1.0644e-18)
(6.18086 -3.10589 -2.24004e-18)
(6.24737 -3.0541 1.19237e-18)
(6.30039 -3.0014 0)
(6.34184 -2.94649 1.56329e-19)
(6.37431 -2.88873 0)
(6.40047 -2.82818 1.5208e-19)
(6.42264 -2.76541 1.4042e-19)
(6.44246 -2.70132 2.77134e-19)
(6.46071 -2.63691 2.23745e-18)
(6.47732 -2.57308 -1.9174e-18)
(6.49152 -2.51047 2.6253e-19)
(6.50206 -2.44935 2.08799e-18)
(6.50752 -2.3896 -2.54285e-18)
(6.50658 -2.33072 1.97628e-18)
(6.49829 -2.27196 -1.9218e-18)
(6.48222 -2.21242 2.08944e-18)
(6.45857 -2.15117 -1.58128e-18)
(6.42829 -2.08729 -1.73866e-18)
(6.39301 -2.02047 1.68529e-18)
(6.35463 -1.95273 -4.07176e-19)
(6.31725 -1.88703 3.98263e-19)
(6.96108 -3.04522 2.70893e-17)
(25.7081 -5.88562 3.54888e-17)
(33.3349 -12.2557 -6.77489e-17)
(23.6609 -6.02266 6.02353e-17)
(1.06453 1.24804 -2.8497e-17)
(-18.7434 6.86918 1.42782e-19)
(-30.5213 7.38902 1.725e-17)
(-35.2098 3.59868 -3.1621e-17)
(-35.4685 -1.57945 3.40292e-18)
(-33.593 -5.39859 1.09029e-17)
(-30.8513 -6.86442 -2.04296e-19)
(-27.4303 -6.41172 -1.15985e-18)
(-23.1131 -4.82474 1.1975e-18)
(-17.8652 -2.73327 2.67777e-18)
(-12.0113 -0.551948 -2.73021e-18)
(-6.17075 1.50735 -3.97937e-18)
(-0.972039 3.31333 4.05107e-18)
(3.1966 4.86319 1.19087e-19)
(6.18214 6.11805 0)
(8.06698 6.91019 1.42132e-18)
(9.03629 7.15363 -1.54751e-18)
(9.34748 6.94144 1.86586e-19)
(9.2842 6.37154 1.5118e-18)
(9.15851 5.46748 -1.70208e-18)
(9.25538 4.2381 1.41038e-19)
(9.72651 2.75524 0)
(10.5566 1.1483 -1.35743e-19)
(11.6138 -0.439651 -1.82979e-19)
(12.7309 -1.8707 -5.50906e-18)
(13.76 -3.0502 5.66719e-18)
(14.5869 -3.94633 3.90723e-18)
(15.1381 -4.56865 -4.02311e-18)
(15.3651 -4.95954 -6.76801e-20)
(15.2434 -5.16993 -1.38234e-18)
(14.7815 -5.25305 2.15678e-18)
(14.03 -5.26209 -7.83456e-19)
(13.0785 -5.24951 -8.50011e-20)
(12.0369 -5.25916 4.75984e-20)
(11.0055 -5.3124 -7.76527e-20)
(10.052 -5.40181 4.01398e-20)
(9.20435 -5.49893 1.58099e-20)
(8.46056 -5.57054 4.09807e-19)
(7.80665 -5.59287 3.35213e-20)
(7.23145 -5.55757 -4.42468e-19)
(6.7324 -5.46974 5.29173e-19)
(6.31368 -5.34222 -5.12807e-19)
(5.98125 -5.18997 0)
(5.73848 -5.02643 -6.93707e-19)
(5.58391 -4.86191 6.90077e-19)
(5.51091 -4.7033 -7.07867e-19)
(5.50846 -4.55441 -4.76881e-21)
(5.56259 -4.41654 -5.49844e-20)
(5.65784 -4.28915 -5.30869e-20)
(5.77885 -4.17052 -5.04658e-20)
(5.91158 -4.05839 9.34615e-19)
(6.04434 -3.95042 -7.40225e-20)
(6.16841 -3.84465 0)
(6.27832 -3.73961 1.20614e-18)
(6.37156 -3.63448 -9.1048e-19)
(6.4481 -3.52899 0)
(6.50956 -3.42326 1.2403e-18)
(6.55841 -3.31762 -9.56842e-19)
(6.59734 -3.21251 0)
(6.62875 -3.10841 1.33955e-19)
(6.65453 -3.0058 0)
(6.67597 -2.90516 2.05327e-18)
(6.69379 -2.80699 -4.46101e-18)
(6.70825 -2.7117 2.12067e-18)
(6.71918 -2.61962 -2.67959e-19)
(6.72613 -2.53092 -2.62573e-19)
(6.7285 -2.44557 2.02393e-18)
(6.72568 -2.36331 -1.72086e-18)
(6.71713 -2.28368 2.38526e-19)
(6.70255 -2.20611 2.32693e-19)
(6.68195 -2.12992 -4.57089e-19)
(6.65567 -2.05446 -2.23466e-19)
(6.62451 -1.9791 -1.93087e-18)
(6.58972 -1.90367 3.45952e-21)
(6.55279 -1.82976 1.8089e-18)
(6.51723 -1.75978 3.92788e-19)
(-1.81399 -0.362052 0)
(-5.30438 -3.26063 -1.66602e-19)
(-7.34183 -7.38268 -1.19743e-19)
(-9.85821 -14.4919 -8.84729e-18)
(-12.1539 -20.6165 1.96068e-17)
(-14.2903 -26.064 -2.30995e-17)
(-15.6753 -30.6412 1.24693e-17)
(-16.1946 -34.2775 0)
(-16.185 -36.9629 2.24195e-19)
(-15.9264 -38.641 -1.87295e-17)
(-15.5112 -39.3704 1.92842e-17)
(-14.8656 -39.2693 2.0485e-17)
(-13.8767 -38.4888 -4.16737e-17)
(-12.4847 -37.1457 4.87974e-19)
(-10.7285 -35.3103 9.63482e-19)
(-8.76 -33.004 2.01615e-17)
(-6.78442 -30.1959 7.19503e-20)
(-5.01177 -26.8216 -1.6519e-17)
(-3.62993 -22.9192 1.67523e-17)
(-2.71439 -18.6205 9.76952e-20)
(-2.13911 -14.0628 4.74182e-20)
(-1.59338 -9.44104 -9.78159e-20)
(-0.671078 -4.99895 -9.14372e-18)
(0.962559 -0.903126 1.62556e-18)
(3.42078 2.71539 7.81614e-18)
(6.51401 5.79263 3.34178e-20)
(9.86991 8.32447 -4.6733e-18)
(13.0694 10.3032 8.81306e-18)
(15.7295 11.7509 -6.95886e-18)
(17.5929 12.6811 2.95951e-18)
(18.5617 13.0942 0)
(18.6753 12.9907 -1.06742e-18)
(18.0555 12.3956 7.5716e-19)
(16.8631 11.3981 2.53817e-19)
(15.2519 10.1042 -2.02576e-18)
(13.3862 8.62797 1.91639e-18)
(11.4687 7.06999 3.74143e-20)
(9.72542 5.48878 0)
(8.34582 3.91457 7.24119e-20)
(7.41288 2.37977 2.0948e-18)
(6.88258 0.934733 -2.12124e-18)
(6.6295 -0.362149 -1.06195e-20)
(6.51915 -1.46488 6.01811e-21)
(6.45755 -2.35342 0)
(6.40165 -3.03395 0)
(6.34427 -3.53017 -8.30214e-19)
(6.29411 -3.87296 8.54131e-19)
(6.26183 -4.09338 4.28161e-20)
(6.2539 -4.21913 7.25257e-19)
(6.2715 -4.27355 -1.48509e-18)
(6.31168 -4.27564 6.92813e-19)
(6.36909 -4.24054 0)
(6.43755 -4.17995 -8.55452e-19)
(6.5112 -4.10266 8.05307e-19)
(6.58519 -4.01496 0)
(6.65601 -3.92114 -9.72357e-19)
(6.72138 -3.82386 9.02514e-19)
(6.78007 -3.72454 -9.70129e-19)
(6.83155 -3.62379 8.3999e-19)
(6.8757 -3.52174 0)
(6.9127 -3.41839 -2.54196e-19)
(6.94286 -3.31379 -1.33034e-19)
(6.96669 -3.2082 1.04687e-18)
(6.98476 -3.10208 -1.10688e-19)
(6.99768 -2.99607 -1.02989e-18)
(7.00602 -2.89086 0)
(7.01021 -2.78714 -1.32052e-19)
(7.0105 -2.68552 0)
(7.00695 -2.58643 0)
(6.99948 -2.49014 2.00712e-18)
(6.98792 -2.39674 -1.95679e-18)
(6.97206 -2.30612 -1.69545e-18)
(6.95177 -2.21807 -2.4856e-19)
(6.927 -2.13223 1.60784e-18)
(6.89787 -2.04824 2.02723e-18)
(6.8647 -1.96572 -1.7481e-18)
(6.82808 -1.88431 2.13659e-19)
(6.78898 -1.80398 1.64725e-18)
(6.74861 -1.72622 -3.58799e-18)
(6.7103 -1.65304 1.17491e-18)
(-8.98945 4.32373 3.5617e-17)
(-32.6427 17.8572 -2.63899e-17)
(-59.4029 29.4676 -2.23844e-17)
(-79.0968 41.523 2.29116e-17)
(-89.9206 47.4415 1.09846e-19)
(-90.8265 48.5265 1.00984e-19)
(-82.9995 44.6838 0)
(-69.99 37.595 4.36995e-18)
(-56.0155 29.5299 -4.28468e-18)
(-43.5582 21.8874 0)
(-33.0736 15.0436 4.20607e-18)
(-24.0192 8.86466 -1.04968e-17)
(-15.6882 3.06631 -1.31559e-18)
(-7.52041 -2.64121 1.68577e-17)
(0.771887 -8.46364 -9.01985e-18)
(9.06039 -14.4257 8.19722e-20)
(16.7486 -20.3116 -2.81935e-19)
(23.0731 -25.7384 0)
(27.6821 -30.3807 -8.04469e-18)
(30.8929 -34.1225 8.24333e-18)
(33.3127 -36.9474 -9.81887e-20)
(35.2842 -38.7647 -6.11907e-18)
(36.7773 -39.4721 6.12549e-18)
(37.561 -39.055 -5.06052e-18)
(37.3977 -37.6039 5.11672e-18)
(36.0773 -35.2768 -3.39776e-20)
(33.5011 -32.3624 -2.96408e-18)
(29.7192 -29.2033 9.9695e-19)
(24.9522 -26.0374 3.0827e-18)
(19.5575 -23.0153 -1.10498e-18)
(13.9673 -20.1982 4.31741e-20)
(8.63605 -17.6036 1.91894e-18)
(3.9849 -15.2528 -2.00209e-18)
(0.351889 -13.1694 0)
(-2.09175 -11.3989 6.79385e-20)
(-3.35886 -9.95188 5.91565e-20)
(-3.61867 -8.7913 0)
(-3.12718 -7.86118 4.77613e-18)
(-2.1511 -7.11199 -4.83185e-18)
(-0.928553 -6.51135 -2.24661e-20)
(0.349877 -6.03715 0)
(1.54914 -5.67106 1.06313e-20)
(2.59274 -5.39336 1.577e-18)
(3.45575 -5.18365 -1.55916e-18)
(4.14881 -5.02396 0)
(4.70016 -4.89983 -4.38241e-19)
(5.14158 -4.80016 4.16865e-19)
(5.50067 -4.71637 0)
(5.7983 -4.6418 0)
(6.04918 -4.57127 3.09653e-20)
(6.2633 -4.50089 3.52809e-20)
(6.44747 -4.42787 0)
(6.60641 -4.35034 -5.75993e-19)
(6.74359 -4.2671 6.13389e-19)
(6.86166 -4.17753 7.46425e-19)
(6.96269 -4.08144 1.27254e-20)
(7.04844 -3.97903 -1.62972e-18)
(7.12036 -3.87082 1.71078e-18)
(7.17975 -3.75758 1.61605e-19)
(7.22778 -3.64024 -7.86723e-19)
(7.26551 -3.51984 1.224e-19)
(7.29394 -3.39743 0)
(7.31401 -3.27405 0)
(7.32654 -3.15066 -1.00386e-18)
(7.33232 -3.02814 1.10733e-18)
(7.332 -2.90731 0)
(7.32616 -2.78885 -1.23868e-19)
(7.3153 -2.67333 0)
(7.29979 -2.56117 -9.94286e-19)
(7.27993 -2.45266 9.70207e-19)
(7.25596 -2.34791 -2.4e-19)
(7.22803 -2.2469 -2.14379e-18)
(7.19632 -2.14947 1.85367e-18)
(7.16098 -2.05538 -2.27334e-19)
(7.12226 -1.96434 0)
(7.08047 -1.87604 0)
(7.03613 -1.79012 0)
(6.99007 -1.70654 1.84353e-18)
(6.94335 -1.62664 1.98821e-19)
(6.89914 -1.55173 -3.12211e-18)
(1.58343 -2.28677 -4.03173e-17)
(0.524688 -4.08803 -5.90081e-17)
(-4.07329 -3.12567 6.03061e-17)
(-15.6335 1.13546 -5.81357e-17)
(-33.1102 9.50334 5.95635e-17)
(-52.4033 18.7463 1.40433e-19)
(-68.2833 26.4108 1.25174e-19)
(-77.005 30.9101 0)
(-77.6931 31.9586 -1.81809e-19)
(-71.9728 30.4493 0)
(-62.7411 27.6828 5.0367e-20)
(-52.7761 24.7435 3.52003e-17)
(-43.9107 22.1854 -3.57839e-17)
(-36.9237 20.0847 -2.70239e-17)
(-31.8111 18.2507 2.75033e-17)
(-28.0986 16.3812 -1.85561e-17)
(-24.9874 14.2056 1.9007e-17)
(-21.477 11.5188 0)
(-16.4646 8.10902 0)
(-9.03959 3.91011 0)
(0.984744 -0.766051 -1.94882e-18)
(12.5986 -5.32619 6.73376e-18)
(24.0978 -9.29595 1.60043e-18)
(33.8933 -12.3571 -1.37379e-17)
(40.8062 -14.2698 7.55513e-18)
(43.95 -14.9103 0)
(42.9146 -14.4257 1.03897e-19)
(38.2373 -13.2448 0)
(31.4518 -11.8474 -4.34374e-18)
(24.4325 -10.5961 4.3897e-18)
(18.542 -9.66626 5.70919e-20)
(14.2554 -9.04984 0)
(11.3877 -8.6283 1.59833e-18)
(9.5188 -8.26419 -2.62561e-18)
(8.27821 -7.87071 1.08516e-18)
(7.43584 -7.4329 -4.65373e-19)
(6.85171 -6.97745 7.36068e-19)
(6.44237 -6.53959 -2.69141e-19)
(6.15847 -6.14781 0)
(5.96824 -5.81963 0)
(5.85229 -5.56123 0)
(5.7993 -5.36944 -8.05152e-20)
(5.80203 -5.23419 2.46588e-19)
(5.85393 -5.14147 -1.91399e-19)
(5.94715 -5.07636 0)
(6.07226 -5.02547 2.63896e-19)
(6.21929 -4.97826 -2.68267e-19)
(6.37882 -4.92745 -3.41789e-19)
(6.5428 -4.86862 -2.65388e-20)
(6.70491 -4.79958 -5.05154e-20)
(6.86055 -4.7197 -5.41088e-20)
(7.00661 -4.62934 4.82897e-19)
(7.14114 -4.52939 0)
(7.263 -4.42098 0)
(7.37156 -4.30528 6.56104e-19)
(7.46649 -4.18341 -6.85554e-19)
(7.54766 -4.05641 0)
(7.61509 -3.92527 0)
(7.66898 -3.79094 -5.19451e-20)
(7.70975 -3.65438 -1.12331e-19)
(7.73801 -3.51656 0)
(7.7546 -3.37843 0)
(7.76056 -3.24091 1.18161e-19)
(7.75702 -3.10489 1.20187e-19)
(7.74514 -2.97115 -1.11075e-18)
(7.72608 -2.8404 1.95933e-18)
(7.70089 -2.7132 1.45972e-19)
(7.67049 -2.58999 -1.96056e-18)
(7.63565 -2.47106 2.07251e-18)
(7.597 -2.35658 -1.93372e-18)
(7.55499 -2.24659 3.47707e-19)
(7.51 -2.14105 9.36683e-19)
(7.46233 -2.03979 -1.85901e-18)
(7.41223 -1.9426 -1.2959e-20)
(7.35995 -1.84922 3.54781e-18)
(7.30581 -1.75938 -1.94382e-18)
(7.25025 -1.67274 0)
(7.19394 -1.58925 -4.0978e-19)
(7.13776 -1.51023 0)
(7.08465 -1.43607 1.56137e-18)
(-12.9611 3.66917 0)
(-15.7998 3.02441 1.94666e-19)
(-0.322833 -3.56562 -1.89589e-19)
(11.5335 -10.2719 -1.76849e-17)
(13.3268 -12.7593 3.75413e-17)
(11.3026 -12.798 -2.05047e-17)
(9.77094 -11.6993 -1.25468e-19)
(11.0848 -10.1736 0)
(15.749 -8.65687 0)
(22.9007 -7.13596 0)
(30.9437 -5.30883 -5.0458e-20)
(38.2214 -2.7562 -2.51687e-19)
(43.4404 0.812088 0)
(45.9493 5.3774 1.91499e-19)
(45.8794 10.643 3.49226e-19)
(44.0525 16.1779 2.48865e-17)
(41.7131 21.4928 -2.51958e-17)
(40.1922 26.1074 -2.9177e-19)
(40.5195 29.5535 0)
(42.9658 31.4394 2.35095e-19)
(46.8761 31.6182 -1.34767e-19)
(50.7355 30.3217 1.22297e-17)
(52.8325 28.021 -3.13208e-18)
(51.9144 25.2387 -9.2064e-18)
(47.3744 22.3914 -1.90348e-19)
(39.3531 19.7377 4.66968e-20)
(28.9598 17.2819 6.65697e-19)
(18.2429 14.8013 -8.5087e-19)
(9.43794 12.1783 -4.13482e-21)
(3.72832 9.4578 1.3561e-20)
(0.972911 6.77776 5.88061e-22)
(0.267095 4.25982 2.66637e-18)
(0.674434 2.01701 -2.69436e-18)