/*--------------------------------*- C++ -*----------------------------------*\
| =========                 |                                                 |
| \\      /  F ield         | OpenFOAM: The Open Source CFD Toolbox           |
|  \\    /   O peration     | Version:  2012                                  |
|   \\  /    A nd           | Website:  www.openfoam.com                      |
|    \\/     M anipulation  |                                                 |
\*---------------------------------------------------------------------------*/
FoamFile
{
    version     2.0;
    format      ascii;
    class       surfaceScalarField;
    location    "1.2";
    object      phi;
}
// * * * * * * * * * * * * * * * * * * * * * * * * * * * * * * * * * * * * * //

dimensions      [0 3 -1 0 0 0 0];
oriented        oriented;


internalField   nonuniform List<scalar> 
84340
(
0.000483086
1.82135e-05
-0.000501299
0.001026
0.000294298
-0.000837208
0.00105025
0.000708246
-0.000732502
0.000671251
0.00100248
-0.000623479
0.000319664
0.00108847
-0.000736886
0.00028872
0.000982003
-0.000951059
0.000626503
0.000772862
-0.00111064
0.0012406
0.000530484
-0.00114458
0.00202077
0.000289429
-0.0010696
0.0028784
6.86611e-05
-0.000926288
0.00375904
-0.000113303
-0.000767334
0.00463125
-0.000264652
-0.000607561
0.00546427
-0.00038647
-0.000446548
0.0062232
-0.000481616
-0.000277316
0.00686314
-0.000545173
-9.47683e-05
0.00732484
-0.00056562
0.000103923
0.00752984
-0.000541019
0.000336012
0.00739901
-0.000471048
0.00060188
0.00690428
-0.000328857
0.000823586
0.00611156
-0.000112452
0.000905177
0.00512335
0.000110113
0.000878091
0.00401497
0.000271028
0.000837357
0.00286692
0.000365697
0.000782348
0.00175031
0.000413339
0.00070328
0.000740163
0.000418394
0.000591748
-0.000111487
0.000385663
0.000465987
-0.000792156
0.000334295
0.000346373
-0.00131251
0.000283848
0.000236509
-0.00169045
0.000244667
0.000133268
-0.00193957
0.000219318
2.98067e-05
-0.00206268
0.000203914
-8.08072e-05
-0.0020662
0.000204517
-0.000200993
-0.00196202
0.000221638
-0.000325823
-0.00176456
0.000249941
-0.000447403
-0.00149412
0.000280693
-0.000551133
-0.00117216
0.000304752
-0.000626712
-0.000824162
0.000317154
-0.000665147
-0.000480133
0.000317772
-0.000661801
-0.000170199
0.000310302
-0.000620236
8.20779e-05
0.000299911
-0.000552187
0.000265464
0.000290749
-0.000474134
0.00038197
0.000284583
-0.000401089
0.000444427
0.000280299
-0.000342756
0.000471418
0.000273848
-0.000300839
0.000481014
0.000260569
-0.000270165
0.00048424
0.000239439
-0.000242665
0.000488153
0.000207483
-0.000211396
0.000496162
0.000164671
-0.000172681
0.000509381
0.000112456
-0.000125675
0.000523875
5.43637e-05
-6.88577e-05
0.000542325
-7.23606e-06
-1.12137e-05
0.000569207
-6.76543e-05
4.07721e-05
0.000595654
-0.000127069
0.000100621
0.000619857
-0.000185708
0.000161506
0.00064175
-0.00024385
0.000221957
0.000661943
-0.000301078
0.000280885
0.000680973
-0.000356199
0.000337168
0.000699034
-0.000407779
0.000389718
0.000716106
-0.000454741
0.000437669
0.000732266
-0.000496734
0.000480574
0.000747931
-0.00053417
0.000518505
0.000763903
-0.000568007
0.000552035
0.00078123
-0.000599417
0.000582089
0.000800984
-0.000629467
0.000609713
0.000824056
-0.000658904
0.000635832
0.000851066
-0.000688085
0.000661076
0.000882393
-0.000717034
0.000685708
0.00091828
-0.000745579
0.000709692
0.000958937
-0.000773502
0.000732846
0.00100457
-0.000800668
0.000755036
0.00105531
-0.00082709
0.000776349
0.00111108
-0.000852953
0.00079718
0.00117144
-0.000878581
0.000818221
0.00123547
-0.000904373
0.000840343
0.00130179
-0.000930733
0.000864415
0.00136866
-0.00095799
0.000891124
0.00143412
-0.000986344
0.00092088
0.00149609
-0.00101583
0.000953857
0.00155228
-0.00104628
0.000990096
-0.00107738
0.00102947
0.00160019
0.000141781
-0.000123567
0.000590413
-0.000154334
0.00116476
0.000133897
0.00167657
0.000490671
0.00209654
0.000668502
0.00241212
0.000666422
0.00260744
0.00057754
0.00266442
0.000473513
0.00257461
0.000379234
0.00234521
0.000298063
0.00199978
0.000232123
0.00155894
0.000176189
0.00104738
0.000125097
0.000487623
7.81358e-05
-0.00010112
4.35711e-05
-0.000706891
4.015e-05
-0.0013328
8.48885e-05
-0.00196579
0.000161941
-0.00251309
0.000218449
-0.00284435
0.000218808
-0.00292075
0.000186513
-0.00281706
0.000167341
-0.00262864
0.000177271
-0.00241612
0.00020082
-0.00221385
0.000216121
-0.00204059
0.000212407
-0.00189872
0.000192422
-0.0017789
0.000164034
-0.00166713
0.000132898
-0.0015576
0.000109781
-0.00144987
9.61874e-05
-0.00133509
8.97313e-05
-0.0012026
8.91488e-05
-0.0010449
9.22434e-05
-0.000861272
9.70655e-05
-0.00066479
0.00010827
-0.000459294
0.000111658
-0.00025271
0.000111188
-5.53329e-05
0.000112925
0.000124422
0.000120155
0.000280998
0.000134173
0.000411114
0.000154467
0.000512619
0.000178794
0.000582332
0.000204134
0.000627925
0.000214977
0.000659122
0.000208242
0.000682469
0.000184136
0.000705
0.00014214
0.000741265
7.61921e-05
0.000782997
1.26307e-05
0.000817963
-4.22017e-05
0.000839661
-8.93527e-05
0.000845136
-0.000132544
0.00083717
-0.000177742
0.000823915
-0.000230595
0.000814265
-0.000291427
0.000814561
-0.000356495
0.000827335
-0.000420553
0.000851947
-0.000479353
0.000885916
-0.000530702
0.000926106
-0.000574359
0.000969475
-0.000611376
0.00101342
-0.000643358
0.00105587
-0.000671918
0.00109534
-0.000698376
0.00113092
-0.000723666
0.00116228
-0.000748392
0.00118963
-0.000772935
0.00121369
-0.000797562
0.00123552
-0.000822497
0.00125639
-0.000847959
0.00127759
-0.000874154
0.00130026
-0.000901255
0.00132527
-0.000929381
0.00135311
-0.000958575
0.00138392
-0.000988795
0.00141748
-0.00101991
0.00145336
-0.0010517
0.00149096
-0.00108388
-0.00111593
0.00152951
-0.00020344
7.98723e-05
-0.000446967
8.91933e-05
-0.000430191
0.000117121
-0.000164549
0.000225028
0.000199854
0.000304099
0.000561771
0.000304505
0.000844521
0.000294789
0.00101391
0.000304129
0.00108051
0.000312629
0.00106326
0.00031531
0.000978295
0.000317091
0.00084403
0.000310453
0.000679549
0.000289578
0.000502408
0.000255277
0.000334853
0.000211126
0.000214978
0.000160025
0.000197125
0.000102741
0.000325959
3.31071e-05
0.000585433
-4.10256e-05
0.000922789
-0.000118548
0.00130169
-0.000192392
0.00172533
-0.000256296
0.00221238
-0.000309775
0.00276836
-0.000355167
0.00337852
-0.000394034
0.00401626
-0.00042533
0.00465647
-0.000447793
0.00528161
-0.000461107
0.00587864
-0.000464127
0.00644355
-0.000455127
0.00696911
-0.00042938
0.00745083
-0.000391989
0.0078834
-0.000343417
0.00825215
-0.000276509
0.00854202
-0.000192799
0.00875199
-0.000101705
0.00886831
-4.66292e-06
0.0088826
9.69004e-05
0.00879396
0.000201571
0.00860675
0.000307361
0.00832928
0.000411646
0.00797243
0.000511312
0.00754839
0.000602834
0.00707023
0.000682294
0.00653995
0.000745254
0.00596126
0.000786935
0.00534346
0.000801937
0.00470041
0.000785188
0.00404212
0.000734483
0.00340171
0.000653048
0.0028112
0.000548306
0.00229418
0.000427668
0.00186853
0.000293103
0.00154358
0.000147208
0.00131671
-3.72564e-06
0.00117687
-0.00015159
0.00110596
-0.000285579
0.00108373
-0.000398321
0.0010915
-0.000487128
0.00111431
-0.000553512
0.00114157
-0.000601619
0.00116669
-0.000636495
0.0011862
-0.000662865
0.00119882
-0.000684538
0.00120471
-0.00070427
0.00120492
-0.000723877
0.001201
-0.000744466
0.00119473
-0.00076667
0.001188
-0.000790827
0.0011826
-0.000817095
0.00118013
-0.000845498
0.00118192
-0.000875944
0.00118889
-0.000908225
0.00120154
-0.000942024
0.0012199
-0.000976942
0.00124364
-0.00101253
0.00127209
-0.00104836
0.00130442
-0.00108403
0.0013398
-0.00111927
-0.00115424
0.00137811
-0.00016279
0.000242663
-0.000497394
0.000423797
-0.000741045
0.000360772
-0.000727053
0.000211036
-0.000443158
2.02046e-05
7.57796e-05
-0.000214433
0.000777484
-0.000406915
0.00156617
-0.000484558
0.00232929
-0.000450485
0.00296365
-0.000319056
0.00343374
-0.000152998
0.00374062
3.57215e-06
0.00391479
0.000115408
0.00399291
0.000177155
0.00401498
0.000189062
0.00402718
0.000147819
0.00407988
5.00478e-05
0.00421103
-9.80485e-05
0.00444492
-0.000274916
0.00477528
-0.000448901
0.00517041
-0.000587526
0.00558308
-0.00066897
0.00596502
-0.000691715
0.00628222
-0.000672366
0.00651893
-0.000630737
0.00667287
-0.000579278
0.00674899
-0.000523906
0.00675455
-0.000466667
0.00669754
-0.000407119
0.00658545
-0.00034304
0.00642658
-0.000270505
0.00622296
-0.000188371
0.0059901
-0.000110562
0.00574207
-2.84738e-05
0.00549229
5.69792e-05
0.0052466
0.000143984
0.00501069
0.000231251
0.00479869
0.000308898
0.00461643
0.000383831
0.00446509
0.000458696
0.0043445
0.00053224
0.0042526
0.000603211
0.0041855
0.000669936
0.00413755
0.00073024
0.00410137
0.000781431
0.00406795
0.000820363
0.00402619
0.000843692
0.00396331
0.000848071
0.00386771
0.000830082
0.00373394
0.000786819
0.00356586
0.000716384
0.00337584
0.000617691
0.00317577
0.000493171
0.00297349
0.000349489
0.00276765
0.000202119
0.00257557
4.04859e-05
0.00239084
-0.000100851
0.00221581
-0.00022329
0.00205311
-0.000324426
0.00190492
-0.000405322
0.00177249
-0.000469187
0.00165601
-0.000520017
0.00155484
-0.00056169
0.00146778
-0.000597485
0.00139343
-0.000629918
0.00133036
-0.000660806
0.00127733
-0.000691435
0.00123339
-0.000722729
0.00119792
-0.00075536
0.00117062
-0.000789799
0.00115143
-0.000826303
0.00114039
-0.000864901
0.00113754
-0.000905377
0.00114281
-0.000947299
0.00115594
-0.000990068
0.00117641
-0.00103301
0.00120351
-0.00107546
0.00123638
-0.0011169
0.00127419
-0.00115708
-0.00119648
0.00131644
6.98638e-05
0.000172799
7.75243e-05
0.000416136
-4.17313e-05
0.000480028
-0.000205065
0.000374371
-0.000343274
0.000158413
-0.000445941
-0.000111766
-0.000485649
-0.000367207
-0.000439057
-0.00053115
-0.000343937
-0.000545606
-0.000242302
-0.000420691
-0.000193938
-0.000201362
-0.000210092
1.97259e-05
-0.000317864
0.00022318
-0.000564305
0.000423595
-0.000984754
0.000609511
-0.00157232
0.000735387
-0.00226394
0.000741667
-0.00294338
0.000581396
-0.00347407
0.000255766
-0.00372633
-0.000196633
-0.00365394
-0.000659925
-0.00333494
-0.000987962
-0.00291548
-0.00111118
-0.00251223
-0.00107561
-0.00217904
-0.000963927
-0.00192997
-0.000828348
-0.00175697
-0.000696907
-0.00163546
-0.000588181
-0.00153483
-0.000507752
-0.00143041
-0.000447458
-0.0013056
-0.000395314
-0.00115159
-0.000342385
-0.000977831
-0.000284317
-0.000787102
-0.000219203
-0.000581296
-0.000148827
-0.000361786
-7.55263e-05
-0.000135116
4.5819e-06
7.89191e-05
9.48631e-05
0.000280789
0.000181962
0.000471293
0.000268192
0.000651436
0.000352096
0.000822856
0.00043179
0.000987611
0.000505182
0.00114777
0.00057008
0.00130498
0.000624225
0.00146001
0.000665332
0.00161258
0.000691127
0.00176125
0.000699393
0.00190328
0.000688056
0.00203456
0.000655538
0.00214972
0.000601219
0.00224154
0.000525876
0.00230241
0.000432298
0.00232667
0.000325232
0.00231831
0.000210483
0.00226402
9.477e-05
0.00217905
-1.58758e-05
0.0020744
-0.000118644
0.00196087
-0.000210893
0.00184743
-0.000291881
0.00174025
-0.000362007
0.00164267
-0.000422439
0.00155574
-0.000474759
0.00147894
-0.00052069
0.00141096
-0.000561936
0.00135029
-0.000600136
0.00129572
-0.000636862
0.00124658
-0.000673589
0.00120284
-0.000711628
0.00116506
-0.000752012
0.00113413
-0.000795381
0.00111114
-0.000841906
0.00109703
-0.000891268
0.00109244
-0.000942707
0.00109752
-0.000995152
0.00111191
-0.00104739
0.00113471
-0.00109827
0.0011647
-0.00114688
0.00120041
-0.00119279
-0.00123641
0.00124033
0.000256252
-8.34523e-05
0.000651529
2.08578e-05
0.000985938
0.00014562
0.00123427
0.00012604
0.0013967
-4.02282e-06
0.00145699
-0.000172048
0.00140669
-0.000316911
0.00127642
-0.000400884
0.00113309
-0.000402272
0.00104551
-0.000333109
0.00107291
-0.000228765
0.00121621
-0.00012357
0.00143645
2.93726e-06
0.00168949
0.000170556
0.00192158
0.000377421
0.0020691
0.000587869
0.0020704
0.000740366
0.00188329
0.000768502
0.00151286
0.000626194
0.00100008
0.000316147
0.000430457
-9.02978e-05
-9.52409e-05
-0.000462263
-0.000493144
-0.000713275
-0.000721733
-0.000847023
-0.000793542
-0.000892117
-0.000817832
-0.000804058
-0.000947144
-0.000567595
-0.00123369
-0.00030164
-0.00160546
-0.000135977
-0.0019716
-8.13184e-05
-0.00228422
-8.26905e-05
-0.00252817
-9.84377e-05
-0.00270195
-0.000110534
-0.00280916
-0.000111991
-0.0028574
-0.000100587
-0.00285596
-7.69749e-05
-0.00280801
-4.33609e-05
-0.00270918
-3.96769e-06
-0.00257651
4.92886e-05
-0.00241402
0.000105704
-0.00222423
0.000162301
-0.00201061
0.000218178
-0.00177679
0.000271358
-0.00152634
0.000319627
-0.00126282
0.000360705
-0.00098986
0.000392375
-0.000711305
0.000412572
-0.00043139
0.000419478
-0.000155007
0.000411673
0.000112204
0.000388327
0.000363992
0.000349431
0.000593888
0.00029598
0.000796086
0.000230099
0.00096665
0.000154668
0.00110453
7.26004e-05
0.00120815
-8.84673e-06
0.00128217
-8.98928e-05
0.0013303
-0.000166779
0.00135719
-0.000237783
0.00136739
-0.000302075
0.00136487
-0.00035949
0.00135276
-0.000410328
0.00133322
-0.000455217
0.00130761
-0.000495082
0.00127684
-0.000531171
0.00124176
-0.000565053
0.00120343
-0.000598538
0.00116336
-0.000633519
0.00112347
-0.000671738
0.00108601
-0.00071455
0.00105334
-0.000762711
0.00102769
-0.000816256
0.0010109
-0.000874475
0.0010042
-0.000936004
0.00100807
-0.000999024
0.00102222
-0.00106154
0.00104566
-0.00112171
0.00107687
-0.0011781
0.00111406
-0.00122998
-0.00127785
0.0011555
-0.000396487
0.000313034
-0.000865608
0.000489979
-0.00132908
0.000609089
-0.00195479
0.000751749
-0.00281772
0.000858911
-0.00391683
0.000927059
-0.00519892
0.000965181
-0.00659129
0.000991488
-0.00801375
0.00102019
-0.00939252
0.00104567
-0.0106704
0.00104915
-0.0118113
0.00101731
-0.0127577
0.000949305
-0.0134406
0.000853488
-0.0138025
0.000739292
-0.0138251
0.000610516
-0.0135401
0.000455365
-0.0130497
0.000278102
-0.0124968
7.3228e-05
-0.0120232
-0.00015745
-0.0117093
-0.000404145
-0.0115136
-0.000657981
-0.0113103
-0.000916538
-0.0109779
-0.00117945
-0.0104631
-0.00140695
-0.00978841
-0.00147873
-0.00904085
-0.00131515
-0.00831122
-0.00103128
-0.00765414
-0.000793051
-0.0070618
-0.000673664
-0.00652421
-0.000620281
-0.00605041
-0.000572236
-0.00563599
-0.000524956
-0.00526947
-0.000478511
-0.00493795
-0.000432104
-0.0046316
-0.000383326
-0.00434483
-0.000330128
-0.0040767
-0.000272098
-0.00381745
-0.000209965
-0.00356365
-0.000148098
-0.00331061
-9.07374e-05
-0.00305198
-4.04541e-05
-0.00278827
7.65068e-06
-0.00251849
4.98429e-05
-0.00224192
8.4133e-05
-0.00195872
0.000109173
-0.00167015
0.00012401
-0.00137863
0.000127957
-0.0010875
0.00012054
-0.000801057
0.000101885
-0.000524309
7.26834e-05
-0.000262603
3.42733e-05
-2.02247e-05
-1.22788e-05
0.000198681
-6.42372e-05
0.000390975
-0.000119694
0.000558534
-0.000176406
0.000701227
-0.000232586
0.000821037
-0.000286588
0.000920304
-0.00033705
0.00100115
-0.000382926
0.00106519
-0.000423526
0.00111344
-0.000458581
0.00114656
-0.000488333
0.00116509
-0.000513617
0.00116981
-0.000535885
0.0011619
-0.000557145
0.00114316
-0.000579796
0.00111601
-0.000606372
0.00108347
-0.000639198
0.00104898
-0.000680052
0.00101612
-0.000729855
0.000988344
-0.000788479
0.000968564
-0.000854695
0.000958865
-0.000926304
0.000960289
-0.00100045
0.000972782
-0.00107404
0.000995322
-0.00114424
0.00102617
-0.00120894
0.00106321
-0.00126702
-0.00131888
0.00110424
0.000680568
-0.000367534
0.0016811
-0.00051055
0.00256971
-0.000279527
0.00332199
-5.32673e-07
0.00397149
0.000209413
0.00454592
0.000352634
0.00507154
0.000439557
0.00557411
0.000488921
0.00607227
0.000522025
0.00656106
0.000556874
0.00701026
0.000599948
0.0073847
0.000642874
0.00765989
0.000674118
0.0078326
0.000680771
0.00792085
0.000651041
0.00795496
0.00057641
0.0079516
0.000458728
0.00792704
0.000302655
0.00787516
0.000125106
0.00776224
-4.45282e-05
0.00754057
-0.000182473
0.00716333
-0.000280744
0.00659822
-0.000351423
0.00582902
-0.000410254
0.00488481
-0.000462748
0.00389461
-0.000488522
0.00304423
-0.000464774
0.00242142
-0.000408465
0.00197933
-0.000350953
0.00160262
-0.000296963
0.00121239
-0.000230047
0.00079196
-0.000151805
0.000353551
-8.65469e-05
-7.74019e-05
-4.75578e-05
-0.000478997
-3.05089e-05
-0.000832482
-2.9841e-05
-0.00113077
-3.18413e-05
-0.00137226
-3.06058e-05
-0.0015566
-2.56232e-05
-0.00168636
-1.83401e-05
-0.00176652
-1.0577e-05
-0.00180314
-3.83356e-06
-0.0017963
8.07348e-07
-0.00174877
2.31793e-06
-0.00166445
-1.93033e-07
-0.00154775
-7.5201e-06
-0.00140489
-1.88491e-05
-0.00124257
-3.43704e-05
-0.00106386
-5.81674e-05
-0.000873477
-8.84985e-05
-0.000676626
-0.000124168
-0.000478185
-0.000164168
-0.000283046
-0.000207418
-9.46185e-05
-0.000252664
8.42473e-05
-0.000298559
0.000251571
-0.000343729
0.000405796
-0.000386812
0.000545734
-0.000426526
0.00067042
-0.000461736
0.000779033
-0.000491538
0.000870875
-0.000515368
0.000945415
-0.000533122
0.00100236
-0.000545277
0.00104175
-0.000553006
0.00106409
-0.000558229
0.00107053
-0.000563577
0.00106294
-0.000572212
0.00104407
-0.000587499
0.00101742
-0.000612549
0.000987086
-0.00064972
0.000957392
-0.000700161
0.000932433
-0.000763519
0.00091561
-0.000837871
0.000909245
-0.00091994
0.000914369
-0.00100557
0.000930717
-0.00109038
0.00095692
-0.00117045
0.000990838
-0.00124286
0.00102994
-0.00130612
-0.0013605
0.00107155
-0.000303915
-6.36193e-05
-0.000712684
-0.000101781
-0.000975762
-1.64491e-05
-0.00110974
0.000133444
-0.0011562
0.000255876
-0.00110952
0.000305947
-0.000956177
0.000286218
-0.000694762
0.000227506
-0.000325362
0.000152625
0.000151285
8.02264e-05
0.000722617
2.86169e-05
0.00134721
1.82829e-05
0.00196034
6.09901e-05
0.00250048
0.000140623
0.0029216
0.000229921
0.00320991
0.000288099
0.0033699
0.00029874
0.0034294
0.000243163
0.00340988
0.000144618
0.00332113
4.42291e-05
0.00315743
-1.87816e-05
0.00290684
-3.01457e-05
0.0025576
-2.19058e-06
0.00209915
4.82043e-05
0.00152655
0.000109847
0.000858348
0.000179681
0.000140492
0.000253081
-0.000584165
0.000316192
-0.00129041
0.00035529
-0.00194859
0.000361222
-0.00250396
0.000325326
-0.00290485
0.000249079
-0.00313924
0.000147844
-0.00322282
3.60202e-05
-0.00318454
-6.8786e-05
-0.00305961
-0.000154776
-0.00289136
-0.00020009
-0.00271072
-0.000211241
-0.00253827
-0.000198081
-0.00238076
-0.000175849
-0.00223697
-0.000154363
-0.00210255
-0.000138256
-0.00197255
-0.00012919
-0.00184274
-0.000127496
-0.0017099
-0.000133029
-0.00157202
-0.000145397
-0.00142646
-0.000164413
-0.00127161
-0.000189218
-0.00111041
-0.000219372
-0.000944868
-0.000254037
-0.000776835
-0.0002922
-0.000608283
-0.00033272
-0.000441323
-0.000374378
-0.000278071
-0.000415916
-0.00012055
-0.00045608
2.93812e-05
-0.00049366
0.000170088
-0.000527518
0.000300194
-0.00055663
0.000418575
-0.000580117
0.000524342
-0.000597306
0.000616799
-0.000607825
0.000695411
-0.000611735
0.000759825
-0.000609691
0.000809927
-0.000603108
0.000845966
-0.000594269
0.000868715
-0.000586325
0.000879615
-0.000583111
0.000880873
-0.000588756
0.000875426
-0.000607102
0.000866751
-0.000641044
0.00085851
-0.00069192
0.000854104
-0.000759113
0.000856236
-0.000840003
0.000866583
-0.000930286
0.000885661
-0.00102465
0.000912886
-0.00111761
0.000946778
-0.00120434
0.000985257
-0.00128134
0.00102597
-0.00134683
-0.00140099
0.00106646
-0.000101835
3.82164e-05
-0.000235406
3.17889e-05
-0.000148965
-0.00010289
0.000183144
-0.000198664
0.000661171
-0.000222151
0.00127015
-0.000303037
0.00203346
-0.000477089
0.00295217
-0.000691201
0.00396506
-0.00086027
0.00497221
-0.000926918
0.0058816
-0.000880769
0.00664586
-0.000745982
0.00724026
-0.000533408
0.00766624
-0.000285358
0.00796484
-6.86815e-05
0.00815288
0.000100065
0.00819977
0.000251846
0.00805038
0.000392549
0.00769451
0.000500495
0.0071575
0.000581238
0.00650001
0.000638704
0.0057902
0.000679668
0.00507727
0.000710741
0.00438827
0.000737204
0.00373473
0.000763384
0.00312227
0.000792146
0.00255297
0.000822375
0.00202152
0.000847646
0.00152264
0.000854169
0.00106525
0.00081861
0.00066914
0.000721439
0.000342795
0.000575424
7.46454e-05
0.000415994
-0.00015538
0.000266046
-0.000359531
0.000135365
-0.000549904
3.5597e-05
-0.000719051
-3.09435e-05
-0.000856266
-7.40268e-05
-0.000959597
-9.47492e-05
-0.00103089
-0.00010456
-0.00107582
-0.000109425
-0.00110069
-0.000113391
-0.00110994
-0.000119938
-0.00110536
-0.000132077
-0.00108729
-0.000151103
-0.00105524
-0.000177444
-0.00100937
-0.000210286
-0.000949944
-0.000248642
-0.000878145
-0.000291171
-0.000795679
-0.000336504
-0.000704616
-0.000383262
-0.000607239
-0.000430097
-0.000505887
-0.00047573
-0.00040281
-0.000518993
-0.000300047
-0.000558843
-0.000199329
-0.000594378
-0.000102025
-0.000624823
-9.14244e-06
-0.000649513
7.86336e-05
-0.000667893
0.000160875
-0.000679547
0.000237334
-0.000684283
0.00030788
-0.000682281
0.000372468
-0.000674279
0.000431138
-0.000661778
0.000484062
-0.000647193
0.000531605
-0.000633868
0.000574395
-0.000625902
0.000613367
-0.000627729
0.000649742
-0.000643477
0.000684923
-0.000676224
0.000720302
-0.000727298
0.000757039
-0.00079585
0.000795867
-0.000878831
0.000836991
-0.00097141
0.000880089
-0.00106775
0.000924387
-0.00116191
0.000968762
-0.00124871
0.00101188
-0.00132445
0.00105235
-0.00138729
-0.00143737
0.00108873
-0.000256806
0.000295022
-0.000592524
0.000367508
-0.000786524
9.11091e-05
-0.000771008
-0.000214181
-0.000518451
-0.000474707
-3.50616e-05
-0.000786426
0.000677908
-0.00119006
0.00161998
-0.00163327
0.00273307
-0.00197337
0.00386472
-0.00205856
0.00482098
-0.00183703
0.00545189
-0.00137689
0.00570598
-0.000787498
0.0056317
-0.000211081
0.00535657
0.00020645
0.00503496
0.000421675
0.00477907
0.000507734
0.0046213
0.000550318
0.00453748
0.000584323
0.00449139
0.000627324
0.00447479
0.000655309
0.00448678
0.000667671
0.004526
0.000671521
0.0045875
0.000675706
0.00466572
0.000685165
0.00475408
0.000703785
0.00484495
0.000731504
0.00492917
0.00076342
0.0049928
0.000790545
0.00500871
0.000802702
0.00493598
0.000794169
0.00474373
0.00076767
0.00442952
0.000730199
0.00400887
0.000686697
0.00350535
0.000638889
0.00295448
0.000586464
0.00239562
0.000527921
0.00185899
0.000462604
0.0013711
0.000393135
0.000942363
0.00032418
0.000573705
0.000259233
0.00026192
0.000198395
3.06644e-06
0.000138916
-0.00020783
7.88195e-05
-0.000374931
1.59988e-05
-0.000503262
-4.9113e-05
-0.000596343
-0.000117205
-0.000658496
-0.000186489
-0.000693988
-0.000255678
-0.000706996
-0.000323496
-0.000701476
-0.000388781
-0.000681077
-0.000450496
-0.000649059
-0.000507748
-0.000608239
-0.000559813
-0.00056094
-0.000606142
-0.000508973
-0.000646345
-0.000453632
-0.000680164
-0.000395724
-0.000707421
-0.000335629
-0.000727988
-0.000273373
-0.000741802
-0.000208729
-0.000748928
-0.000141305
-0.000749704
-7.06531e-05
-0.00074493
3.63844e-06
-0.000736069
8.18425e-05
-0.000725397
0.000163996
-0.000716021
0.000249808
-0.000711715
0.000338603
-0.000716524
0.000429301
-0.000734175
0.00052045
-0.000767373
0.000610326
-0.000817174
0.000697085
-0.000882609
0.000778961
-0.000960706
0.000854459
-0.00104691
0.000922489
-0.00113578
0.000982394
-0.00122181
0.00103388
-0.00130021
0.00107694
-0.00136751
0.00111175
-0.0014221
-0.00146415
0.00113853
0.000429634
-0.000134612
0.00108092
-0.000283775
0.00158634
-0.000414315
0.00195726
-0.000585101
0.00229162
-0.000809068
0.00258558
-0.00108038
0.00278267
-0.00138715
0.00284613
-0.00169673
0.00280558
-0.00193282
0.00273007
-0.00198306
0.00265744
-0.0017644
0.00257335
-0.0012928
0.00245284
-0.000666989
0.00225143
-9.66812e-06
0.00190803
0.000549849
0.00139207
0.000937634
0.000740989
0.00115881
3.09573e-05
0.00126035
-0.000673966
0.00128925
-0.00129584
0.00124919
-0.00180782
0.00116729
-0.0021913
0.00105116
-0.00243794
0.000918156
-0.00255569
0.000793464
-0.00256134
0.000690816
-0.0024769
0.000619345
-0.00232598
0.000580577
-0.00213196
0.000569401
-0.00191782
0.000576408
-0.00170587
0.000590747
-0.00151473
0.000603036
-0.00135406
0.000606995
-0.0012233
0.000599441
-0.00111634
0.000579739
-0.00102684
0.000549387
-0.000951671
0.000511294
-0.000892399
0.00046865
-0.000853723
0.000423927
-0.000838895
0.000378308
-0.000846312
0.000331596
-0.000869647
0.000282569
-0.000900985
0.000229732
-0.000934114
0.000172045
-0.000965103
0.000109808
-0.000990654
4.15501e-05
-0.00101023
-2.95338e-05
-0.00102368
-0.000103761
-0.0010311
-0.000179063
-0.00103227
-0.000254514
-0.00102689
-0.000328875
-0.00101474
-0.000400927
-0.00099573
-0.000469509
-0.000969899
-0.000533579
-0.000937445
-0.000592267
-0.000898662
-0.000644925
-0.000853873
-0.000691134
-0.000803344
-0.000730693
-0.000747195
-0.000763569
-0.000685326
-0.000789858
-0.000617373
-0.000809755
-0.000542718
-0.000823583
-0.00046056
-0.000831863
-0.000370043
-0.000835447
-0.000270457
-0.000835655
-0.000161467
-0.000834387
-4.33501e-05
-0.000834137
8.28028e-05
-0.000837867
0.000214974
-0.000848695
0.000350229
-0.00086943
0.000484903
-0.000902047
0.000614942
-0.000947214
0.000736364
-0.00100403
0.000845721
-0.00107006
0.000940489
-0.00114168
0.00101926
-0.00121455
0.00108175
-0.0012843
0.00112862
-0.00134707
0.00116121
-0.00140011
0.00118137
-0.00144226
-0.00147387
0.0011911
0.000116763
-0.000251375
0.000265888
-0.0004329
0.000316469
-0.000464897
0.000271941
-0.000540573
0.000155314
-0.000692441
-6.16915e-05
-0.000863379
-0.000429246
-0.0010196
-0.000979731
-0.00114624
-0.00168434
-0.00122821
-0.00242873
-0.00123867
-0.00303894
-0.00115419
-0.00336819
-0.000963541
-0.00335623
-0.000678955
-0.00302959
-0.000336307
-0.0025049
2.51637e-05
-0.00194496
0.00037769
-0.00148611
0.000699967
-0.00119832
0.000972551
-0.00109225
0.00118318
-0.00117038
0.00132733
-0.0013834
0.00138031
-0.00166327
0.00133102
-0.00190499
0.00115987
-0.00201057
0.000899049
-0.00194002
0.000620269
-0.00172447
0.000403793
-0.00143294
0.000289045
-0.00112768
0.000264138
-0.00084611
0.000294841
-0.000606203
0.00035084
-0.000416137
0.00041297
-0.000279376
0.000470234
-0.00019611
0.000516175
-0.00016361
0.000547239
-0.000176531
0.000562308
-0.000227394
0.000562157
-0.000307303
0.000548558
-0.000406664
0.000523289
-0.000516053
0.000487697
-0.000627156
0.000442699
-0.000733621
0.000389033
-0.000831419
0.000327531
-0.000918604
0.00025923
-0.000994186
0.000185391
-0.00105978
0.000107147
-0.00111446
2.51426e-05
-0.00115977
-5.8445e-05
-0.00119521
-0.000143624
-0.00122063
-0.0002291
-0.00123563
-0.00031387
-0.0012397
-0.000396856
-0.0012323
-0.000476915
-0.00121299
-0.000552884
-0.00118161
-0.000623652
-0.00113828
-0.000688255
-0.00108346
-0.000745953
-0.00101787
-0.000796283
-0.000942349
-0.000839088
-0.000857702
-0.000874505
-0.000764518
-0.000902939
-0.00066307
-0.00092503
-0.00055331
-0.000941623
-0.000434982
-0.000953775
-0.000307848
-0.000962788
-0.000171992
-0.000970243
-2.81251e-05
-0.000978005
0.000122154
-0.000988147
0.000276222
-0.00100276
0.000430473
-0.00102368
0.000580555
-0.00105213
0.000721793
-0.00108845
0.000849724
-0.00113196
0.000960621
-0.00118096
0.00105191
-0.00123297
0.0011224
-0.00128504
0.00117228
-0.00133418
0.00120298
-0.00137776
0.00121691
-0.00141404
0.0012172
-0.00144255
-0.00146402
0.00120735
-0.00022767
-2.37047e-05
-0.000313351
-0.000347219
-0.000115941
-0.000662307
0.000167987
-0.000824501
0.000340363
-0.000864816
0.0003106
-0.000833616
7.18508e-05
-0.000780846
-0.00034745
-0.000726941
-0.000901939
-0.000673719
-0.00152533
-0.000615275
-0.00213624
-0.000543287
-0.00264685
-0.000452925
-0.002981
-0.000344809
-0.00309472
-0.000222584
-0.00297703
-9.25307e-05
-0.00264489
4.55478e-05
-0.00213962
0.0001947
-0.0015218
0.000354735
-0.000862389
0.000523762
-0.000233057
0.000697996
0.000301647
0.000845608
0.000698626
0.000934044
0.0009186
0.000939897
0.000949725
0.000867925
0.000805924
0.00076407
0.000521302
0.000688416
0.00014317
0.000667177
-0.000276087
0.000683394
-0.000686304
0.000705058
-0.0010463
0.000710834
-0.00132876
0.000695431
-0.00152247
0.000663946
-0.0016313
0.000625007
-0.00167012
0.000586053
-0.00165887
0.000551062
-0.00161723
0.000520519
-0.00156103
0.000492355
-0.00150121
0.000463465
-0.00144446
0.000430949
-0.0013946
0.000392845
-0.00135384
0.000348266
-0.00132347
0.000297167
-0.00130425
0.000240005
-0.00129624
0.000177383
-0.00129885
0.00010976
-0.00131095
3.7244e-05
-0.00133009
-3.93082e-05
-0.00135403
-0.000119682
-0.00137853
-0.000204605
-0.00139916
-0.000293239
-0.00141154
-0.000384477
-0.00141167
-0.000476779
-0.00139635
-0.000568206
-0.0013634
-0.000656604
-0.00131183
-0.000739826
-0.00124183
-0.000815955
-0.00115461
-0.000883497
-0.00105217
-0.000941527
-0.000936917
-0.000989761
-0.00081129
-0.00102857
-0.000677452
-0.00105887
-0.000537081
-0.00108199
-0.000391366
-0.00109949
-0.000241179
-0.00111297
-8.7376e-05
-0.00112405
6.88921e-05
-0.00113427
0.000225897
-0.00114515
0.000381184
-0.00115805
0.000531591
-0.00117409
0.000673437
-0.00119397
0.000802873
-0.00121789
0.000916313
-0.0012454
0.00101087
-0.00127551
0.00108467
-0.00130678
0.00113712
-0.00133749
0.0011689
-0.00136596
0.00118195
-0.00139082
0.00117933
-0.00141142
0.00116488
-0.0014281
-0.00144207
0.00114293
0.000372562
-0.000396267
0.000957971
-0.000932628
0.00154358
-0.00124791
0.0020656
-0.00134652
0.00244989
-0.00124911
0.00267515
-0.00105888
0.00274926
-0.000854955
0.00270291
-0.000680594
0.00257552
-0.000546334
0.00240466
-0.000444417
0.00222465
-0.000363272
0.00206527
-0.000293543
0.00194867
-0.000228209
0.00188836
-0.000162279
0.00188816
-9.23285e-05
0.00194905
-1.5342e-05
0.00207039
7.33558e-05
0.00224584
0.000179286
0.00246165
0.000307954
0.00270236
0.000457287
0.00292998
0.000617992
0.00308323
0.000780793
0.0030852
0.000937923
0.00286999
0.00108313
0.00243374
0.00120032
0.00184247
0.00127969
0.00119471
0.00131493
0.000575754
0.00130235
3.77076e-05
0.0012431
-0.000396149
0.00114469
-0.000721023
0.00102031
-0.000943743
0.000886667
-0.00107877
0.000760031
-0.00114514
0.000652422
-0.00116333
0.00056926
-0.00115215
0.000509335
-0.00112662
0.000466821
-0.00109736
0.000434209
-0.00107123
0.000404816
-0.00105242
0.000374041
-0.00104358
0.000339423
-0.00104642
0.00030001
-0.00106197
0.000255552
-0.00109046
0.000205874
-0.0011311
0.000150403
-0.00118225
8.83921e-05
-0.00123992
1.83556e-05
-0.00129928
-6.03164e-05
-0.00135577
-0.000148114
-0.00140414
-0.000244874
-0.00143927
-0.000349343
-0.00145673