/*--------------------------------*- C++ -*----------------------------------*\
| =========                 |                                                 |
| \\      /  F ield         | OpenFOAM: The Open Source CFD Toolbox           |
|  \\    /   O peration     | Version:  2012                                  |
|   \\  /    A nd           | Website:  www.openfoam.com                      |
|    \\/     M anipulation  |                                                 |
\*---------------------------------------------------------------------------*/
FoamFile
{
    version     2.0;
    format      ascii;
    class       volVectorField;
    location    "0.9";
    object      U;
}
// * * * * * * * * * * * * * * * * * * * * * * * * * * * * * * * * * * * * * //

dimensions      [0 1 -1 0 0 0 0];


internalField   nonuniform List<vector> 
42400
(
(-7.90469 5.18659 1.2714e-16)
(-31.8281 24.1233 1.86258e-16)
(-61.8799 54.6813 -1.90294e-16)
(-89.959 82.1388 0)
(-99.8099 94.6843 0)
(-89.6846 86.9411 -4.37087e-19)
(-68.1588 67.3919 0)
(-47.0554 46.9801 3.72711e-19)
(-32.5659 31.421 0)
(-24.873 21.0383 3.23276e-19)
(-21.9336 13.9928 3.0198e-19)
(-21.993 8.65857 -2.82498e-19)
(-24.037 4.27877 -8.90228e-17)
(-27.5461 0.765336 9.05663e-17)
(-32.2019 -1.75108 -2.31093e-19)
(-37.5358 -3.2901 0)
(-42.6431 -4.33357 0)
(-46.207 -5.91924 0)
(-47.0749 -9.22878 0)
(-45.0222 -14.888 0)
(-40.3548 -21.9234 0)
(-33.4984 -27.7701 3.16045e-21)
(-26.1845 -30.8346 1.82595e-18)
(-20.4923 -31.5708 3.0338e-18)
(-16.6378 -30.6799 -4.83233e-18)
(-13.7575 -28.4573 6.94075e-20)
(-11.3719 -25.3539 5.56335e-20)
(-9.46425 -21.9389 -8.31604e-20)
(-7.99033 -18.5756 0)
(-6.85733 -15.4312 0)
(-6.00322 -12.5802 -1.17967e-19)
(-5.39524 -10.0529 1.19117e-19)
(-5.00496 -7.85469 2.55201e-20)
(-4.7973 -5.97672 -6.81494e-19)
(-4.73262 -4.39269 6.43478e-19)
(-4.77792 -3.07057 0)
(-4.89919 -1.96789 0)
(-5.04824 -1.034 0)
(-5.19668 -0.233893 0)
(-5.33344 0.452393 -6.76827e-19)
(-5.46289 1.03757 6.79112e-19)
(-5.59038 1.53833 -7.59525e-19)
(-5.71758 1.96972 3.29668e-20)
(-5.84286 2.34155 1.55255e-18)
(-5.96011 2.65948 -7.63498e-19)
(-6.05976 2.92621 7.58279e-19)
(-6.1313 3.14311 -1.53265e-18)
(-6.16575 3.3116 7.33252e-19)
(-6.15722 3.43389 2.75323e-20)
(-6.10318 3.51294 -5.61888e-19)
(-6.00396 3.55204 1.02639e-18)
(-5.86186 3.55444 -8.17275e-20)
(-5.68027 3.52304 -3.67387e-19)
(-5.46291 3.46027 -7.90108e-21)
(-5.2134 3.36808 0)
(-4.93481 3.2479 0)
(-4.62942 3.10064 0)
(-4.29859 2.92671 5.83542e-20)
(-3.94258 2.72598 7.06706e-20)
(-3.56059 2.49787 0)
(-3.15081 2.24147 1.25689e-18)
(-2.71068 1.95572 -1.34077e-18)
(-2.23716 1.63973 -1.60612e-18)
(-1.72727 1.29316 1.57603e-18)
(-1.17778 0.917193 0)
(-0.584383 0.515067 0)
(0.047977 0.0850758 -2.00214e-18)
(0.719296 -0.362929 1.95711e-18)
(1.42561 -0.820584 2.83025e-19)
(2.16013 -1.27888 0)
(2.91368 -1.72702 0)
(3.67532 -2.15223 2.49422e-19)
(4.4322 -2.54139 2.29179e-19)
(5.16887 -2.88329 0)
(5.86986 -3.16817 1.78898e-19)
(6.51973 -3.39084 9.54448e-19)
(7.10608 -3.54869 -9.25672e-19)
(7.61644 -3.64974 -1.89088e-19)
(8.06958 -3.67836 -3.67875e-19)
(8.21692 -3.95183 -1.68244e-20)
(5.91798 -4.02017 0)
(29.3562 -21.2736 -6.06816e-17)
(50.888 -37.5228 6.22448e-17)
(61.9973 -40.2221 0)
(67.0645 -37.3269 0)
(71.4555 -33.9943 -5.05419e-17)
(72.0547 -29.5791 5.20713e-17)
(66.3246 -22.4333 -3.71785e-19)
(56.335 -13.4062 0)
(46.0053 -4.50604 -3.22381e-19)
(37.6758 3.15264 -3.01159e-19)
(31.5732 9.53378 2.62998e-17)
(27.0922 14.9367 -3.79427e-18)
(23.7661 19.524 -2.42115e-17)
(21.5113 23.2699 -1.90221e-17)
(20.4252 26.1665 1.8717e-17)
(20.5738 28.2782 0)
(21.9425 29.6116 -6.94406e-19)
(24.3934 29.993 0)
(27.6879 29.0488 0)
(31.6807 26.3076 0)
(36.2262 21.7424 8.39058e-18)
(40.5886 16.2668 -1.749e-18)
(43.5411 11.1925 -7.34218e-18)
(44.4651 7.30293 0)
(43.6862 4.6147 1.50017e-19)
(41.8911 2.84472 -5.42835e-20)
(39.4692 1.80592 8.12691e-20)
(36.5249 1.44416 1.03143e-18)
(33.0979 1.68875 -1.04526e-18)
(29.3325 2.40002 1.48109e-19)
(25.4263 3.39372 1.10933e-19)
(21.5575 4.4719 -1.46654e-18)
(17.8748 5.46068 1.37552e-18)
(14.4743 6.26582 2.21317e-18)
(11.4003 6.8647 -2.17054e-18)
(8.65306 7.26426 0)
(6.23353 7.49021 6.0541e-23)
(4.1304 7.57526 0)
(2.32558 7.55721 1.11654e-20)
(0.800085 7.47554 -1.74648e-18)
(-0.470744 7.3553 1.7628e-18)
(-1.51116 7.20766 -6.69849e-20)
(-2.34051 7.03812 6.01132e-20)
(-2.97606 6.85034 -5.54717e-20)
(-3.43612 6.64909 4.67092e-20)
(-3.74153 6.44121 -4.01901e-20)
(-3.91507 6.23475 -2.36125e-19)
(-3.9795 6.03729 2.41426e-19)
(-3.95536 5.85434 0)
(-3.85949 5.68863 2.50942e-20)
(-3.70472 5.54018 -1.72399e-20)
(-3.50029 5.40698 2.85434e-19)
(-3.25262 5.28575 -2.70362e-19)
(-2.96616 5.17262 -7.70956e-20)
(-2.64396 5.06349 1.01188e-18)
(-2.28801 4.95418 -1.17512e-18)
(-1.89941 4.84036 -5.81473e-20)
(-1.47852 4.71763 -7.04161e-20)
(-1.02496 4.58147 1.7858e-18)
(-0.537816 4.42714 -1.75739e-18)
(-0.0156842 4.24972 1.04606e-19)
(0.54334 4.0442 1.40404e-19)
(1.14113 3.80602 0)
(1.77619 3.53086 -2.15425e-18)
(2.44607 3.21612 -1.1944e-19)
(3.14956 2.86245 2.79455e-18)
(3.88624 2.47707 0)
(4.64733 2.06135 -6.00481e-19)
(5.4234 1.62063 3.10775e-19)
(6.20415 1.16426 2.32562e-18)
(6.97666 0.704617 -2.51371e-18)
(7.72609 0.256266 -2.20077e-18)
(8.43562 -0.164664 2.15019e-18)
(9.08742 -0.540266 -3.81568e-19)
(9.66276 -0.858644 1.26073e-18)
(10.1516 -1.09723 -9.40935e-19)
(10.5228 -1.29772 1.88559e-19)
(10.8637 -1.31098 -7.18748e-19)
(10.7267 -1.90045 5.39375e-19)
(-0.787141 1.81003 4.61187e-17)
(-7.68699 11.4843 7.95317e-20)
(-20.0254 17.4935 -3.80141e-19)
(-29.541 21.5629 9.52078e-20)
(-42.4088 23.853 0)
(-58.1667 27.5335 1.25697e-16)
(-70.9602 28.1014 -2.53685e-16)
(-74.3767 21.8519 1.2792e-16)
(-67.1346 9.31314 -1.25205e-16)
(-53.2151 -5.40802 3.41841e-18)
(-38.2917 -17.6733 1.27248e-16)
(-26.4446 -24.7126 5.89879e-19)
(-18.7408 -26.3505 5.59872e-19)
(-13.9004 -24.2844 -1.06036e-16)
(-10.2403 -20.6235 1.08062e-16)
(-6.92256 -16.5403 7.50484e-19)
(-3.8322 -12.218 8.00108e-17)
(-1.04366 -7.70136 -8.92844e-18)
(1.39933 -3.26811 -7.23354e-17)
(3.5078 0.768942 -2.83746e-19)
(5.25966 4.20296 2.67546e-19)
(6.52633 6.98451 2.48055e-19)
(7.13946 9.20612 0)
(7.0375 10.9842 1.10055e-19)
(6.3259 12.3846 -2.69382e-17)
(5.20176 13.4243 4.96375e-17)
(3.85796 14.0976 -2.30204e-17)
(2.42236 14.4115 1.56704e-17)
(0.976426 14.3905 -1.5858e-17)
(-0.426039 14.0924 -1.06516e-17)
(-1.74588 13.6074 1.89148e-17)
(-2.98181 13.0533 -1.62434e-18)
(-4.13633 12.5191 -7.04471e-18)
(-5.16265 12.033 0)
(-5.99956 11.5749 0)
(-6.5938 11.1018 -1.79549e-20)
(-6.92335 10.5842 0)
(-7.01346 10.0254 -8.76933e-20)
(-6.92891 9.45727 1.91897e-18)
(-6.74775 8.92187 -3.73213e-18)
(-6.53192 8.45122 1.64346e-18)
(-6.31401 8.05753 0)
(-6.09985 7.73579 0)
(-5.87931 7.47146 1.00248e-18)
(-5.63783 7.2485 -1.00028e-18)
(-5.36381 7.05463 -8.48639e-20)
(-5.05141 6.88303 0)
(-4.69988 6.73158 0)
(-4.3115 6.60104 7.75583e-19)
(-3.88966 6.49315 -7.7165e-19)
(-3.43762 6.40922 -2.50561e-20)
(-2.9581 6.34943 0)
(-2.45334 6.31263 -9.08208e-19)
(-1.92524 6.29646 7.82977e-19)
(-1.37563 6.29765 -1.59465e-18)
(-0.806422 6.31234 1.62217e-18)
(-0.220278 6.33639 -1.72004e-18)
(0.382104 6.36398 3.68607e-18)
(1.00094 6.38927 -3.86449e-18)
(1.63621 6.40686 -1.31257e-19)
(2.2879 6.411 2.0606e-18)
(2.95557 6.39496 2.30001e-18)
(3.63766 6.35137 -2.39847e-18)
(4.33675 6.27736 0)
(5.05692 6.17203 2.24299e-18)
(5.79475 6.02918 1.01093e-19)
(6.54548 5.84385 -3.16061e-18)
(7.30728 5.61545 0)
(8.07506 5.34433 6.14667e-19)
(8.84072 5.03222 2.16538e-18)
(9.59419 4.68325 -2.13562e-18)
(10.3234 4.3035 0)
(11.0135 3.90217 0)
(11.6474 3.48867 -2.31283e-19)
(12.206 3.08256 2.02452e-19)
(12.6671 2.68406 9.59585e-19)
(13.0191 2.35415 -1.52348e-18)
(13.2197 1.97857 0)
(13.342 1.89861 1.61488e-19)
(13.1119 1.12217 3.01724e-19)
(-10.665 4.69645 -1.17648e-16)
(-38.8451 20.8642 1.75578e-16)
(-76.5863 43.578 -8.93e-17)
(-114.16 65.178 -8.86176e-17)
(-141.673 80.0479 9.08275e-17)
(-157.035 86.0003 0)
(-159.94 83.3839 -1.7311e-16)
(-150.786 72.9084 1.76094e-16)
(-131.036 55.7182 -1.62716e-16)
(-104.54 34.4505 1.66241e-16)
(-77.3886 12.9598 -1.42772e-16)
(-55.1184 -5.44129 2.73814e-16)
(-39.1342 -18.9917 -2.37018e-16)
(-26.4679 -27.2553 1.96063e-16)
(-14.6784 -31.4717 -1.56367e-16)
(-4.93127 -33.7351 6.96904e-17)
(1.05184 -34.7137 4.20358e-17)
(3.70385 -33.8806 -7.70612e-17)
(4.37631 -31.4031 3.42314e-17)
(3.98927 -28.1971 2.85314e-19)
(3.06421 -24.9858 -5.79808e-19)
(1.92958 -22.0483 1.22675e-17)
(0.739759 -19.4466 -1.24496e-17)
(-0.460994 -17.1721 2.08036e-19)
(-1.66061 -15.1864 0)
(-2.85106 -13.4466 1.6593e-19)
(-4.02232 -11.9063 0)
(-5.15918 -10.5123 -3.60189e-19)
(-6.24338 -9.22403 1.07554e-18)
(-7.25152 -8.00715 -4.72384e-19)
(-8.15799 -6.83754 -2.27667e-18)
(-8.935 -5.70268 2.13836e-18)
(-9.5513 -4.60133 8.50317e-20)
(-9.9761 -3.53244 -7.3263e-20)
(-10.198 -2.50511 -3.38194e-18)
(-10.2294 -1.53477 3.49235e-18)
(-10.0995 -0.636564 0)
(-9.84608 0.178072 3.19659e-18)
(-9.50614 0.902864 -3.12272e-18)
(-9.11139 1.53756 1.4529e-19)
(-8.67951 2.08726 -1.66843e-19)
(-8.21755 2.56059 0)
(-7.72523 2.96782 0)
(-7.19859 3.31857 0)
(-6.63368 3.62109 -1.37723e-19)
(-6.02869 3.88294 1.85069e-18)
(-5.38468 4.11185 -1.76135e-18)
(-4.70551 4.31585 0)
(-3.99628 4.50321 0)
(-3.2631 4.68274 1.29896e-18)
(-2.51247 4.863 -1.19509e-18)
(-1.74998 5.05113 1.14585e-18)
(-0.981023 5.25272 -8.50903e-19)
(-0.209839 5.47069 1.57127e-19)
(0.561014 5.7059 -8.62166e-19)
(1.33136 5.95912 1.1135e-18)
(2.09732 6.22328 -1.96501e-18)
(2.8545 6.48628 1.80838e-18)
(3.6027 6.74321 0)
(4.34489 6.99009 -1.25564e-19)
(5.0836 7.22003 -2.0605e-18)
(5.82108 7.42633 4.12815e-20)
(6.55958 7.60367 4.35523e-18)
(7.29924 7.74392 -4.19679e-18)
(8.03981 7.83946 1.90691e-18)
(8.78169 7.88579 2.2602e-18)
(9.52308 7.88056 -1.6565e-18)
(10.2606 7.82316 -2.50435e-19)
(10.9887 7.71432 -2.2376e-18)
(11.6994 7.55634 2.13305e-18)
(12.3815 7.35323 -5.01797e-19)
(13.0218 7.10943 -2.07176e-18)
(13.6028 6.8335 1.81042e-18)
(14.1081 6.52797 0)
(14.5135 6.21356 -1.30041e-18)
(14.8074 5.86909 4.99175e-19)
(14.9573 5.57319 2.13143e-18)
(14.9746 5.17078 -8.38314e-19)
(14.8159 5.03234 4.44039e-19)
(14.5198 4.31307 -4.18464e-19)
(-18.0719 12.1473 -2.60455e-18)
(-32.6816 21.9449 0)
(-33.0132 21.0706 0)
(-32.0285 21.4869 -1.52364e-20)
(-31.0349 24.0281 0)
(-24.0656 24.2859 0)
(-9.25829 20.1771 0)
(13.5388 11.1617 1.18568e-18)
(42.4671 -1.5869 0)
(72.7189 -15.3136 -4.26482e-19)
(98.3337 -26.7103 -7.64403e-18)
(115.681 -33.8352 1.89923e-17)
(124.673 -36.8137 -1.29638e-17)
(127.07 -36.7353 0)
(124.442 -34.514 3.85907e-19)
(117.641 -30.7459 -5.02747e-19)
(107.522 -25.9549 0)
(95.3802 -20.7184 -2.50601e-17)
(82.5877 -15.6014 4.91374e-17)
(70.1383 -11.0228 -2.42864e-18)
(58.5541 -7.18386 -2.21623e-17)
(48.041 -4.10787 -2.54069e-19)
(38.6513 -1.718 0)
(30.3752 0.105809 1.23593e-17)
(23.1782 1.49093 -1.22394e-17)
(17.0119 2.55054 7.53811e-18)
(11.8173 3.36896 -7.53807e-18)
(7.53514 3.99098 -3.91301e-18)
(4.10784 4.42064 3.91917e-18)
(1.47465 4.64391 0)
(-0.441635 4.65466 2.94248e-19)
(-1.74362 4.4734 -2.97481e-19)
(-2.55786 4.14866 6.01461e-20)
(-3.02208 3.74598 -1.52131e-18)
(-3.26442 3.3367 1.60778e-18)
(-3.38618 2.9873 2.7919e-20)
(-3.45527 2.74311 -1.09417e-19)
(-3.50673 2.61567 -2.55675e-18)
(-3.54278 2.59759 2.56986e-18)
(-3.54915 2.6596 2.54024e-18)
(-3.4956 2.77099 1.40634e-19)
(-3.35894 2.89432 -2.7987e-18)
(-3.12554 3.00642 0)
(-2.79683 3.09447 1.5815e-19)
(-2.38399 3.1587 -2.08235e-18)
(-1.90176 3.20904 4.79596e-18)
(-1.36467 3.25683 -4.46945e-18)
(-0.784551 3.31311 2.05261e-18)
(-0.16634 3.39505 0)
(0.48733 3.5156 1.17263e-19)
(1.17146 3.67741 -1.73753e-18)
(1.88254 3.88623 1.73944e-18)
(2.61415 4.1441 2.53022e-20)
(3.35556 4.44685 -1.38845e-18)
(4.09722 4.78813 1.08149e-18)
(4.8298 5.15772 -1.2254e-18)
(5.54875 5.54868 -1.23484e-18)
(6.2561 5.95738 2.39987e-18)
(6.94858 6.37302 -2.0861e-18)
(7.62336 6.7817 2.17931e-18)
(8.28187 7.17252 0)
(8.92685 7.53651 -1.24703e-19)
(9.56133 7.86498 -1.92485e-18)
(10.1882 8.14992 1.63955e-18)
(10.8089 8.38551 4.61778e-19)
(11.4236 8.56762 0)
(12.0307 8.69377 1.75909e-18)
(12.6269 8.76304 -1.52299e-18)
(13.2056 8.77609 -2.44431e-19)
(13.7583 8.73485 -1.7834e-19)
(14.2722 8.64292 3.94651e-19)
(14.7338 8.50447 5.23087e-20)
(15.1226 8.32675 -1.4563e-18)
(15.4259 8.11381 1.27324e-18)
(15.6103 7.88001 -1.19737e-19)
(15.6847 7.61888 0)
(15.5787 7.36939 -9.07714e-19)
(15.3953 7.06776 6.71787e-19)
(14.9147 6.86241 0)
(14.5931 6.42989 -2.08043e-19)
(-14.0469 11.7802 -1.28443e-18)
(-38.292 38.6844 -9.73787e-17)
(-54.8284 54.9107 8.98915e-17)
(-57.7452 70.3038 -1.77843e-16)
(-56.3454 79.8712 8.76085e-17)
(-50.0955 87.4616 2.00411e-19)
(-38.4807 90.6235 6.82648e-17)
(-21.1811 88.1933 -7.05566e-17)
(-0.340424 81.0738 -1.832e-19)
(19.907 71.7326 2.53301e-19)
(35.6534 62.8436 -4.76521e-17)
(45.145 56.0237 -3.97686e-17)
(48.9675 51.5251 9.06116e-17)
(48.8269 48.7968 -7.69637e-17)
(46.3318 47.1774 1.49952e-16)
(42.5681 46.1981 -7.30746e-17)
(38.2091 45.5682 0)
(33.6442 45.0744 0)
(29.0416 44.4982 5.54848e-17)
(24.4516 43.6332 -4.9753e-18)
(19.895 42.2997 -5.1365e-17)
(15.4097 40.3305 4.12716e-17)
(11.1704 37.65 -7.82367e-17)
(7.44811 34.32 3.67179e-17)
(4.46705 30.5615 2.63835e-17)
(2.35904 26.7565 -4.86474e-18)
(1.10582 23.3167 -2.2404e-17)
(0.539189 20.5271 2.76667e-19)
(0.406007 18.478 -2.39565e-19)
(0.470127 17.099 4.129e-19)
(0.578255 16.2329 0)
(0.662827 15.6994 7.40709e-18)
(0.715903 15.3391 -1.43196e-17)
(0.754344 15.0316 6.85862e-18)
(0.799638 14.7001 0)
(0.867233 14.3093 -4.94568e-18)
(0.964442 13.8626 4.97411e-18)
(1.08404 13.38 0)
(1.20995 12.898 0)
(1.31819 12.4472 -3.19111e-18)
(1.39266 12.0528 3.29719e-18)
(1.42745 11.7174 -2.36716e-20)
(1.43822 11.4315 0)
(1.45721 11.1721 2.31961e-18)
(1.52759 10.9107 -2.91486e-19)
(1.69411 10.6239 -2.47516e-18)
(1.99383 10.298 -1.33607e-19)
(2.44208 9.93273 2.54143e-19)
(3.03494 9.54651 0)
(3.74838 9.16249 -1.88787e-18)
(4.54341 8.79572 3.42017e-18)
(5.37744 8.46709 -1.75056e-18)
(6.2141 8.19753 -1.9136e-19)
(7.02705 8.00355 -1.53742e-18)
(7.79489 7.88835 2.46905e-19)
(8.50486 7.848 2.42595e-18)
(9.15133 7.875 -8.85377e-19)
(9.73583 7.95757 0)
(10.2644 8.08111 0)
(10.7449 8.23082 1.06815e-19)
(11.1862 8.39277 9.9878e-20)
(11.5973 8.55408 0)
(11.9867 8.70327 1.46149e-18)
(12.3616 8.83059 -1.43457e-18)
(12.7272 8.92819 -1.66057e-18)
(13.0863 8.99006 -1.26458e-19)
(13.4393 9.01221 1.17137e-18)
(13.7835 8.99258 -1.29386e-18)
(14.1126 8.93096 1.26379e-18)
(14.4175 8.82905 5.37278e-20)
(14.6849 8.68993 9.47389e-19)
(14.9004 8.51877 -9.29035e-19)
(15.0431 8.32045 -8.26248e-19)
(15.1002 8.10396 1.04849e-18)
(15.0409 7.87143 -6.82984e-19)
(14.8788 7.64048 7.79718e-19)
(14.5468 7.39417 -6.03889e-19)
(14.1767 7.18546 1.08327e-18)
(13.5021 6.90822 -9.73615e-20)
(13.1607 6.78425 -9.75333e-20)
(16.8808 -11.7521 -4.07335e-17)
(37.8097 -23.4508 1.33928e-19)
(49.4219 -26.9317 5.92359e-17)
(56.4509 -25.3197 -1.1784e-16)
(63.2532 -22.2836 5.84368e-17)
(67.2838 -18.078 -4.91722e-17)
(67.4333 -13.1844 6.08205e-18)
(64.0025 -8.49792 4.40194e-17)
(57.9844 -5.04495 -3.34835e-17)
(50.4953 -3.29829 3.36654e-17)
(42.3318 -3.24556 -2.58466e-17)
(33.8751 -4.55502 2.5989e-17)
(25.1885 -6.71439 -2.15694e-17)
(16.1836 -9.15775 2.21336e-17)
(6.68683 -11.3715 1.31691e-19)
(-3.49626 -12.929 1.2775e-19)
(-14.438 -13.4707 -2.79238e-17)
(-25.8934 -12.7562 2.84892e-17)
(-37.4059 -10.75 -2.97786e-19)
(-48.4783 -7.61801 -3.87974e-19)
(-58.5 -3.7203 6.68331e-19)
(-66.5622 0.316584 -1.2897e-18)
(-71.2716 3.62301 0)
(-71.1493 5.26667 1.62221e-19)
(-65.6842 4.69246 0)
(-56.0213 2.20165 0)
(-44.5722 -1.11008 4.54051e-20)
(-33.7824 -3.98617 -1.85259e-17)
(-25.1273 -5.64751 1.87048e-17)
(-18.9605 -5.96748 1.3903e-17)
(-14.934 -5.24056 -1.44801e-17)
(-12.461 -3.88761 3.10967e-19)
(-10.9807 -2.28435 -2.69608e-19)
(-10.0602 -0.703511 0)
(-9.40276 0.694103 -1.31938e-19)
(-8.82981 1.83932 0)
(-8.24833 2.72913 0)
(-7.62272 3.39926 -1.29697e-19)
(-6.94857 3.90163 0)
(-6.23289 4.28928 0)
(-5.48089 4.60774 3.52341e-18)
(-4.6916 4.89149 -3.33354e-18)
(-3.85709 5.16246 0)
(-2.96447 5.43018 0)
(-1.99584 5.69141 0)
(-0.943188 5.93881 -1.46805e-19)
(0.192059 6.17722 1.34133e-19)
(1.39834 6.40846 1.75981e-18)
(2.64648 6.62029 -1.87572e-18)
(3.89874 6.80908 1.6044e-18)
(5.11965 6.97658 -1.78634e-18)
(6.27754 7.12801 1.7783e-19)
(7.34144 7.26232 7.58357e-20)
(8.28847 7.37653 0)
(9.10682 7.47149 0)
(9.79293 7.54756 -9.22105e-19)
(10.351 7.60456 -6.96602e-20)
(10.7919 7.64246 9.50622e-19)
(11.1313 7.66125 -8.24363e-19)
(11.3876 7.66077 7.8724e-19)
(11.5803 7.64062 1.30545e-18)
(11.7286 7.60012 -8.43104e-20)
(11.8501 7.53843 -2.41073e-18)
(11.9596 7.45465 1.17748e-18)
(12.0687 7.34805 5.47377e-20)
(12.1849 7.21838 1.50071e-19)
(12.3113 7.06609 9.10869e-19)
(12.446 6.89265 -1.75471e-18)
(12.5826 6.70066 8.44119e-19)
(12.7098 6.49401 1.24864e-19)
(12.8126 6.27767 7.70732e-19)
(12.8733 6.05795 -8.3231e-19)
(12.8727 5.84099 0)
(12.794 5.63534 -1.01773e-19)
(12.6198 5.44354 0)
(12.3508 5.28069 6.21927e-19)
(11.9643 5.12435 -3.80468e-20)
(11.535 5.03779 -5.48441e-19)
(10.9181 4.85331 3.08364e-19)
(10.5878 4.97463 1.2473e-20)
(29.1658 -15.8563 -7.70284e-19)
(85.3454 -43.7803 1.15913e-18)
(126.066 -68.5185 3.54791e-21)
(143.09 -77.7839 -4.83051e-18)
(133.994 -75.2568 4.94576e-18)
(105.52 -62.4589 -1.1419e-17)
(65.9706 -44.1344 2.67269e-17)
(25.7342 -25.6505 -1.44563e-17)
(-7.05373 -11.0534 1.97053e-17)
(-30.2408 -1.49021 -1.93177e-17)
(-45.9021 4.03308 0)
(-56.4118 6.84739 3.55812e-19)
(-62.9601 7.72146 3.14655e-21)
(-65.955 7.04671 0)
(-65.632 5.16001 0)
(-62.3896 2.42994 0)
(-56.8951 -0.67033 0)
(-49.9281 -3.57927 6.67241e-20)
(-42.2409 -5.74447 0)
(-34.4885 -6.76839 2.05961e-17)
(-27.2169 -6.55999 -2.01452e-17)
(-20.7629 -5.3139 -3.98229e-17)
(-15.1114 -3.44136 4.06129e-17)
(-10.0432 -1.50539 3.60142e-17)
(-5.41092 -0.00465073 -3.66358e-17)
(-1.24731 0.769654 2.85933e-17)
(2.25169 0.798753 -2.89585e-17)
(4.8998 0.269979 1.94218e-17)
(6.61223 -0.533499 -4.67287e-18)
(7.41722 -1.33781 -1.51472e-17)
(7.42176 -1.92849 0)
(6.78327 -2.19923 1.13417e-20)
(5.70585 -2.15016 4.01678e-20)
(4.43153 -1.83965 0)
(3.19351 -1.35223 1.31565e-19)
(2.16684 -0.773997 0)
(1.44972 -0.170974 0)
(1.06811 0.417578 3.51156e-18)
(0.996283 0.974242 -6.77062e-18)
(1.18284 1.49589 3.49709e-18)
(1.57236 1.98819 3.21752e-18)
(2.11637 2.45696 -3.32932e-18)
(2.77428 2.89926 -9.28313e-20)
(3.50867 3.30105 0)
(4.29748 3.65769 2.62462e-18)
(5.1256 3.97651 -2.31724e-18)
(5.96153 4.25186 0)
(6.76788 4.473 0)
(7.51279 4.64491 -1.52892e-18)
(8.16351 4.7738 1.71103e-18)
(8.69145 4.8613 1.47777e-18)
(9.07952 4.90862 -1.38119e-18)
(9.32427 4.91726 -1.12386e-18)
(9.43536 4.88939 1.97744e-18)
(9.43474 4.82707 -9.29625e-19)
(9.3529 4.73254 -2.07554e-19)
(9.22379 4.60883 0)
(9.08003 4.46025 7.3501e-20)
(8.94915 4.29226 -4.92002e-19)
(8.85162 4.11111 9.76206e-19)
(8.80048 3.92299 -5.00515e-19)
(8.80207 3.73328 0)
(8.85729 3.54597 -6.41131e-20)
(8.96275 3.36342 0)
(9.11159 3.18658 -5.50298e-20)
(9.29405 3.01536 -3.4974e-20)
(9.49786 2.84926 -6.56486e-20)
(9.70857 2.68789 -5.85786e-19)
(9.91001 2.53145 5.12165e-19)
(10.085 2.38106 -5.86174e-20)
(10.216 2.23899 -5.61397e-19)
(10.2867 2.10851 6.86236e-19)
(10.2829 1.99384 -5.61697e-19)
(10.1938 1.89937 5.46342e-19)
(10.0144 1.82962 -6.01425e-19)
(9.74485 1.78796 4.75272e-19)
(9.3943 1.7737 4.84029e-19)
(8.98108 1.79663 -4.69301e-19)
(8.50192 1.802 1.06215e-19)
(8.12895 1.99647 -8.46003e-20)
(-6.8997 2.71985 -9.09003e-19)
(-19.0668 4.11225 1.08878e-18)
(-26.1241 2.80502 -3.99536e-18)
(-30.1155 -4.18371 8.12954e-18)
(-30.6181 -11.5499 -5.21801e-18)
(-28.8008 -19.21 5.38706e-21)
(-26.332 -25.1288 1.11592e-17)
(-24.4618 -28.2032 -2.43163e-17)
(-23.0454 -28.6391 -1.72607e-18)
(-21.2796 -27.292 1.49776e-17)
(-18.6538 -24.9578 -2.68955e-19)
(-15.034 -22.0865 -2.00335e-17)
(-10.4542 -18.9579 2.0438e-17)
(-4.89695 -15.8393 -2.34447e-17)
(1.80371 -13.0241 2.3887e-17)
(9.92063 -10.8256 2.61915e-17)
(19.5959 -9.48274 -2.66779e-17)
(30.5022 -8.99959 -6.4584e-20)
(41.5299 -8.97583 0)
(50.8326 -8.65472 -2.59266e-17)
(56.3893 -7.24844 2.59882e-17)
(57.0644 -4.43394 7.14035e-19)
(53.3943 -0.590308 1.88043e-17)
(47.114 3.46541 -1.97089e-17)
(40.0019 6.95895 5.87795e-19)
(33.1954 9.44181 0)
(27.0948 10.8817 -4.39686e-19)
(21.5947 11.5206 -3.40368e-19)
(16.5654 11.6678 -1.09461e-17)
(11.9543 11.5308 1.14099e-17)
(7.89853 11.1989 6.96781e-18)
(4.61901 10.678 -6.86023e-18)
(2.25849 9.98577 2.81436e-19)
(0.801748 9.17628 -4.79045e-18)
(0.112149 8.33249 8.78804e-18)
(0.00570398 7.54061 -4.26102e-18)
(0.301517 6.86106 -3.70357e-18)
(0.847165 6.32998 3.88854e-18)
(1.52798 5.95866 1.13147e-20)
(2.25609 5.73082 -1.06929e-19)
(2.96945 5.60885 1.04564e-19)
(3.62543 5.53494 -2.99933e-18)
(4.20466 5.45544 3.12632e-19)
(4.70569 5.33643 2.78536e-18)
(5.12806 5.15478 -2.47367e-18)
(5.46729 4.89371 2.31489e-18)
(5.72157 4.55894 0)
(5.88833 4.17376 1.70634e-18)
(5.97661 3.76598 -1.72464e-18)
(6.00314 3.35841 1.17136e-18)
(5.98842 2.96639 -2.20244e-19)
(5.95468 2.59998 -1.17843e-19)
(5.92399 2.2658 -9.90708e-20)
(5.91582 1.96782 -8.43553e-20)
(5.94508 1.70816 -7.83004e-19)
(6.02097 1.48751 6.00448e-20)
(6.14659 1.30509 0)
(6.31949 1.1584 -5.865e-19)
(6.53296 1.04332 4.3914e-19)
(6.77761 0.954308 0)
(7.04284 0.884864 -4.05779e-19)
(7.31806 0.827991 3.27778e-19)
(7.59338 0.776642 0)
(7.85993 0.724133 -2.79534e-20)
(8.10986 0.664531 0)
(8.33609 0.593037 -4.22905e-19)
(8.53207 0.506363 9.2092e-19)
(8.69147 0.403074 -4.18973e-19)
(8.80807 0.283875 6.02441e-20)
(8.87565 0.151766 5.87947e-20)
(8.88827 0.0120277 -3.7541e-19)
(8.84069 -0.128013 3.08002e-19)
(8.72913 -0.259487 -3.39815e-20)
(8.55221 -0.372724 -3.30971e-20)
(8.31183 -0.458157 8.81758e-20)
(8.01404 -0.507643 5.4384e-20)
(7.66973 -0.514392 3.32009e-19)
(7.29214 -0.478366 -2.99167e-20)
(6.90951 -0.390366 -2.76324e-19)
(6.55113 -0.239045 -2.78395e-20)
(0.572108 -0.346553 0)
(4.89452 -1.91524 -7.85085e-20)
(9.19848 -5.04704 -1.40001e-19)
(10.104 -5.98511 -1.80245e-17)
(8.44133 -6.27846 3.57634e-17)
(7.19952 -6.00251 -3.4493e-17)
(6.9841 -5.51513 1.706e-17)
(7.31653 -4.70948 0)
(7.65436 -3.49485 2.3959e-19)
(7.72664 -1.86835 -1.67382e-17)
(7.51929 0.0563971 1.73488e-17)
(7.25296 2.09153 1.75986e-17)
(7.10833 4.04543 -3.64307e-17)
(7.07395 5.76773 -7.49129e-19)
(6.98972 7.16603 -6.6216e-19)
(6.63035 8.22099 2.02218e-17)
(5.73805 8.95765 2.59791e-19)
(4.05434 9.38335 -2.28812e-17)
(1.32301 9.50987 2.29793e-17)
(-2.64019 9.39331 3.90536e-19)
(-7.98371 9.24305 2.40633e-19)
(-14.6068 9.33101 -2.59178e-19)
(-21.8427 9.78175 -2.15279e-17)
(-28.5291 10.4624 2.23809e-18)
(-33.3728 11.0477 2.00535e-17)
(-35.3916 11.1685 3.29526e-19)
(-34.3354 10.6389 -1.68385e-17)
(-30.864 9.5615 3.29537e-17)
(-26.0272 8.24424 -2.94829e-17)
(-20.9263 7.03452 1.35508e-17)
(-16.2694 6.16878 0)
(-12.2743 5.68914 -1.69771e-17)
(-8.87858 5.49632 3.04881e-17)
(-5.94161 5.44653 -1.37158e-17)
(-3.36194 5.42224 8.96524e-18)
(-1.10433 5.36052 -9.40178e-18)
(0.82035 5.25099 -1.64306e-19)
(2.37119 5.09619 0)
(3.50181 4.90522 -1.55661e-20)
(4.18377 4.70074 -2.85435e-18)
(4.42411 4.50506 3.06463e-18)
(4.2744 4.33201 -6.95124e-20)
(3.83327 4.17718 5.99669e-20)
(3.23249 4.00568 0)
(2.62562 3.77835 0)
(2.15073 3.46813 8.78109e-19)
(1.89718 3.06982 -1.01075e-18)
(1.88656 2.59527 -7.74761e-20)
(2.08572 2.0677 -6.11033e-19)
(2.43646 1.53286 1.18886e-18)
(2.87574 1.03027 -5.09622e-19)
(3.3527 0.58903 0)
(3.83416 0.223988 4.37898e-19)
(4.30215 -0.0616419 -4.10146e-19)
(4.74825 -0.272184 0)
(5.1686 -0.416185 3.57821e-19)
(5.56081 -0.504349 -3.22489e-19)
(5.92269 -0.548294 2.76459e-19)
(6.25217 -0.559762 -2.47338e-19)
(6.54745 -0.550114 0)
(6.80741 -0.530002 5.83114e-20)
(7.03184 -0.509081 3.41447e-20)
(7.2216 -0.495733 -1.76802e-19)
(7.37854 -0.496791 4.01223e-20)
(7.50526 -0.517252 1.5823e-19)
(7.60469 -0.560025 0)
(7.67954 -0.625741 2.16775e-20)
(7.73174 -0.712666 0)
(7.76194 -0.816772 0)
(7.76929 -0.931979 -2.04955e-19)
(7.75155 -1.05056 1.99857e-19)
(7.70569 -1.16367 1.73163e-19)
(7.62874 -1.26193 2.92036e-20)
(7.51898 -1.33605 -1.37613e-19)
(7.37701 -1.37738 -1.81651e-19)
(7.20671 -1.37845 1.45417e-19)
(7.01576 -1.3337 -2.72866e-20)
(6.81689 -1.23914 -8.18674e-20)
(6.62726 -1.09703 1.48431e-19)
(6.48425 -0.927066 -2.20913e-20)
(-8.81764 3.34851 2.46346e-17)
(-28.3991 12.9528 -1.82314e-17)
(-44.9356 16.0675 -1.52563e-17)
(-43.466 13.3551 1.56541e-17)
(-28.7986 2.66583 1.22727e-19)
(-12.1864 -8.56283 1.15406e-19)
(0.129708 -18.1288 0)
(8.37437 -26.2126 1.00859e-17)
(14.4798 -33.3962 -1.02354e-17)
(19.2245 -39.8149 0)
(22.5438 -45.3255 -9.47202e-18)
(24.3725 -49.6603 1.95297e-17)
(24.8051 -52.8864 5.23923e-19)
(23.9825 -55.3285 -2.12534e-17)
(22.2168 -57.0434 1.1132e-17)
(19.8846 -57.9717 2.59434e-19)
(17.2492 -58.2312 -3.60848e-19)
(14.4412 -57.8409 0)
(11.4092 -56.579 1.00586e-17)
(8.0092 -54.2532 -9.93692e-18)
(4.28876 -50.9073 -2.84379e-19)
(0.766778 -46.8736 5.02555e-18)
(-1.80498 -42.5868 -5.59437e-18)
(-3.04911 -38.3251 2.7798e-18)
(-3.25228 -34.1455 -2.85587e-18)
(-3.02087 -30.0453 -3.37689e-19)
(-2.80319 -26.0785 1.53883e-18)
(-2.72195 -22.3756 -2.70869e-19)
(-2.69556 -19.0954 -1.9038e-18)
(-2.66114 -16.3131 2.31517e-19)
(-2.59723 -14.0132 9.37381e-19)
(-2.50002 -12.1265 1.09427e-18)
(-2.38639 -10.5682 -1.09522e-18)
(-2.27712 -9.27397 0)
(-2.19019 -8.20241 2.01607e-19)
(-2.13629 -7.32733 1.71697e-19)
(-2.11519 -6.62681 0)
(-2.11571 -6.07658 2.69478e-18)
(-2.12221 -5.64695 -2.81621e-18)
(-2.11681 -5.30922 -9.34231e-20)
(-2.0809 -5.03488 0)
(-1.99433 -4.79443 7.01811e-20)
(-1.83533 -4.55963 1.89998e-18)
(-1.58631 -4.31442 -1.92615e-18)
(-1.23207 -4.05252 0)
(-0.771735 -3.78559 -1.11016e-18)
(-0.217787 -3.52997 1.26778e-18)
(0.409035 -3.28946 0)
(1.07913 -3.06968 0)
(1.76387 -2.87417 -3.66944e-20)
(2.44039 -2.70588 -3.15291e-20)
(3.09383 -2.55962 0)
(3.71432 -2.42796 2.9636e-19)
(4.29527 -2.30317 -3.17639e-19)
(4.83204 -2.17852 -2.34823e-19)
(5.32116 -2.04917 3.80226e-20)
(5.76011 -1.91257 3.77075e-19)
(6.14726 -1.76832 -3.27847e-19)
(6.4823 -1.61799 -7.80641e-21)
(6.76618 -1.46455 1.24117e-19)
(7.00132 -1.31224 -2.04941e-20)
(7.19171 -1.16603 0)
(7.34267 -1.03116 0)
(7.46042 -0.912611 6.37801e-20)
(7.55152 -0.814671 -6.33487e-20)
(7.62213 -0.740436 0)
(7.6772 -0.691454 -1.16041e-21)
(7.72 -0.667478 0)
(7.7517 -0.666361 1.96123e-20)
(7.7716 -0.684122 -1.91398e-20)
(7.77753 -0.715174 -8.19982e-21)
(7.76673 -0.752709 1.39838e-20)
(7.73681 -0.789202 -1.75286e-21)
(7.68664 -0.816996 -1.15386e-20)
(7.61702 -0.828907 0)
(7.53089 -0.81878 0)
(7.43321 -0.781768 0)
(7.33037 -0.715169 9.3342e-20)
(7.22972 -0.623109 1.9832e-20)
(7.14565 -0.510229 -2.06035e-19)
(-11.0132 2.96468 -2.77199e-17)
(-36.2681 10.2229 -4.05043e-17)
(-65.2161 20.7202 4.13956e-17)
(-90.0734 28.6698 -3.98931e-17)
(-104.91 33.6367 4.09369e-17)
(-111.396 34.7669 1.7036e-19)
(-111.885 33.1257 1.57173e-19)
(-108.484 29.852 0)
(-102.817 25.6542 -9.56624e-20)
(-96.0135 21.1061 0)
(-88.855 16.616 1.06926e-19)
(-81.8893 12.4801 2.88175e-17)
(-75.4116 8.75297 -2.9257e-17)
(-69.4459 5.3052 -2.64298e-17)
(-63.6278 1.94049 2.67757e-17)
(-57.1115 -1.5699 -2.31284e-17)
(-48.7515 -5.46847 2.40089e-17)
(-37.6708 -9.93754 0)
(-23.9647 -14.9564 0)
(-9.14926 -19.991 0)
(4.05571 -23.916 1.06251e-17)
(13.1296 -25.7422 -1.92717e-17)
(17.5361 -25.4667 1.90202e-18)
(18.8014 -23.8916 1.23277e-17)
(18.8481 -21.8373 -5.66684e-18)
(18.6293 -19.7587 0)
(18.1369 -17.6973 -8.93271e-20)
(17.0672 -15.665 0)
(15.4513 -13.599 2.89066e-18)
(13.5769 -11.5828 -2.83981e-18)
(11.7231 -9.75385 5.33965e-20)
(10.0234 -8.20034 0)
(8.49583 -6.95674 -1.5362e-18)
(7.12158 -6.02758 2.82164e-18)
(5.89561 -5.39598 -1.28217e-18)
(4.82809 -5.01813 6.90902e-19)
(3.92465 -4.8213 -1.16939e-18)
(3.17488 -4.72421 4.76589e-19)
(2.56208 -4.66437 0)
(2.07143 -4.60702 0)
(1.69366 -4.54099 0)
(1.42446 -4.46754 8.79857e-20)
(1.26216 -4.39383 -3.7189e-19)
(1.20817 -4.32388 2.48599e-19)
(1.26515 -4.25668 0)
(1.43111 -4.19183 -3.30536e-19)
(1.69812 -4.12929 3.04472e-19)
(2.05231 -4.06793 2.68631e-19)
(2.47821 -4.00617 -3.61316e-20)
(2.95854 -3.94132 -2.80168e-20)
(3.47541 -3.86956 -2.82046e-20)
(4.01163 -3.78642 -1.81444e-19)
(4.55131 -3.68741 0)
(5.08007 -3.5686 0)
(5.58519 -3.427 -7.53771e-20)
(6.05563 -3.26092 7.26822e-20)
(6.48215 -3.07008 0)
(6.85728 -2.85639 0)
(7.17594 -2.62315 -1.14529e-21)
(7.43582 -2.37481 7.92993e-21)
(7.63719 -2.11774 0)
(7.78312 -1.85925 0)
(7.87927 -1.60704 9.56635e-21)
(7.93337 -1.3687 1.07908e-20)
(7.95445 -1.1511 -4.75544e-20)
(7.95198 -0.959794 1.0218e-19)
(7.93489 -0.798551 8.09737e-21)
(7.91068 -0.668989 -1.24889e-19)
(7.88475 -0.570461 1.48851e-19)
(7.85999 -0.500168 -1.42822e-19)
(7.83681 -0.453522 1.78514e-20)
(7.81353 -0.424683 7.58759e-20)
(7.78706 -0.40719 -1.68591e-19)
(7.7538 -0.394578 -3.05279e-20)
(7.71053 -0.380931 3.50576e-19)
(7.65525 -0.361303 -2.07411e-19)
(7.58779 -0.332064 0)
(7.51017 -0.291627 -4.87212e-20)
(7.42642 -0.242177 0)
(7.34493 -0.181675 2.2045e-19)
(-13.7008 3.90809 0)
(-25.1693 6.0533 1.10866e-19)
(-21.6361 6.40364 -1.06845e-19)
(-15.4449 5.22012 7.43446e-18)
(-10.7348 6.68323 -1.35383e-17)
(-4.91923 8.28149 5.52923e-18)
(2.93196 9.4205 -1.57191e-19)
(12.6021 10.2604 0)
(23.2323 10.8739 0)
(34.0273 11.4378 0)
(44.3651 12.0748 -1.07348e-19)
(53.6473 12.9583 -2.23491e-19)
(61.2616 14.29 0)
(66.8239 16.177 1.05476e-19)
(70.3812 18.5694 3.64757e-19)
(72.3497 21.2751 3.41498e-18)
(73.1482 24.0061 -3.77725e-18)
(72.885 26.4379 -1.44605e-19)
(71.4225 28.2452 0)
(68.7213 29.1516 1.15749e-19)
(65.0266 29.0331 9.26021e-20)
(60.6809 28.0146 -7.65361e-19)
(55.8866 26.4216 -2.60193e-19)
(50.708 24.587 1.05715e-18)
(45.3159 22.6634 9.96091e-20)
(39.8957 20.627 5.45697e-20)
(34.6124 18.5164 2.00154e-18)
(29.5936 16.2815 -2.08498e-18)
(24.9575 14.0884 2.99706e-20)
(20.7601 12.1393 -7.93099e-20)
(16.9617 10.5351 -7.45685e-20)
(13.4414 9.23797 2.33576e-18)
(10.0561 8.14434 -2.36244e-18)
(6.82567 7.1044 -9.82548e-20)
(3.94254 5.97219 4.64132e-20)
(1.6889 4.64988 -4.2739e-20)
(0.223462 3.14176 3.88419e-20)
(-0.528609 1.58352 0)
(-0.787282 0.155445 -5.5349e-20)