/*--------------------------------*- C++ -*----------------------------------*\
| =========                 |                                                 |
| \\      /  F ield         | OpenFOAM: The Open Source CFD Toolbox           |
|  \\    /   O peration     | Version:  2012                                  |
|   \\  /    A nd           | Website:  www.openfoam.com                      |
|    \\/     M anipulation  |                                                 |
\*---------------------------------------------------------------------------*/
FoamFile
{
    version     2.0;
    format      ascii;
    class       volVectorField;
    location    "0.6";
    object      U;
}
// * * * * * * * * * * * * * * * * * * * * * * * * * * * * * * * * * * * * * //

dimensions      [0 1 -1 0 0 0 0];


internalField   nonuniform List<vector> 
42400
(
(12.505 -11.2376 -6.25284e-17)
(39.5037 -34.7929 -9.2909e-17)
(58.3544 -53.2908 9.48842e-17)
(62.9199 -55.8049 0)
(55.6691 -46.519 0)
(45.2229 -32.2396 4.82522e-19)
(36.9944 -18.2664 0)
(32.9738 -6.50768 -4.58001e-19)
(32.9737 3.14593 0)
(36.0515 11.3212 -4.65237e-19)
(41.2386 18.4416 -4.8485e-19)
(47.6871 24.5585 5.12221e-19)
(54.5664 29.3821 1.09287e-16)
(60.9244 32.3983 -1.11324e-16)
(65.4629 33.1962 5.769e-19)
(66.4416 32.161 0)
(63.2048 30.348 0)
(58.078 28.4491 0)
(54.57 26.4901 0)
(53.5278 24.4941 0)
(52.5607 23.4948 0)
(47.803 26.0031 6.46067e-19)
(36.4084 33.8832 4.75487e-17)
(19.8842 45.1236 -8.89468e-18)
(4.13215 54.2698 -3.91608e-17)
(-5.67117 57.1317 3.37631e-19)
(-8.92667 53.5555 3.12659e-19)
(-8.13218 45.9914 -5.93056e-19)
(-5.8676 36.8788 0)
(-3.46627 27.5244 0)
(-1.60625 18.687 -1.90521e-17)
(-0.628481 10.9934 1.92436e-17)
(-0.535662 4.79763 -3.63017e-19)
(-0.99274 0.0418403 1.54222e-17)
(-1.51798 -3.57407 -1.52802e-17)
(-1.75786 -6.33142 0)
(-1.60588 -8.364 0)
(-1.13671 -9.725 0)
(-0.474704 -10.4805 0)
(0.273696 -10.742 8.58482e-18)
(1.04184 -10.6381 -8.61273e-18)
(1.78345 -10.2909 6.71777e-18)
(2.46332 -9.79258 -1.00582e-18)
(3.05419 -9.20204 -1.09871e-17)
(3.53593 -8.55223 5.06117e-18)
(3.89514 -7.86071 -3.97269e-18)
(4.12523 -7.13897 7.6854e-18)
(4.22636 -6.39833 -3.5474e-18)
(4.20507 -5.6522 -1.42888e-19)
(4.07352 -4.91499 2.77645e-18)
(3.84793 -4.19945 -5.32102e-18)
(3.54695 -3.51333 -8.16773e-20)
(3.18996 -2.8572 2.59527e-18)
(2.79562 -2.22473 -2.22043e-19)
(2.381 -1.60523 0)
(1.96103 -0.987911 0)
(1.54804 -0.366163 0)
(1.15393 0.262407 1.94511e-19)
(0.788686 0.894879 1.89097e-19)
(0.460028 1.5217 0)
(0.1745 2.1302 3.22046e-18)
(-0.0628009 2.70695 -3.34076e-18)
(-0.248335 3.23961 -3.053e-18)
(-0.380182 3.71823 2.99543e-18)
(-0.457926 4.13598 0)
(-0.482352 4.48925 0)
(-0.455044 4.77719 -2.78345e-18)
(-0.378026 5.00092 2.72077e-18)
(-0.253539 5.16281 2.99927e-19)
(-0.0839993 5.2658 0)
(0.127927 5.31316 0)
(0.379248 5.30839 2.82341e-19)
(0.666726 5.25531 2.76639e-19)
(0.987245 5.15785 0)
(1.33849 5.01966 2.65161e-19)
(1.71974 4.84331 2.27694e-18)
(2.13343 4.62987 -2.2087e-18)
(2.57963 4.37426 -4.93085e-19)
(3.09359 4.09382 -2.09421e-18)
(3.49288 3.65792 -1.99888e-18)
(2.65666 -2.67504 0)
(1.64483 -1.43369 -3.70805e-17)
(-6.58387 0.933238 3.80503e-17)
(-12.3898 3.5006 0)
(-15.9002 3.43931 0)
(-15.68 2.62567 -2.62199e-17)
(-10.0024 -0.139012 2.62519e-17)
(0.583619 -4.59671 4.54714e-19)
(13.6105 -9.0718 0)
(26.3942 -12.0209 4.61687e-19)
(37.1678 -12.5293 4.80832e-19)
(45.0358 -10.1805 2.66603e-17)
(49.3351 -4.70904 3.35248e-18)
(49.7688 3.77924 -3.13864e-17)
(46.809 14.3285 -3.56667e-17)
(41.4086 25.2516 3.57663e-17)
(34.5869 35.0398 0)
(27.3497 42.8912 -8.46313e-21)
(20.4368 48.443 0)
(14.0201 51.611 0)
(7.90827 52.703 0)
(1.79916 52.476 1.78657e-17)
(-4.45549 52 -3.38874e-18)
(-10.5897 52.1683 -1.658e-17)
(-15.9414 53.162 0)
(-19.9259 54.5457 -3.33366e-19)
(-22.4826 55.8606 -3.04503e-19)
(-24.0034 56.9109 5.78046e-19)
(-24.9141 57.5165 1.24131e-17)
(-25.2042 57.0987 -1.25876e-17)
(-24.3425 54.8548 1.18531e-19)
(-21.8055 50.4221 8.78234e-20)
(-17.6935 44.1761 5.25834e-18)
(-12.6597 36.9531 -5.00931e-18)
(-7.44246 29.5625 -2.10494e-18)
(-2.61737 22.5676 1.85293e-18)
(1.44431 16.3266 0)
(4.55995 11.0284 1.27966e-22)
(6.72934 6.71967 0)
(8.09216 3.32492 -2.89739e-20)
(8.8533 0.70679 2.36169e-20)
(9.2214 -1.26865 -6.99294e-20)
(9.35686 -2.70893 2.11655e-19)
(9.35187 -3.69678 -1.97105e-19)
(9.24781 -4.29248 9.65441e-20)
(9.05652 -4.54301 -1.72455e-19)
(8.77601 -4.49253 1.61634e-19)
(8.40156 -4.1894 1.23128e-18)
(7.9331 -3.68971 -1.23457e-18)
(7.3793 -3.05754 0)
(6.75872 -2.36145 8.19933e-20)
(6.09791 -1.66695 2.41797e-19)
(5.42678 -1.02631 1.17642e-18)
(4.77265 -0.469105 -1.17335e-18)
(4.1556 0.00211143 -1.52315e-19)
(3.58677 0.407916 2.56517e-18)
(3.06984 0.781622 -2.83073e-18)
(2.60404 1.15724 -1.94252e-19)
(2.18763 1.55837 -1.88872e-19)
(1.81867 1.99425 2.54115e-18)
(1.49612 2.46156 -2.50078e-18)
(1.22098 2.94787 1.74701e-19)
(0.995127 3.4352 1.32023e-19)
(0.820716 3.90421 0)
(0.699637 4.33717 -2.05051e-18)
(0.633096 4.72 -4.55728e-21)
(0.621389 5.04312 2.45547e-18)
(0.663833 5.30158 0)
(0.758827 5.49442 -5.34087e-19)
(0.903968 5.62372 2.30239e-19)
(1.09623 5.69355 2.06816e-18)
(1.33214 5.70895 -2.29653e-18)
(1.608 5.67513 -2.27303e-18)
(1.9202 5.59677 2.15676e-18)
(2.26564 5.47747 -4.76545e-19)
(2.64162 5.31843 1.88216e-18)
(3.04982 5.12075 -1.4181e-18)
(3.47975 4.8689 4.92669e-19)
(3.98845 4.6037 -2.12758e-18)
(4.37555 4.1429 1.68257e-18)
(-2.34403 0.120587 -3.51229e-17)
(-3.92498 0.406888 1.79033e-19)
(-2.40539 -0.978309 1.32041e-19)
(6.30324 -5.69333 1.79199e-19)
(23.8907 -15.3666 0)
(49.2068 -30.3311 -9.54967e-17)
(78.3282 -48.8485 1.87688e-16)
(104.181 -67.0339 -9.20639e-17)
(121.038 -81.4529 7.60302e-17)
(128.282 -91.3526 -9.72435e-18)
(128.847 -97.7914 -6.90258e-17)
(125.18 -101.409 -1.17263e-19)
(117.854 -101.809 -7.03876e-20)
(106.009 -97.9994 3.87125e-17)
(89.1386 -89.5248 -3.94546e-17)
(67.8877 -77.105 5.64107e-20)
(44.1626 -62.3897 -3.19e-17)
(20.293 -47.172 1.45798e-18)
(-1.86005 -32.7875 3.14699e-17)
(-21.2483 -20.0571 1.10287e-19)
(-37.4363 -9.38122 -1.26617e-19)
(-50.3157 -0.843519 -1.39795e-19)
(-59.8449 5.59617 0)
(-65.8149 9.89058 1.03554e-19)
(-67.8156 11.8181 1.58191e-17)
(-65.5843 11.2109 -2.81734e-17)
(-59.6443 8.5486 1.24219e-17)
(-51.6717 5.27506 -5.84762e-18)
(-43.8078 3.03875 5.93016e-18)
(-37.2819 2.45437 2.90016e-18)
(-31.9317 2.94431 -5.40541e-18)
(-27.0603 3.6373 -4.7193e-20)
(-22.3068 4.00957 2.49442e-18)
(-17.7318 3.91351 0)
(-13.5192 3.39366 0)
(-9.79294 2.54521 -1.73096e-22)
(-6.57081 1.47098 0)
(-3.78573 0.279891 -3.26944e-20)
(-1.34325 -0.934232 9.50695e-19)
(0.837729 -2.09628 -2.3993e-18)
(2.8013 -3.14243 1.41499e-18)
(4.54882 -4.03134 0)
(6.06093 -4.73404 0)
(7.31594 -5.22509 1.85152e-18)
(8.2945 -5.48659 -1.7628e-18)
(8.98346 -5.50784 -9.50377e-20)
(9.3769 -5.28541 0)
(9.47669 -4.82532 0)
(9.29474 -4.14686 1.31796e-18)
(8.85642 -3.2874 -1.31096e-18)
(8.20348 -2.30532 -8.1914e-20)
(7.39508 -1.27836 0)
(6.50435 -0.295015 -1.21665e-18)
(5.6092 0.561223 1.08928e-18)
(4.77849 1.23162 -1.95644e-18)
(4.05871 1.69824 2.12259e-18)
(3.46773 1.98793 -1.88732e-18)
(2.99665 2.1587 4.00972e-18)
(2.62076 2.27916 -3.94033e-18)
(2.31419 2.41071 5.35484e-21)
(2.05675 2.59345 1.9023e-18)
(1.83591 2.84284 1.86219e-18)
(1.64705 3.15491 -1.96105e-18)
(1.49148 3.51321 0)
(1.37365 3.89513 1.49987e-18)
(1.29901 4.27693 9.41223e-22)
(1.27257 4.63715 -2.10189e-18)
(1.29793 4.95855 0)
(1.37688 5.22897 4.04727e-19)
(1.50924 5.44133 1.36337e-18)
(1.69302 5.59304 -1.38913e-18)
(1.92468 5.68501 0)
(2.19966 5.72052 0)
(2.51284 5.70395 -2.15135e-19)
(2.85937 5.64008 2.11523e-19)
(3.23389 5.53174 1.15058e-18)
(3.63678 5.38519 -1.82463e-18)
(4.05127 5.18488 0)
(4.52834 4.98717 3.88279e-19)
(4.91002 4.63283 1.34768e-18)
(4.22006 -3.30313 8.33352e-18)
(25.1754 -17.821 -1.2687e-17)
(55.9072 -41.4824 6.31495e-18)
(85.3811 -63.1221 5.66315e-18)
(102.791 -77.0312 -6.17641e-18)
(104.055 -79.7057 0)
(85.148 -68.6449 1.1231e-17)
(49.4521 -46.5428 -1.11914e-17)
(10.2298 -23.0551 1.19531e-17)
(-17.9251 -8.66618 -1.22439e-17)
(-30.6381 -6.34044 1.43867e-17)
(-33.9938 -11.6073 -3.24141e-17)
(-34.9701 -18.9627 3.73706e-17)
(-36.7999 -25.0436 -4.29593e-17)
(-40.0837 -28.6424 4.72662e-17)
(-44.5961 -29.9649 -2.47678e-17)
(-49.3235 -29.6844 -2.2814e-17)
(-53.0882 -28.3411 4.38828e-17)
(-55.2305 -26.3788 -2.08609e-17)
(-55.6451 -24.093 -1.12933e-19)
(-54.4937 -21.6164 4.36996e-19)
(-52.0344 -19.0282 -6.7036e-18)
(-48.522 -16.4185 6.66973e-18)
(-44.1715 -13.9053 -1.50329e-19)
(-39.1959 -11.6299 0)
(-33.8717 -9.72183 -1.26016e-19)
(-28.5614 -8.23237 0)
(-23.6494 -7.0757 -3.1179e-18)
(-19.4128 -6.04402 2.28238e-19)
(-15.9165 -4.91901 2.76527e-18)
(-13.0121 -3.6025 1.89868e-18)
(-10.4592 -2.16292 -1.85475e-18)
(-8.04633 -0.767031 -1.41512e-19)
(-5.6525 0.420562 -8.30627e-20)
(-3.23542 1.29761 -7.79277e-19)
(-0.800766 1.83618 8.57733e-19)
(1.61854 2.06597 0)
(3.96363 2.03642 2.08674e-18)
(6.1628 1.79452 -2.06487e-18)
(8.15067 1.39816 1.08362e-19)
(9.8748 0.908847 -1.0301e-19)
(11.2942 0.375838 0)
(12.3822 -0.162426 0)
(13.1306 -0.67581 0)
(13.5483 -1.1394 -6.27063e-20)
(13.655 -1.52754 1.3127e-18)
(13.4724 -1.80851 -1.21616e-18)
(13.0183 -1.94503 0)
(12.3072 -1.90199 0)
(11.3568 -1.65795 7.80107e-19)
(10.1987 -1.21522 -7.42353e-19)
(8.88537 -0.606368 7.71963e-19)
(7.49287 0.105327 -5.74652e-19)
(6.11454 0.834268 7.65779e-20)
(4.84651 1.49003 -7.04565e-19)
(3.76809 1.99942 8.87082e-19)
(2.92712 2.32346 -1.49594e-18)
(2.33017 2.46989 1.40558e-18)
(1.94532 2.48632 0)
(1.71584 2.43847 -6.59394e-20)
(1.58238 2.39086 -1.33018e-18)
(1.49864 2.39241 7.07042e-20)
(1.43671 2.46902 2.60866e-18)
(1.38576 2.62553 -2.43135e-18)
(1.34688 2.85183 1.10186e-18)
(1.32769 3.12926 1.18879e-18)
(1.33798 3.43589 -8.72472e-19)
(1.38695 3.75014 -1.10414e-19)
(1.48156 4.05307 -1.17464e-18)
(1.62595 4.32962 1.08529e-18)
(1.82114 4.56905 -2.69392e-19)
(2.06524 4.76475 -1.1683e-18)
(2.35421 4.91337 1.03548e-18)
(2.68268 5.01392 0)
(3.04489 5.06717 -1.04889e-18)
(3.43417 5.07344 2.81729e-19)
(3.8482 5.03702 2.2735e-18)
(4.27481 4.95193 -1.01185e-18)
(4.74879 4.8489 1.03501e-18)
(5.15459 4.66466 -9.95646e-19)
(0.769189 0.129603 3.21864e-17)
(-0.0886131 4.81828 0)
(-4.14117 5.69301 0)
(-4.88207 6.21834 2.97827e-19)
(-5.08165 2.18958 0)
(-2.82596 -3.99319 0)
(1.93658 -11.5526 0)
(8.45132 -18.5768 -1.04638e-19)
(14.7764 -22.9075 0)
(19.0511 -23.6413 -2.04293e-19)
(21.0169 -21.786 4.84284e-17)
(21.5608 -19.0394 -9.35813e-17)
(21.2783 -16.2664 4.5312e-17)
(20.3138 -13.5666 0)
(18.8691 -10.8845 -2.36374e-19)
(17.2492 -8.19092 2.69638e-20)
(15.6385 -5.48995 0)
(14.0996 -2.80793 3.03875e-17)
(12.696 -0.190341 -6.03103e-17)
(11.4537 2.27294 1.33471e-18)
(10.3798 4.4729 2.78535e-17)
(9.48902 6.29609 2.67859e-19)
(8.81898 7.6286 0)
(8.42699 8.36684 -2.18195e-17)
(8.3717 8.43577 2.27954e-17)
(8.68212 7.82107 -1.85309e-17)
(9.33265 6.60244 1.9043e-17)
(10.236 4.96488 1.45642e-17)
(11.2202 3.19352 -1.46357e-17)
(12.0917 1.60817 0)
(12.728 0.464108 -8.89151e-18)
(13.114 -0.126813 8.98162e-18)
(13.2957 -0.200819 9.07743e-20)
(13.3613 0.10768 -4.90424e-18)
(13.3984 0.644035 5.02677e-18)
(13.4657 1.28131 -1.89315e-20)
(13.5825 1.92228 -3.02601e-20)
(13.7319 2.49096 -1.95975e-18)
(13.8844 2.94679 1.96888e-18)
(14.015 3.28148 1.17966e-18)
(14.0919 3.49259 -1.5024e-19)
(14.0755 3.5782 -8.93202e-19)
(13.9258 3.5392 0)
(13.6099 3.37569 -2.7609e-20)
(13.111 3.08616 -3.83412e-19)
(12.431 2.67542 7.42457e-19)
(11.5866 2.1688 -6.18995e-19)
(10.6017 1.61847 2.89796e-19)
(9.49827 1.09315 0)
(8.29277 0.660075 -1.04404e-21)
(7.00304 0.37044 -3.59094e-19)
(5.66259 0.249542 3.28357e-19)
(4.32946 0.290808 -4.61308e-20)
(3.08194 0.456965 -4.96957e-19)
(2.00239 0.689767 3.35572e-19)
(1.15365 0.921261 -4.50858e-19)
(0.556377 1.09186 -4.48097e-19)
(0.204194 1.17849 9.20324e-19)
(0.058438 1.18544 -7.64919e-19)
(0.0606344 1.13625 8.19733e-19)
(0.150676 1.06612 0)
(0.279259 1.01133 -6.23439e-20)
(0.414099 0.999964 -7.1516e-19)
(0.540318 1.04918 5.81429e-19)
(0.656331 1.1646 1.68551e-19)
(0.769115 1.34209 0)
(0.890078 1.57128 5.83301e-19)
(1.03132 1.83802 -5.19755e-19)
(1.20309 2.1271 -1.08443e-19)
(1.41262 2.42448 -5.16151e-20)
(1.66401 2.7181 1.5756e-19)
(1.95772 2.99812 5.05117e-20)
(2.291 3.25612 -6.89158e-19)
(2.65923 3.48558 6.15667e-19)
(3.05703 3.68198 -6.17381e-20)
(3.47885 3.84254 0)
(3.92032 3.96509 -9.18352e-19)
(4.37195 4.04497 6.82321e-19)
(4.85604 4.08524 0)
(5.2837 4.10912 -7.58906e-19)
(4.73382 -4.40798 2.81784e-19)
(10.3005 -9.42888 1.99836e-17)
(10.1897 -10.8824 -1.7805e-17)
(8.36228 -11.2263 3.42543e-17)
(7.93174 -12.0874 -1.65045e-17)
(8.11769 -13.2961 -4.3811e-20)
(8.40832 -14.558 -8.87124e-18)
(8.41179 -15.6851 8.91023e-18)
(7.92564 -16.6075 7.61922e-20)
(7.00082 -17.2753 2.82346e-19)
(5.82657 -17.657 -1.39403e-18)
(4.58113 -17.7434 -5.69421e-18)
(3.34059 -17.5433 7.45533e-18)
(2.09425 -17.0448 -1.35715e-17)
(0.804706 -16.2012 2.99546e-17)
(-0.599232 -14.9514 -1.59305e-17)
(-2.20846 -13.2364 0)
(-4.10891 -11.0081 0)
(-6.37548 -8.25027 2.09464e-17)
(-9.04775 -4.99311 5.37395e-19)
(-12.0578 -1.29685 -2.1635e-17)
(-15.211 2.71548 2.17727e-17)
(-18.2154 6.83674 -4.38435e-17)
(-20.7377 10.8022 2.1713e-17)
(-22.4382 14.3073 2.01209e-17)
(-23.0283 17.0397 -1.63177e-18)
(-22.3017 18.7411 -1.97169e-17)
(-20.1862 19.2499 -5.9433e-20)
(-16.8561 18.5857 5.88212e-20)
(-12.7476 16.9698 -1.20482e-19)
(-8.41705 14.7511 0)
(-4.3449 12.2942 5.39047e-18)
(-0.836141 9.88339 -8.73797e-18)
(2.00583 7.66487 3.32192e-18)
(4.21021 5.67515 0)
(5.85663 3.88677 4.47324e-19)
(7.03738 2.26092 -4.74824e-19)
(7.8348 0.779786 0)
(8.29219 -0.562756 0)
(8.41763 -1.74547 1.87537e-18)
(8.19853 -2.7145 -1.89143e-18)
(7.61561 -3.41649 1.30011e-19)
(6.68753 -3.82868 0)
(5.51203 -3.98719 -1.32684e-18)
(4.25859 -3.99048 2.38281e-19)
(3.10464 -3.95746 1.1608e-18)
(2.15909 -3.96876 8.13905e-20)
(1.43233 -4.03903 -8.05095e-20)
(0.865524 -4.13495 0)
(0.384088 -4.20913 2.27306e-19)
(-0.0639698 -4.22227 -3.66688e-19)
(-0.497039 -4.15095 1.28168e-19)
(-0.906663 -3.98953 -2.80355e-20)
(-1.26972 -3.75067 -1.35921e-19)
(-1.55978 -3.46208 2.00958e-20)
(-1.74558 -3.14511 2.30557e-19)
(-1.81701 -2.82646 -9.58784e-20)
(-1.77852 -2.53235 0)
(-1.64399 -2.27545 0)
(-1.43782 -2.06013 -1.13117e-20)
(-1.18533 -1.87727 -9.47319e-21)
(-0.909515 -1.71242 0)
(-0.629569 -1.55155 1.1356e-19)
(-0.355791 -1.37929 -1.10855e-19)
(-0.0898848 -1.18323 -2.14314e-19)
(0.172767 -0.955998 -1.39287e-20)
(0.440338 -0.694897 1.19313e-19)
(0.721686 -0.401515 -1.94952e-19)
(1.02447 -0.0799625 1.90334e-19)
(1.35342 0.263414 4.20503e-20)
(1.71007 0.620233 1.88506e-19)
(2.09362 0.982566 -1.8077e-19)
(2.50129 1.34281 -2.39054e-19)
(2.9288 1.69334 3.12427e-19)
(3.37108 2.02667 -3.05398e-19)
(3.82301 2.33553 3.56358e-19)
(4.28028 2.61277 -4.47015e-19)
(4.73795 2.85294 9.18383e-19)
(5.20484 3.0463 5.12322e-20)
(5.6223 3.23947 5.54401e-20)
(9.82943 -5.58002 1.61909e-17)
(25.126 -9.67291 1.00837e-20)
(26.4145 -12.0822 -1.77602e-17)
(25.8672 -8.97578 3.22058e-17)
(25.6595 -10.1422 -1.4357e-17)
(26.7402 -12.3586 5.30447e-18)
(27.5021 -14.986 -4.65908e-18)
(27.0359 -16.9893 -1.21905e-18)
(25.3421 -17.9776 -7.17417e-18)
(22.7887 -18.118 6.63407e-18)
(19.6733 -17.6562 -1.34749e-17)
(16.2665 -16.7997 1.34562e-17)
(12.8961 -15.7756 -1.83736e-17)
(9.88247 -14.7743 1.86562e-17)
(7.44197 -13.8676 -1.02427e-19)
(5.63277 -12.993 -1.01103e-19)
(4.39713 -12.0685 -4.4146e-17)
(3.61869 -11.039 4.49536e-17)
(3.19453 -9.95268 1.76611e-19)
(3.10829 -8.94419 -5.69748e-19)
(3.36097 -8.14531 -4.0765e-17)
(3.86171 -7.5666 4.03555e-17)
(4.42652 -7.06288 0)
(4.84702 -6.47282 4.53253e-19)
(5.01494 -5.70638 0)
(4.91509 -4.76633 0)
(4.63239 -3.732 3.603e-19)
(4.27147 -2.72652 2.29047e-17)
(3.91376 -1.86301 -2.34906e-17)
(3.59659 -1.20298 -1.8054e-17)
(3.30347 -0.764529 1.83534e-17)
(2.99657 -0.532544 -1.30596e-19)
(2.65456 -0.46998 1.32663e-19)
(2.27985 -0.545884 0)
(1.89357 -0.737386 2.91722e-19)
(1.52486 -1.02227 0)
(1.19922 -1.39138 0)
(0.938115 -1.84698 1.96884e-19)
(0.768555 -2.38486 0)
(0.71073 -3.00606 0)
(0.769521 -3.7097 -3.58497e-18)
(0.927957 -4.46142 3.43365e-18)
(1.13404 -5.19198 0)
(1.30938 -5.81844 0)
(1.38087 -6.27862 0)
(1.31039 -6.55604 1.42864e-19)
(1.09938 -6.67622 -8.1649e-20)
(0.77478 -6.68406 -1.40494e-18)
(0.374848 -6.62242 1.46816e-18)
(-0.0600136 -6.52131 -1.10938e-18)
(-0.493332 -6.39583 1.21132e-18)
(-0.895413 -6.2492 -9.0179e-20)
(-1.2432 -6.07892 -5.28741e-20)
(-1.51934 -5.88252 0)
(-1.71152 -5.66007 0)
(-1.81298 -5.41407 3.52528e-19)
(-1.82184 -5.15229 -3.57468e-20)
(-1.746 -4.88729 -3.56573e-19)
(-1.59761 -4.62833 2.7142e-19)
(-1.39044 -4.37833 -2.9313e-19)
(-1.1399 -4.13807 -3.92526e-19)
(-0.857839 -3.90377 5.31116e-20)
(-0.551355 -3.66711 6.01506e-19)
(-0.224862 -3.41988 -2.83387e-19)
(0.119819 -3.15512 -1.66875e-20)
(0.482693 -2.86725 -7.9521e-22)
(0.864325 -2.55243 -1.33414e-19)
(1.26483 -2.20894 2.33355e-19)
(1.68327 -1.83721 -1.00542e-19)
(2.11737 -1.4398 9.66961e-21)
(2.56332 -1.02111 -3.61344e-21)
(3.01601 -0.586971 5.55952e-21)
(3.46975 -0.144534 0)
(3.91862 0.29787 -2.57211e-20)
(4.35703 0.731029 0)
(4.78014 1.14518 2.37554e-19)
(5.18411 1.53028 5.99524e-20)
(5.56679 1.87772 -2.81283e-19)
(5.92847 2.17316 3.03058e-19)
(6.25437 2.45624 1.51449e-19)
(9.01531 -5.06956 1.78362e-17)
(8.98028 -6.73987 -2.68184e-17)
(-7.48018 1.10969 -4.16372e-19)
(-25.9378 9.48312 -2.63582e-17)
(-37.5145 15.7837 2.69657e-17)
(-43.0443 19.5096 -2.68602e-17)
(-42.6003 20.3772 5.39682e-17)
(-36.791 18.6328 -2.70768e-17)
(-27.3465 15.3268 2.70216e-17)
(-16.6151 11.8622 -2.70582e-17)
(-6.57324 9.13531 0)
(1.83453 7.17644 -1.02398e-19)
(8.72669 5.42565 3.56687e-19)
(14.7663 3.2656 0)
(20.5124 0.448817 0)
(25.9783 -2.79261 0)
(30.5522 -5.90198 0)
(33.3005 -8.20819 -1.53062e-19)
(33.5346 -9.2528 0)
(31.2659 -8.99161 1.47126e-17)
(27.2048 -7.7725 -1.38666e-17)
(22.3074 -6.11145 -2.43592e-17)
(17.3608 -4.43914 2.52776e-17)
(12.8163 -3.00695 2.14439e-17)
(8.88385 -1.91158 -2.23638e-17)
(5.64124 -1.15976 1.92643e-17)
(3.09633 -0.719254 -1.9898e-17)
(1.20388 -0.540556 1.69842e-17)
(-0.123919 -0.575427 -1.43888e-18)
(-0.991669 -0.780161 -1.57468e-17)
(-1.50188 -1.11715 0)
(-1.74486 -1.54934 -2.19438e-19)
(-1.7998 -2.04316 -2.1052e-19)
(-1.7287 -2.56324 0)
(-1.5833 -3.07972 -2.92675e-19)
(-1.404 -3.56844 0)
(-1.22022 -4.01323 0)
(-1.05318 -4.40582 -6.63931e-18)
(-0.916383 -4.74628 1.20816e-17)
(-0.817991 -5.04311 -5.77534e-18)
(-0.765494 -5.30967 -4.43023e-18)
(-0.7641 -5.56065 4.56238e-18)
(-0.813382 -5.80741 9.97847e-20)
(-0.904181 -6.054 0)
(-1.01976 -6.29554 -2.90475e-18)
(-1.14231 -6.51922 2.59747e-18)
(-1.25944 -6.7084 0)
(-1.36552 -6.84807 0)
(-1.45834 -6.92909 1.48174e-18)
(-1.53575 -6.94943 -1.66283e-18)
(-1.59432 -6.9127 -1.34176e-18)
(-1.62975 -6.82568 1.24585e-18)
(-1.63737 -6.69635 9.50124e-19)
(-1.61252 -6.53272 -1.66684e-18)
(-1.55079 -6.34233 7.69932e-19)
(-1.44818 -6.13227 1.4322e-19)
(-1.30147 -5.90916 0)
(-1.10908 -5.67873 -5.5734e-20)
(-0.871876 -5.44462 3.28527e-19)
(-0.591845 -5.20864 -6.55875e-19)
(-0.271986 -4.97053 3.17788e-19)
(0.0836652 -4.72773 0)
(0.47148 -4.47652 2.32367e-20)
(0.887865 -4.21255 0)
(1.32896 -3.93142 1.66929e-20)
(1.79046 -3.62916 1.27426e-20)
(2.26741 -3.3027 2.08169e-20)
(2.75405 -2.95012 1.79419e-19)
(3.24371 -2.57097 -1.62145e-19)
(3.72889 -2.1664 9.25997e-21)
(4.20141 -1.73932 6.92874e-20)
(4.65283 -1.29441 -7.03799e-20)
(5.07506 -0.838123 -2.15808e-20)
(5.46089 -0.378611 2.0975e-20)
(5.80466 0.0745349 -1.42602e-19)
(6.10266 0.510652 1.01917e-19)
(6.3535 0.918504 2.35796e-19)
(6.55839 1.28755 -2.28486e-19)
(6.71876 1.60299 8.29542e-20)
(6.85367 1.89569 -9.32886e-20)
(-13.4931 4.58547 -5.47446e-17)
(-26.1613 4.21138 -7.93521e-17)
(-18.7221 -1.64235 1.59692e-16)
(-6.80699 -13.1623 -1.56148e-16)
(3.49466 -19.6153 7.78269e-17)
(12.0203 -24.5603 3.80387e-19)
(20.3886 -28.7762 -6.09316e-17)
(29.7964 -33.0111 1.16087e-16)
(39.3826 -37.0801 -8.7154e-18)
(46.0121 -39.2515 -4.71925e-17)
(46.0728 -37.5701 1.76879e-20)
(38.394 -31.6608 2.52759e-17)
(25.5205 -23.3111 -2.57558e-17)
(11.9175 -15.2309 1.4605e-17)
(1.05669 -9.4112 -1.49078e-17)
(-5.98729 -6.36165 -7.06156e-18)
(-9.87929 -5.54135 7.19984e-18)
(-11.7823 -6.05296 1.54141e-19)
(-12.6335 -7.13461 0)
(-12.9834 -8.28317 -1.31057e-18)
(-13.0992 -9.21264 1.25971e-18)
(-13.0932 -9.8193 1.29811e-19)
(-12.961 -10.1187 2.47876e-18)
(-12.6598 -10.1811 -2.62208e-18)
(-12.1607 -10.0789 2.22959e-19)
(-11.4691 -9.86581 0)
(-10.6275 -9.57795 -5.95051e-20)
(-9.69213 -9.23555 7.78617e-20)
(-8.72339 -8.85681 -4.78077e-19)
(-7.76865 -8.45965 5.14178e-19)
(-6.86069 -8.06424 -1.05414e-18)
(-6.01729 -7.68774 1.27982e-18)
(-5.24925 -7.34654 1.84074e-19)
(-4.55752 -7.05041 2.5971e-18)
(-3.94095 -6.80428 -5.40823e-18)
(-3.39561 -6.6086 2.85138e-18)
(-2.91567 -6.46062 3.02862e-18)
(-2.49421 -6.35525 -3.11051e-18)
(-2.12384 -6.28588 7.53124e-20)
(-1.79753 -6.24513 6.8037e-20)
(-1.50962 -6.22514 -1.20938e-19)
(-1.25654 -6.21783 2.68695e-18)
(-1.03708 -6.21534 -2.74257e-19)
(-0.851751 -6.2108 -2.51821e-18)
(-0.701557 -6.19912 2.31406e-18)
(-0.586498 -6.17715 -2.15014e-18)
(-0.504397 -6.14313 0)
(-0.450281 -6.09593 -1.69847e-18)
(-0.416438 -6.03463 1.70833e-18)
(-0.393137 -5.95843 -1.20193e-18)
(-0.369754 -5.86689 2.1772e-19)
(-0.335921 -5.76003 1.29813e-19)
(-0.282361 -5.63833 1.19312e-19)
(-0.201315 -5.50274 1.08937e-19)
(-0.0866512 -5.35458 7.52506e-19)
(0.0661975 -5.19545 -4.63258e-20)
(0.260335 -5.0271 0)
(0.497479 -4.85113 4.49234e-19)
(0.778016 -4.66871 -3.40857e-19)
(1.10108 -4.48035 0)
(1.4646 -4.28581 2.33884e-19)
(1.86537 -4.08404 -1.96872e-19)
(2.29913 -3.87332 0)
(2.76057 -3.65149 5.95039e-21)
(3.24329 -3.41611 0)
(3.73981 -3.16477 1.08777e-19)
(4.24144 -2.89523 -2.29742e-19)
(4.73838 -2.6058 8.72334e-20)
(5.21986 -2.29555 -1.29866e-20)
(5.67443 -1.9646 -9.25307e-21)
(6.09045 -1.61441 -1.91389e-20)
(6.45688 -1.24805 1.95178e-20)
(6.76417 -0.87029 -1.69325e-20)
(7.00523 -0.487685 -2.07033e-20)
(7.17622 -0.108322 4.03238e-20)
(7.27707 0.258533 2.15222e-20)
(7.31172 0.602997 2.94404e-19)
(7.28798 0.915197 4.82377e-20)
(7.21652 1.18392 -3.332e-19)
(7.12893 1.43147 -9.04739e-20)
(-25.748 11.6268 0)
(-41.7467 19.1498 1.31939e-19)
(-26.5204 9.48561 -5.67994e-19)
(-6.86789 -0.584011 -4.3828e-17)
(3.71476 -7.20749 8.78983e-17)
(10.961 -10.7114 -8.58797e-17)
(17.7591 -13.3433 4.23072e-17)
(25.5221 -16.295 0)
(34.4982 -20.0727 -1.06067e-19)
(43.902 -24.5123 -3.33225e-17)
(51.8205 -28.653 3.40139e-17)
(55.6097 -30.9144 2.87301e-17)
(53.1721 -29.9475 -5.56983e-17)
(44.5844 -25.7954 3.41703e-18)
(32.7085 -20.291 3.90176e-18)
(21.6013 -15.6668 1.93683e-17)
(13.9441 -13.0769 1.92871e-19)
(9.93348 -12.3651 -1.09644e-17)
(8.24423 -12.7879 1.10602e-17)
(7.4217 -13.5936 7.17992e-20)
(6.56944 -14.2654 5.8736e-20)
(5.38774 -14.554 -4.78613e-20)
(3.97383 -14.436 -4.62422e-18)
(2.57675 -14.0167 9.5132e-19)
(1.39353 -13.4277 3.83232e-18)
(0.493892 -12.7641 1.09992e-20)
(-0.145223 -12.0812 -2.08693e-18)
(-0.588504 -11.402 3.88805e-18)
(-0.895166 -10.7368 -2.97724e-18)
(-1.10234 -10.0989 1.27359e-18)
(-1.23398 -9.49517 0)
(-1.30514 -8.93124 -5.31749e-19)
(-1.32558 -8.41114 6.26556e-19)
(-1.30267 -7.93757 -9.91031e-20)
(-1.24406 -7.51142 -6.31049e-19)
(-1.15643 -7.13152 6.82134e-19)
(-1.04568 -6.79498 6.38516e-20)
(-0.917173 -6.4976 0)
(-0.775782 -6.23434 4.35897e-20)
(-0.625927 -5.99968 1.23848e-18)
(-0.47158 -5.78802 -1.33519e-18)
(-0.316192 -5.59394 2.37354e-20)
(-0.162574 -5.41249 -2.31692e-20)
(-0.0127722 -5.23934 0)
(0.131999 -5.07098 0)
(0.271357 -4.90475 -1.06135e-18)
(0.405758 -4.73881 1.14043e-18)
(0.536533 -4.5721 8.37455e-20)
(0.665921 -4.40418 8.70012e-19)
(0.797024 -4.2351 -1.68662e-18)
(0.933655 -4.06528 7.54377e-19)
(1.08011 -3.89533 0)
(1.24092 -3.72602 -5.69862e-19)
(1.4206 -3.55813 5.41875e-19)
(1.62338 -3.39239 0)
(1.85304 -3.22947 -3.55268e-19)
(2.11263 -3.0699 3.21505e-19)
(2.40426 -2.91399 -1.99365e-19)
(2.72896 -2.76184 1.88883e-19)
(3.08647 -2.61324 0)
(3.47521 -2.46764 -1.74408e-20)
(3.89211 -2.32414 -1.39741e-20)
(4.33265 -2.18153 -9.0155e-21)
(4.79076 -2.03832 -2.84781e-20)
(5.25884 -1.89282 3.07589e-20)
(5.72782 -1.74311 0)
(6.18717 -1.5872 8.28918e-22)
(6.62504 -1.42324 0)
(7.02856 -1.24962 0)
(7.38439 -1.06512 -1.68823e-19)
(7.67958 -0.869239 1.64549e-19)
(7.90274 -0.662475 1.64378e-19)
(8.04544 -0.446526 4.24132e-20)
(8.10346 -0.224359 -1.90155e-19)
(8.07764 -0.000107992 -2.93622e-19)
(7.97421 0.221152 2.60832e-19)
(7.80461 0.433685 -3.39502e-20)
(7.58484 0.631163 -3.51828e-19)
(7.33531 0.808356 8.04593e-19)
(7.08853 0.976242 -2.72288e-19)
(-14.5289 7.79054 1.49466e-16)
(-45.0682 35.4464 -1.10715e-16)
(-61.0966 41.2755 -9.43595e-17)
(-42.4226 44.8917 9.67422e-17)
(-14.44 37.5934 5.04926e-19)
(10.8693 32.473 4.70634e-19)
(29.1397 29.0376 0)
(40.1379 26.9875 5.93119e-17)
(44.6833 25.7525 -6.05278e-17)
(44.0968 24.6255 0)
(39.6651 23.2209 -4.03365e-17)
(32.1793 21.6795 7.52324e-17)
(22.0804 20.5415 -6.36858e-18)
(10.1307 20.3255 -5.00923e-17)
(-2.1708 21.0628 2.24311e-17)
(-13.0513 22.3044 2.48863e-19)
(-21.2537 23.4304 -1.27482e-19)
(-26.2369 23.7921 0)
(-27.9183 22.9426 3.1616e-18)
(-26.6579 20.8256 -3.1074e-18)
(-23.3394 17.7665 -2.97378e-20)
(-19.1422 14.303 -1.20167e-18)
(-15.0526 10.9289 1.15772e-18)
(-11.5621 7.9124 -2.12647e-18)
(-8.75597 5.31474 2.14441e-18)
(-6.54646 3.10708 -1.09779e-20)
(-4.8162 1.23778 -2.01425e-18)
(-3.46579 -0.320424 2.41413e-19)
(-2.4092 -1.58182 3.41249e-18)
(-1.57601 -2.57411 -2.97152e-19)
(-0.915061 -3.32315 -1.35244e-18)
(-0.388528 -3.85917 -8.692e-19)
(0.0319993 -4.21516 8.55917e-19)
(0.368897 -4.42584 0)
(0.640688 -4.52551 -2.26392e-20)
(0.863434 -4.54551 -2.35297e-20)
(1.05138 -4.51212 0)
(1.21703 -4.44509 -3.57179e-19)
(1.3709 -4.35717 3.83476e-19)
(1.52101 -4.2546 2.44179e-20)
(1.67243 -4.13838 0)
(1.82702 -4.00597 -2.36694e-20)
(1.9836 -3.85332 -1.36453e-19)
(2.13861 -3.67667 1.75428e-19)
(2.28739 -3.47422 0)
(2.42573 -3.24709 1.70813e-19)
(2.55131 -2.99947 -2.42074e-19)
(2.66455 -2.73795 0)
(2.76873 -2.47031 0)
(2.86943 -2.20415 3.23137e-20)
(2.97348 -1.94587 2.93692e-20)
(3.08796 -1.70015 0)
(3.21932 -1.46994 -1.16227e-19)
(3.37296 -1.2568 1.37914e-19)
(3.55304 -1.06131 7.41724e-20)
(3.76242 -0.883466 -2.79254e-20)
(4.00276 -0.722979 -4.26042e-20)
(4.27452 -0.579408 -2.59068e-20)
(4.57695 -0.452258 -2.43245e-20)
(4.90806 -0.340983 3.97497e-20)
(5.26457 -0.244975 -1.83947e-21)
(5.64184 -0.163536 0)
(6.03387 -0.0958525 0)
(6.43324 -0.040958 1.60984e-19)
(6.83114 0.00229499 -1.84065e-19)
(7.21745 0.03528 0)
(7.58086 0.0596248 2.6136e-20)
(7.90906 0.0772513 0)
(8.1891 0.0903845 1.69169e-19)
(8.40813 0.101494 -1.65068e-19)
(8.55455 0.11317 4.91692e-20)
(8.61958 0.127961 3.70643e-19)
(8.59894 0.148208 -3.29319e-19)
(8.49404 0.175916 4.9762e-20)
(8.31233 0.212642 0)
(8.06676 0.259326 0)
(7.77467 0.31597 0)
(7.45668 0.381359 -4.66804e-19)
(7.13634 0.455367 -7.09993e-20)
(6.84051 0.537644 8.4732e-19)
(19.181 -9.38443 -6.63554e-17)
(33.0746 -16.2592 -9.78407e-17)
(27.9654 -14.9599 9.99027e-17)
(16.0288 -10.7116 -9.55392e-17)
(7.48273 -7.02663 9.80719e-17)
(-0.825737 -4.32495 4.37554e-19)
(-10.8727 -2.58327 4.14895e-19)
(-23.5198 -1.40218 0)
(-38.1916 -0.816965 -3.2867e-20)
(-52.3181 -1.07187 0)
(-61.8284 -2.53375 2.54953e-19)
(-63.1681 -5.47424 2.37764e-17)
(-55.986 -9.90487 -2.4088e-17)
(-43.7593 -15.3228 -9.76251e-18)
(-31.2788 -20.5468 9.76868e-18)
(-21.7231 -24.224 -2.89774e-18)
(-15.8178 -25.6531 3.16788e-18)
(-12.6842 -25.1622 0)
(-11.0426 -23.6389 0)
(-9.96554 -21.8198 0)
(-9.02305 -20.0854 -3.49807e-18)
(-8.07626 -18.5721 7.3099e-18)
(-7.09959 -17.3156 1.10054e-19)
(-6.08592 -16.2774 -8.11297e-18)
(-5.0206 -15.3727 4.20867e-18)
(-3.90493 -14.5418 0)
(-2.75597 -13.7344 9.94625e-20)
(-1.60523 -12.914 0)
(-0.494253 -12.0603 -3.28268e-18)
(0.532261 -11.1546 3.22848e-18)
(1.43176 -10.1835 -5.63191e-20)
(2.17066 -9.1456 0)
(2.7302 -8.05356 2.01097e-18)
(3.1109 -6.93612 -3.77351e-18)
(3.33321 -5.83523 1.77347e-18)
(3.43358 -4.79971 -1.26332e-18)
(3.45725 -3.87678 2.36688e-18)
(3.44991 -3.10382 -1.10175e-18)
(3.45024 -2.50183 0)
(3.48488 -2.07173 0)
(3.56654 -1.79437 0)
(3.69496 -1.63454 6.2268e-19)
(3.85944 -1.54828 -1.7566e-18)
(4.04206 -1.49144 1.11795e-18)
(4.22201 -1.42755 0)
(4.38062 -1.33272 -7.63416e-19)
(4.50596 -1.19683 7.52202e-19)
(4.59527 -1.02129 5.53555e-19)
(4.65483 -0.815004 -1.28662e-19)
(4.69693 -0.589749 -6.14693e-20)
(4.73595 -0.356588 -4.73675e-20)
(4.78502 -0.12419 -3.58281e-19)
(4.85414 0.101326 0)
(4.94979 0.315727 0)
(5.07538 0.515853 -2.36749e-19)
(5.23214 0.699078 2.81796e-19)
(5.41974 0.863087 0)
(5.63671 1.00587 0)
(5.88057 1.12576 2.18542e-20)
(6.14782 1.22151 2.06967e-20)
(6.43383 1.29223 0)
(6.73284 1.33746 0)
(7.03792 1.35711 -3.87579e-20)
(7.341 1.35149 -3.78807e-20)
(7.63297 1.32134 2.8308e-19)
(7.90385 1.26787 -5.04249e-19)
(8.14301 1.19284 -2.64986e-20)
(8.33949 1.09863 4.84417e-19)
(8.48251 0.98838 -5.0745e-19)
(8.56243 0.866017 4.64405e-19)
(8.5722 0.736323 -7.86583e-20)
(8.509 0.604877 -2.23953e-19)
(8.37554 0.477912 4.56506e-19)
(8.18025 0.362022 2.78497e-20)
(7.9362 0.263685 -9.08754e-19)
(7.65927 0.188587 5.11981e-19)
(7.36652 0.140794 0)
(7.07531 0.122356 1.16405e-19)
(6.80339 0.134107 0)
(6.56871 0.167734 -4.78747e-19)
(0.733334 -1.62886 0)
(24.0335 -10.228 8.48278e-20)
(60.1487 -26.684 -7.80514e-20)
(86.7097 -38.1971 2.06469e-17)
(93.8291 -43.4259 -4.31142e-17)
(85.8113 -42.5846 2.14827e-17)
(68.2241 -37.7727 -4.18553e-19)
(47.1035 -31.0327 0)
(27.1828 -23.9124 0)
(11.0927 -17.323 0)
(-0.344896 -11.6557 -2.55646e-19)
(-7.4338 -7.03921 -1.89612e-19)
(-11.1083 -3.55547 0)
(-12.6468 -1.22806 -3.49775e-20)
(-13.2931 0.109992 1.19856e-19)
(-13.7962 0.78339 -1.43912e-17)
(-14.2584 1.12502 1.43672e-17)
(-14.4538 1.3459 7.7355e-20)
(-14.1789 1.51239 0)
(-13.3433 1.67001 -6.06201e-20)
(-11.9721 1.82468 4.30551e-21)
(-10.1522 1.97679 -1.33432e-18)
(-7.99275 2.12909 1.27853e-18)
(-5.58515 2.29632 6.17092e-20)
(-3.02004 2.45615 -8.48362e-20)
(-0.410525 2.55637 3.95902e-23)
(2.15284 2.60378 -2.61002e-18)
(4.58847 2.61164 2.5074e-18)
(6.81791 2.58735 3.36451e-20)
(8.7674 2.54795 8.77211e-20)