/*--------------------------------*- C++ -*----------------------------------*\
| =========                 |                                                 |
| \\      /  F ield         | OpenFOAM: The Open Source CFD Toolbox           |
|  \\    /   O peration     | Version:  2012                                  |
|   \\  /    A nd           | Website:  www.openfoam.com                      |
|    \\/     M anipulation  |                                                 |
\*---------------------------------------------------------------------------*/
FoamFile
{
    version     2.0;
    format      ascii;
    class       volVectorField;
    location    "0.4";
    object      U;
}
// * * * * * * * * * * * * * * * * * * * * * * * * * * * * * * * * * * * * * //

dimensions      [0 1 -1 0 0 0 0];


internalField   nonuniform List<vector> 
42400
(
(4.63154 -4.42477 -4.90027e-17)
(6.34869 -9.11608 -7.66139e-17)
(0.47084 -7.96855 7.82975e-17)
(-11.1584 -4.68701 0)
(-20.1896 -2.29147 0)
(-23.7415 -3.22622 2.60815e-19)
(-23.1291 -5.97322 0)
(-21.1222 -8.30674 -2.54947e-19)
(-19.453 -9.27207 0)
(-18.4561 -8.92864 -2.53057e-19)
(-17.8914 -7.73923 -2.50899e-19)
(-17.4368 -6.14172 2.46978e-19)
(-16.8211 -4.44523 7.42801e-17)
(-15.8273 -2.91395 -7.57067e-17)
(-14.2113 -1.85281 2.21245e-19)
(-11.7812 -1.51903 0)
(-8.45033 -2.02336 0)
(-4.35759 -3.1789 0)
(0.0457648 -4.40888 0)
(4.05068 -4.87895 0)
(6.95227 -3.83232 0)
(8.38187 -0.915095 1.48187e-19)
(8.40244 3.6995 8.09002e-18)
(7.42449 9.38527 -5.90157e-18)
(6.09724 15.3018 -2.17265e-18)
(4.9481 20.679 -1.96927e-21)
(4.21221 25.0024 -2.72858e-20)
(3.91406 28.0656 9.52655e-20)
(3.94489 29.8955 0)
(4.16441 30.6631 0)
(4.45365 30.589 1.27763e-17)
(4.72073 29.8928 -1.29086e-17)
(4.87871 28.7782 1.68552e-19)
(4.84877 27.4211 -9.97407e-18)
(4.60282 25.944 9.91247e-18)
(4.1909 24.4005 0)
(3.71353 22.798 0)
(3.26867 21.1418 0)
(2.92074 19.4635 0)
(2.69805 17.8191 -1.24676e-18)
(2.60261 16.2687 1.25144e-18)
(2.6222 14.8559 6.61208e-19)
(2.74216 13.5955 6.43779e-19)
(2.95458 12.4712 -3.17029e-18)
(3.26237 11.4425 1.78848e-18)
(3.67735 10.4559 -2.43592e-18)
(4.21617 9.45494 5.14242e-18)
(4.89092 8.39648 -2.57064e-18)
(5.71901 7.25956 -1.5107e-19)
(6.69374 6.02823 2.73165e-18)
(7.7938 4.69031 -5.31809e-18)
(8.99938 3.27439 -1.11959e-19)
(10.2601 1.83501 2.65302e-18)
(11.4829 0.444593 -2.19977e-19)
(12.5252 -0.805878 0)
(13.2042 -1.81888 0)
(13.3413 -2.52638 0)
(12.8322 -2.92577 1.09711e-19)
(11.7031 -3.06548 9.15726e-20)
(10.1285 -2.9995 0)
(8.39784 -2.79076 1.15977e-18)
(6.82939 -2.54796 -1.19955e-18)
(5.66859 -2.40582 -7.96523e-19)
(5.02154 -2.45304 7.82106e-19)
(4.84987 -2.69228 0)
(5.02098 -3.06155 0)
(5.37887 -3.47942 -3.55247e-19)
(5.79607 -3.8767 3.47326e-19)
(6.19145 -4.2073 3.83941e-20)
(6.52389 -4.44651 0)
(6.77853 -4.58573 0)
(6.95561 -4.62807 1.44495e-20)
(7.06403 -4.58533 7.71614e-21)
(7.11793 -4.47566 0)
(7.13451 -4.32133 -3.05798e-21)
(7.13188 -4.14632 -7.81175e-20)
(7.1269 -3.97347 7.5775e-20)
(7.13335 -3.82114 2.42303e-20)
(7.15619 -3.70476 1.13924e-19)
(7.16648 -3.6631 1.25905e-19)
(-13.0276 9.90505 0)
(-35.6302 33.2199 6.45257e-18)
(-52.1248 42.834 -6.65168e-18)
(-43.9626 37.5573 0)
(-19.5638 15.3391 0)
(10.3463 -10.254 1.88845e-17)
(34.8782 -30.1856 -1.959e-17)
(50.0126 -41.1754 2.57442e-19)
(57.1645 -44.586 0)
(59.3852 -43.1239 2.56763e-19)
(58.8919 -38.7781 2.55052e-19)
(56.608 -32.473 -1.61806e-17)
(52.8081 -24.5371 2.26443e-18)
(47.6606 -15.2301 1.476e-17)
(41.4353 -4.9975 1.04162e-17)
(34.5583 5.48296 -1.06176e-17)
(27.5727 15.333 0)
(21.0067 23.6028 1.95947e-20)
(15.2168 29.5478 0)
(10.284 32.9269 0)
(6.07472 34.0971 0)
(2.376 33.8666 1.26384e-18)
(-0.967817 33.0362 1.22674e-18)
(-3.98712 32.1359 -3.13602e-18)
(-6.57758 31.4543 0)
(-8.62908 31.0021 2.5632e-19)
(-10.0688 30.6971 2.75369e-20)
(-10.889 30.4311 -9.61238e-20)
(-11.1462 30.1141 3.75116e-18)
(-10.9418 29.6908 -3.79337e-18)
(-10.3978 29.1393 2.98357e-19)
(-9.63551 28.463 2.51241e-19)
(-8.76091 27.6806 3.52903e-19)
(-7.85223 26.8154 -7.36673e-19)
(-6.95236 25.8864 4.48836e-19)
(-6.07284 24.902 -1.95151e-19)
(-5.20997 23.8619 0)
(-4.36097 22.7637 -7.00903e-20)
(-3.53152 21.6113 0)
(-2.73308 20.4166 -1.06364e-19)
(-1.97568 19.1968 -9.09405e-20)
(-1.26102 17.9688 -1.04931e-20)
(-0.578895 16.744 4.96606e-20)
(0.0917737 15.5256 -7.98038e-20)
(0.780709 14.3067 -2.04227e-20)
(1.51936 13.0717 -1.24024e-19)
(2.34506 11.8047 1.38184e-19)
(3.28039 10.484 1.83225e-18)
(4.3406 9.08735 -1.82041e-18)
(5.52054 7.59351 0)
(6.77192 5.99678 1.38475e-19)
(8.0403 4.34108 2.7387e-19)
(9.22782 2.69564 1.31657e-18)
(10.1688 1.15811 -1.33245e-18)
(10.6432 -0.129499 -1.43878e-19)
(10.4355 -1.0109 1.62635e-18)
(9.48155 -1.41063 -1.79891e-18)
(8.01148 -1.44748 -1.10071e-19)
(6.48828 -1.40592 -9.18823e-20)
(5.32445 -1.52465 9.17553e-19)
(4.6636 -1.83858 -9.03773e-19)
(4.42712 -2.24189 5.82119e-20)
(4.48182 -2.6358 3.94512e-20)
(4.7267 -2.98786 0)
(5.0917 -3.30699 -5.50208e-19)
(5.52124 -3.60645 5.44155e-20)
(5.97045 -3.88791 6.07063e-19)
(6.40573 -4.1412 0)
(6.80291 -4.34975 -8.59517e-20)
(7.14467 -4.4967 3.87221e-20)
(7.41948 -4.56984 1.89582e-19)
(7.62214 -4.5648 -1.99104e-19)
(7.75433 -4.48604 -7.20132e-20)
(7.82441 -4.34614 6.79699e-20)
(7.84602 -4.16378 3.6498e-21)
(7.83599 -3.96087 -5.94488e-20)
(7.81185 -3.75909 3.95176e-20)
(7.78981 -3.57618 -2.42249e-20)
(7.77818 -3.42988 1.37901e-19)
(7.75057 -3.37213 -1.08909e-19)
(-8.80325 5.92409 -2.92519e-17)
(-14.9683 12.0577 6.75145e-21)
(-11.4002 11.8311 1.8359e-19)
(-1.4529 7.64361 1.6986e-20)
(9.84868 1.90843 0)
(20.7983 -5.52609 -7.06923e-17)
(30.5651 -14.5588 1.38059e-16)
(38.7372 -24.7547 -6.72792e-17)
(44.7138 -35.2123 5.7679e-17)
(48.0598 -44.9846 -4.99464e-18)
(48.9167 -53.6178 -5.49967e-17)
(47.908 -61.1166 -2.53315e-19)
(45.6473 -67.4851 -2.25769e-19)
(42.4024 -72.385 3.14754e-17)
(37.9902 -75.233 -3.21241e-17)
(31.8668 -75.3151 -2.10276e-19)
(23.5788 -71.9765 -2.00671e-18)
(13.1983 -65.0058 1.04876e-17)
(1.60618 -55.0912 -8.43849e-18)
(-9.68491 -43.9187 -2.442e-19)
(-19.1723 -33.5012 2.75856e-19)
(-25.9461 -25.1178 2.89086e-19)
(-29.8646 -18.9901 0)
(-31.4017 -14.6249 -1.40908e-20)
(-31.2757 -11.3046 -2.85848e-17)
(-30.1607 -8.53227 5.53492e-17)
(-28.5234 -6.0105 -2.72184e-17)
(-26.639 -3.60094 2.24702e-17)
(-24.6439 -1.26183 -2.27421e-17)
(-22.6243 1.00039 -1.80398e-17)
(-20.6215 3.15398 3.30412e-17)
(-18.6548 5.15738 -2.28779e-18)
(-16.7384 6.97937 -1.34275e-17)
(-14.8769 8.59882 0)
(-13.0667 10 0)
(-11.3034 11.1773 -1.08074e-19)
(-9.58451 12.1342 0)
(-7.91196 12.8797 -3.36656e-20)
(-6.29122 13.4285 4.13771e-18)
(-4.72886 13.7989 -7.83416e-18)
(-3.23005 14.0111 3.72805e-18)
(-1.79656 14.0847 0)
(-0.425243 14.0358 0)
(0.888211 13.8729 2.7961e-18)
(2.15426 13.5986 -2.66897e-18)
(3.38052 13.2064 -1.68639e-19)
(4.57455 12.6757 0)
(5.74814 11.9957 0)
(6.89428 11.1437 2.681e-18)
(8.01944 10.12 -2.66791e-18)
(9.10589 8.94819 -1.38015e-19)
(10.0819 7.6506 0)
(10.8474 6.28474 -1.86797e-18)
(11.2843 4.95486 1.64277e-18)
(11.2928 3.77588 -1.76646e-18)
(10.8623 2.83529 1.94633e-18)
(10.0981 2.16642 -8.42361e-19)
(9.17078 1.74848 1.56884e-18)
(8.24625 1.50496 -1.16311e-18)
(7.44263 1.32038 4.2918e-20)
(6.82133 1.08828 4.58548e-19)
(6.40196 0.751382 4.86412e-19)
(6.19238 0.299214 -5.17375e-19)
(6.18507 -0.244534 0)
(6.35156 -0.843632 4.50019e-19)
(6.6487 -1.45919 -5.64345e-21)
(7.02726 -2.0527 -6.13877e-19)
(7.43887 -2.58925 0)
(7.84057 -3.04068 9.58343e-20)
(8.19768 -3.38768 2.54176e-19)
(8.48554 -3.6208 -2.53247e-19)
(8.69038 -3.74061 0)
(8.80925 -3.75706 0)
(8.84884 -3.6879 -5.44686e-21)
(8.82339 -3.55644 -5.91958e-22)
(8.75187 -3.38888 -4.65643e-20)
(8.65524 -3.21129 7.4508e-20)
(8.55394 -3.04628 0)
(8.46217 -2.91508 -2.70123e-20)
(8.35858 -2.86938 -1.33924e-19)
(8.3557 -6.21266 5.70548e-17)
(29.9944 -17.7489 -8.29744e-17)
(44.3091 -32.1781 4.13206e-17)
(52.0946 -37.3639 3.53044e-17)
(49.1272 -39.0639 -3.64382e-17)
(39.8764 -35.8748 0)
(25.5008 -28.6129 4.98326e-17)
(8.60768 -18.655 -5.05727e-17)
(-7.58132 -8.37749 3.90376e-17)
(-20.7886 -0.0674159 -3.99196e-17)
(-30.322 5.161 3.07929e-17)
(-36.439 7.29828 -5.94948e-17)
(-39.602 6.76638 5.22276e-17)
(-40.2308 4.01491 -4.58141e-17)
(-38.8577 -0.397652 3.98842e-17)
(-36.2672 -5.70515 -1.87195e-17)
(-33.3329 -10.9778 -1.38438e-17)
(-30.8423 -15.2784 2.60222e-17)
(-29.2377 -17.9731 -1.23231e-17)
(-28.4062 -19.0022 2.48143e-19)
(-27.8388 -18.7835 -2.46384e-19)
(-26.9897 -17.881 -7.10069e-18)
(-25.5625 -16.7334 6.89691e-18)
(-23.5579 -15.5476 2.80996e-19)
(-21.1683 -14.3643 0)
(-18.6206 -13.1447 2.4715e-19)
(-16.1041 -11.8258 0)
(-13.7539 -10.3491 2.22907e-18)
(-11.6414 -8.68225 -4.15314e-19)
(-9.81093 -6.82664 -1.48204e-18)
(-8.26797 -4.81365 -1.31338e-18)
(-6.96779 -2.68733 1.08254e-18)
(-5.8495 -0.496296 2.81869e-19)
(-4.84851 1.70282 5.85597e-20)
(-3.9058 3.84947 -1.21386e-18)
(-2.97345 5.89696 1.19201e-18)
(-2.01428 7.81346 0)
(-1.00524 9.57706 1.57019e-18)
(0.0641792 11.1762 -1.47279e-18)
(1.19506 12.6098 1.70059e-19)
(2.3814 13.8826 -6.0133e-20)
(3.61296 15.0036 0)
(4.87474 15.9809 0)
(6.14294 16.8268 0)
(7.39855 17.5575 -1.14994e-19)
(8.61872 18.1798 2.82429e-18)
(9.77025 18.67 -2.65053e-18)
(10.8243 19.0167 0)
(11.7331 19.1727 0)
(12.4381 19.1039 2.56426e-18)
(12.894 18.7764 -2.43681e-18)
(13.0497 18.1436 1.80078e-18)
(12.8511 17.1861 -1.4293e-18)
(12.2832 15.9423 1.04052e-19)
(11.3778 14.4935 -2.3155e-19)
(10.2126 12.948 3.42797e-19)
(8.90166 11.4109 6.12661e-19)
(7.58962 9.94679 -5.85438e-19)
(6.43908 8.56397 0)
(5.59267 7.2404 2.48506e-20)
(5.13938 5.96633 5.10012e-19)
(5.06036 4.72525 -2.41543e-19)
(5.27146 3.52495 -3.04605e-19)
(5.69748 2.40712 -8.70839e-20)
(6.26403 1.39524 1.00615e-19)
(6.90213 0.494988 3.65206e-19)
(7.55556 -0.292239 -2.50137e-19)
(8.17908 -0.965308 -5.17129e-20)
(8.73604 -1.52244 -3.61807e-19)
(9.19788 -1.96181 3.51957e-19)
(9.54522 -2.28363 -6.27871e-20)
(9.76929 -2.49234 -1.75003e-19)
(9.87261 -2.59802 1.49983e-19)
(9.86807 -2.61636 0)
(9.77642 -2.56752 2.90502e-20)
(9.62318 -2.47453 2.82883e-20)
(9.4356 -2.36151 -1.86602e-19)
(9.24016 -2.25135 9.34571e-20)
(9.05858 -2.1659 -1.28723e-19)
(8.87948 -2.16165 1.25736e-19)
(-5.56999 4.46921 2.31053e-17)
(-27.5063 21.3913 0)
(-56.616 39.781 0)
(-73.3794 50.6079 2.68943e-19)
(-73.8382 48.1717 0)
(-59.9415 34.9323 0)
(-37.2985 14.1796 0)
(-15.5526 -7.27002 -4.05609e-19)
(-2.62947 -22.238 0)
(1.35327 -28.494 -2.57585e-20)
(1.49368 -28.9581 4.33872e-17)
(1.52895 -27.1417 -8.10967e-17)
(2.32491 -24.7659 3.80665e-17)
(3.79575 -22.4415 0)
(5.76937 -20.4908 -1.59337e-19)
(8.03529 -19.0092 1.48925e-19)
(10.3389 -17.9257 0)
(12.4401 -17.0765 3.00928e-18)
(14.1831 -16.2827 -2.52692e-18)
(15.5424 -15.4371 2.82293e-18)
(16.5831 -14.5075 -3.24361e-18)
(17.3849 -13.5172 9.27207e-21)
(17.9817 -12.5135 0)
(18.3647 -11.5296 8.57589e-18)
(18.4897 -10.5689 -8.82546e-18)
(18.3167 -9.6171 9.26205e-18)
(17.8214 -8.66954 -9.41175e-18)
(17.0145 -7.73176 -8.98636e-18)
(15.9514 -6.80769 9.03603e-18)
(14.7318 -5.88402 0)
(13.4626 -4.95169 7.11658e-18)
(12.2487 -4.01882 -7.1854e-18)
(11.1687 -3.1045 -7.29996e-20)
(10.2736 -2.22037 4.41185e-18)
(9.58331 -1.37485 -4.50388e-18)
(9.09333 -0.575154 6.20078e-20)
(8.78281 0.172265 -3.24916e-20)
(8.62442 0.8656 1.22713e-18)
(8.58928 1.50614 -1.23249e-18)
(8.64825 2.0965 -1.24839e-19)
(8.77311 2.63773 4.90564e-19)
(8.93327 3.12943 -4.1369e-19)
(9.09275 3.57694 0)
(9.20364 3.9892 8.33529e-20)
(9.20862 4.36907 -1.13475e-18)
(9.05033 4.72884 2.86997e-18)
(8.69151 5.08877 -2.92735e-18)
(8.09297 5.46055 1.39257e-18)
(7.23085 5.83693 0)
(6.12763 6.22309 8.25902e-20)
(4.85113 6.59249 -1.20962e-18)
(3.51037 6.91288 1.15972e-18)
(2.23136 7.15065 -5.3163e-20)
(1.13062 7.26957 -5.99534e-19)
(0.301049 7.24982 4.51675e-19)
(-0.199262 7.09301 -2.24351e-19)
(-0.348505 6.81668 -1.06675e-20)
(-0.153898 6.44552 1.93457e-19)
(0.354938 6.00099 -1.63531e-20)
(1.12593 5.49435 -8.80746e-21)
(2.09117 4.92926 0)
(3.18281 4.33302 7.76198e-21)
(4.3362 3.73912 -2.69986e-19)
(5.48251 3.14542 2.45372e-19)
(6.57266 2.55206 7.80634e-20)
(7.57632 1.96887 0)
(8.47081 1.40664 4.30102e-19)
(9.23727 0.876459 -3.7695e-19)
(9.86012 0.390388 -4.70291e-20)
(10.328 -0.0394802 -2.79617e-20)
(10.636 -0.403037 4.99713e-20)
(10.7883 -0.694397 9.91871e-21)
(10.7991 -0.913327 -4.37223e-20)
(10.6918 -1.06514 3.95044e-20)
(10.4955 -1.15944 8.9116e-21)
(10.2411 -1.20892 0)
(9.95903 -1.22881 1.45225e-19)
(9.67722 -1.23642 -1.17356e-19)
(9.41985 -1.25016 0)
(9.18717 -1.32221 1.55373e-19)
(7.26243 -5.39244 3.32964e-19)
(15.3814 -12.5151 3.95874e-17)
(13.8052 -9.49897 -3.76493e-17)
(0.866937 -1.35976 7.45131e-17)
(-19.4717 11.7203 -3.70039e-17)
(-46.9462 27.2901 -4.99426e-19)
(-75.595 42.4693 -2.88267e-17)
(-93.1547 50.4312 3.00482e-17)
(-87.4035 43.8171 5.85284e-19)
(-62.0742 25.5699 6.12905e-19)
(-34.1925 7.20101 1.81806e-17)
(-14.8049 -4.52366 1.31272e-17)
(-3.97895 -10.3811 -3.23217e-17)
(1.82081 -12.8929 2.51568e-17)
(5.11551 -13.748 -4.66467e-17)
(7.14303 -13.7809 2.2633e-17)
(8.45407 -13.3992 0)
(9.2939 -12.7971 0)
(9.77394 -12.0611 -1.25573e-17)
(9.95085 -11.2325 2.52886e-18)
(9.86458 -10.3437 9.68271e-18)
(9.56223 -9.43391 -4.65921e-18)
(9.12745 -8.54507 7.03428e-18)
(8.68285 -7.72142 -2.26817e-18)
(8.3038 -6.98036 2.02286e-18)
(7.96629 -6.27137 1.79704e-18)
(7.62344 -5.54534 -3.80088e-18)
(7.29955 -4.83733 2.01958e-20)
(7.0766 -4.22115 -4.47093e-20)
(7.00989 -3.7281 1.23785e-19)
(7.07385 -3.33374 0)
(7.16997 -2.97196 7.42108e-18)
(7.16746 -2.56106 -1.45954e-17)
(6.95193 -2.05141 7.16588e-18)
(6.46991 -1.45117 0)
(5.74631 -0.808432 -4.8309e-18)
(4.86667 -0.195324 4.86777e-18)
(3.9414 0.319216 0)
(3.06647 0.689322 0)
(2.298 0.901827 -2.27892e-18)
(1.65117 0.972014 2.32224e-18)
(1.11106 0.932449 -3.46372e-20)
(0.648226 0.821552 0)
(0.231492 0.67463 1.48816e-18)
(-0.162242 0.526661 -1.2047e-19)
(-0.548999 0.411184 -1.63179e-18)
(-0.931753 0.355068 -6.74362e-20)
(-1.30871 0.384335 1.55383e-19)
(-1.66328 0.518505 0)
(-1.97294 0.755577 -1.28035e-18)
(-2.20849 1.08542 2.17932e-18)
(-2.33417 1.49043 -1.04764e-18)
(-2.31517 1.94362 -1.00052e-19)
(-2.12413 2.41438 -5.13889e-19)
(-1.74513 2.87285 2.08371e-19)
(-1.17551 3.29371 4.24164e-19)
(-0.426452 3.65672 -1.3728e-19)
(0.479903 3.94591 0)
(1.51276 4.15456 0)
(2.63644 4.28053 -9.99132e-21)
(3.80593 4.319 -7.25633e-21)
(4.97248 4.27389 0)
(6.10201 4.1505 1.52551e-19)
(7.16501 3.956 -1.44687e-19)
(8.13549 3.7003 -2.89406e-19)
(8.99291 3.39388 -3.19226e-20)
(9.72184 3.04783 2.11731e-19)
(10.3108 2.67407 -2.18493e-19)
(10.7521 2.28573 2.13447e-19)
(11.0423 1.89698 2.12687e-20)
(11.1835 1.52182 3.9464e-20)
(11.1859 1.17205 -4.6471e-20)
(11.0692 0.855608 4.73912e-20)
(10.8609 0.576351 -5.50152e-20)
(10.5915 0.335238 1.03961e-19)
(10.2895 0.131208 -1.09613e-19)
(9.9795 -0.0394457 1.46627e-19)
(9.68281 -0.18451 -2.96245e-19)
(9.4183 -0.315899 -8.45835e-21)
(9.19475 -0.472787 -8.36643e-21)
(7.28951 -4.18012 -2.02589e-18)
(13.1697 -3.5298 -1.72398e-19)
(1.16489 8.04797 1.21569e-17)
(-23.1484 32.4482 -3.09218e-17)
(-46.3655 54.7794 1.91267e-17)
(-54.0783 67.702 -3.34221e-17)
(-43.903 69.6699 -6.99587e-18)
(-21.9883 64.1341 4.18049e-17)
(2.58659 55.185 -5.20318e-17)
(21.5923 46.7021 5.15631e-17)
(32.0451 40.6866 -5.31609e-17)
(36.1301 36.5173 5.40658e-17)
(36.8105 33.3152 -4.78185e-17)
(35.8781 30.6058 4.82845e-17)
(34.2078 28.073 -4.1774e-19)
(32.1579 25.4868 -3.69662e-19)
(29.8403 22.7633 -5.94842e-17)
(27.2966 20.0273 6.05147e-17)
(24.5565 17.4175 4.77338e-19)
(21.6995 15.0434 1.6384e-19)
(18.8669 12.9189 -3.06766e-17)
(16.3026 10.9291 3.15413e-17)
(14.3135 8.88844 0)
(12.9884 6.60383 -1.70202e-19)
(12.022 4.07386 0)
(10.9823 1.71586 0)
(9.6644 0.00367685 -8.29411e-20)
(8.12635 -1.06624 2.49995e-18)
(6.55448 -1.80996 -2.43305e-18)
(5.11654 -2.47443 7.11386e-19)
(3.88959 -3.13524 -8.46348e-19)
(2.86695 -3.77144 1.58117e-19)
(1.99979 -4.34101 -1.59787e-19)
(1.24355 -4.80178 0)
(0.585518 -5.12077 -6.79085e-20)
(0.0388513 -5.28746 0)
(-0.374627 -5.31354 0)
(-0.641279 -5.22296 -5.00754e-20)
(-0.764222 -5.04307 0)
(-0.765845 -4.80234 0)
(-0.679841 -4.52372 1.79212e-18)
(-0.541497 -4.22047 -1.68612e-18)
(-0.382234 -3.89876 0)
(-0.226157 -3.55983 0)
(-0.0897741 -3.20384 0)
(0.0183585 -2.82777 -2.46007e-20)
(0.0959064 -2.42774 6.75156e-20)
(0.150022 -1.99849 3.97e-19)
(0.199834 -1.53495 -4.57129e-19)
(0.270168 -1.0341 2.48542e-19)
(0.387916 -0.496404 -2.87447e-19)
(0.579396 0.0723823 2.77864e-20)
(0.867032 0.661419 -7.96528e-21)
(1.26547 1.25573 0)
(1.78029 1.83779 0)
(2.40739 2.38948 1.29052e-19)
(3.13373 2.89436 2.24146e-20)
(3.94103 3.33978 -1.71626e-19)
(4.80141 3.71333 1.58685e-19)
(5.6851 4.00481 -1.71601e-19)
(6.56422 4.21217 -2.06477e-19)
(7.41009 4.33607 5.54754e-20)
(8.19687 4.37911 2.37049e-19)
(8.90318 4.34608 -9.81493e-20)
(9.51255 4.24271 -9.13635e-21)
(10.0137 4.07561 1.54768e-20)
(10.4006 3.85239 -2.27014e-21)
(10.6715 3.58187 1.27424e-20)
(10.828 3.27447 -1.02806e-20)
(10.8744 2.94219 6.64119e-21)
(10.8188 2.59771 -7.46471e-20)
(10.676 2.2528 8.68197e-20)
(10.4682 1.91685 0)
(10.2219 1.59673 1.19271e-20)
(9.9615 1.29777 0)
(9.70415 1.02438 -1.52064e-19)
(9.46052 0.779062 -8.11269e-21)
(9.23905 0.560491 1.50952e-19)
(9.04862 0.361713 -1.20354e-19)
(8.9003 0.16329 -4.01606e-20)
(5.00824 -4.42679 2.76051e-17)
(29.7166 -31.1882 -4.15093e-17)
(72.5525 -62.6691 2.39471e-19)
(96.2087 -92.1891 -1.87572e-17)
(90.5277 -95.9243 1.91984e-17)
(62.7136 -84.0057 4.65506e-18)
(31.9101 -67.9344 -1.74947e-17)
(10.2558 -56.2226 1.36973e-17)
(-1.71557 -50.4525 -2.15041e-17)
(-7.31404 -48.8034 2.22954e-17)
(-8.3537 -49.2722 0)
(-6.13768 -50.2782 4.8892e-19)
(-2.74637 -50.2522 -2.45502e-19)
(-0.398349 -48.5466 0)
(-0.113353 -45.4748 0)
(-1.13328 -41.7499 0)
(-1.64516 -38.1725 0)
(-0.466277 -35.3182 2.14725e-19)
(2.07076 -33.2625 0)
(4.86672 -31.4878 -2.86286e-17)
(6.98217 -29.506 2.89088e-17)
(7.68079 -27.208 4.82073e-17)
(6.31174 -23.9167 -4.94136e-17)
(3.07666 -19.0662 -3.45495e-17)
(-0.431662 -14.7477 3.56126e-17)
(-2.31702 -13.1002 -1.99065e-17)
(-2.29948 -12.9725 2.03234e-17)
(-1.67537 -12.5429 -1.08551e-17)
(-1.44659 -11.6719 2.96951e-18)
(-1.58792 -10.8201 8.16502e-18)
(-1.72555 -10.1909 0)
(-1.67738 -9.75467 5.30954e-20)
(-1.46371 -9.42079 3.36389e-20)
(-1.18518 -9.11845 0)
(-0.910888 -8.80867 6.82258e-20)
(-0.665934 -8.4723 0)
(-0.448519 -8.09866 0)
(-0.249777 -7.68463 4.50653e-19)
(-0.0615342 -7.23377 -7.03165e-19)
(0.123196 -6.75015 2.96843e-19)
(0.307928 -6.24041 1.71786e-19)
(0.493772 -5.71299 -1.66132e-19)
(0.682224 -5.17354 5.88118e-21)
(0.875598 -4.6255 0)
(1.07703 -4.07099 1.80677e-21)
(1.28999 -3.51087 1.09107e-20)
(1.51823 -2.94504 0)
(1.76589 -2.37281 0)
(2.0379 -1.79397 1.35313e-19)
(2.33986 -1.20961 -1.66134e-19)
(2.67748 -0.622572 -2.49627e-19)
(3.05568 -0.0380484 2.34133e-19)
(3.47813 0.536456 3.00276e-19)
(3.94534 1.09166 -6.00469e-19)
(4.4546 1.61733 3.07668e-19)
(4.99944 2.10305 7.01922e-20)
(5.56958 2.53897 0)
(6.15139 2.91625 -3.81401e-20)
(6.72915 3.22731 2.36803e-19)
(7.28497 3.46741 -4.89032e-19)
(7.80176 3.63421 2.42075e-19)
(8.26473 3.72767 0)
(8.6625 3.7501 1.47863e-20)
(8.98826 3.70606 0)
(9.24012 3.602 9.14218e-21)
(9.42033 3.44587 1.46841e-20)
(9.53365 3.2468 2.5385e-20)
(9.58527 3.01484 1.68039e-19)
(9.57983 2.76074 -1.44474e-19)
(9.52262 2.49539 1.78885e-20)
(9.4227 2.22881 1.42914e-19)
(9.2947 1.96892 -1.69153e-19)
(9.15648 1.72103 1.39362e-19)
(9.02302 1.48821 -1.35569e-19)
(8.9014 1.27222 1.53316e-19)
(8.79123 1.07396 -1.19667e-19)
(8.68991 0.893011 -1.37616e-19)
(8.59843 0.726868 1.33426e-19)
(8.5226 0.569343 -3.61129e-20)
(8.47347 0.41542 3.60556e-20)
(-48.6516 27.2872 7.32024e-17)
(-115.591 73.2567 9.77448e-17)
(-129.978 78.315 -1.90649e-16)
(-107.124 73.8883 1.74645e-16)
(-84.4123 63.4217 -8.41104e-17)
(-68.6505 58.7726 -2.68705e-19)
(-57.8578 57.4501 5.3551e-17)
(-47.8664 56.9772 -9.75115e-17)
(-36.5057 55.6086 1.17753e-17)
(-22.6954 51.6715 3.30297e-17)
(-6.45499 44.589 4.59872e-19)
(9.52579 36.173 -1.00213e-17)
(20.9461 29.0807 1.02012e-17)
(25.423 24.5805 -2.98914e-18)
(23.7891 22.761 3.04928e-18)
(18.363 23.0148 -6.74023e-19)
(11.543 23.716 6.86723e-19)
(5.06489 22.8487 -2.23991e-19)
(-0.794764 19.506 0)
(-6.21455 14.301 3.49286e-18)
(-10.6148 8.39743 -3.43324e-18)
(-13.2268 2.78621 -9.68472e-20)
(-14.1033 -1.88743 -1.93322e-18)
(-13.823 -5.34634 1.99442e-18)
(-12.7287 -7.80123 -2.38911e-19)
(-10.8615 -9.59365 0)
(-8.4974 -10.9295 -8.91172e-21)
(-6.18892 -11.8768 -1.11157e-19)
(-4.29466 -12.4474 -2.68418e-19)
(-2.85102 -12.6606 2.82758e-19)
(-1.7463 -12.628 -3.7892e-20)
(-0.858268 -12.4427 -1.39593e-20)
(-0.104756 -12.1648 -3.64911e-20)
(0.5526 -11.8298 5.95966e-19)
(1.13634 -11.4559 -1.27528e-18)
(1.6593 -11.0497 6.84686e-19)
(2.12915 -10.6093 7.16472e-19)
(2.54936 -10.131 -7.229e-19)
(2.92178 -9.61285 5.57562e-21)
(3.24868 -9.05656 -9.30872e-22)
(3.53324 -8.46763 -5.97983e-21)
(3.77906 -7.85406 5.01646e-19)
(3.99058 -7.22507 -4.62248e-20)
(4.17338 -6.58987 -4.61704e-19)
(4.33416 -5.9569 4.14801e-19)
(4.48053 -5.33326 -4.02133e-19)
(4.62046 -4.72452 0)
(4.76176 -4.13474 -3.7465e-19)
(4.91142 -3.56674 3.75494e-19)
(5.07501 -3.02259 -3.3948e-19)
(5.25611 -2.50404 1.56696e-20)
(5.45605 -2.01301 -2.40812e-21)
(5.67369 -1.55181 -1.49304e-21)
(5.9055 -1.12311 5.11734e-22)
(6.14592 -0.729822 3.46502e-19)
(6.388 -0.374802 -2.49287e-20)
(6.62419 -0.0604825 0)
(6.84725 0.211456 3.38796e-19)
(7.05127 0.440334 -2.60568e-19)
(7.23268 0.626507 0)
(7.39089 0.771296 2.55306e-19)
(7.52824 0.876842 -2.06973e-19)
(7.64907 0.945986 0)
(7.75805 0.982287 1.63039e-20)
(7.85813 0.990116 0)
(7.94914 0.974726 2.1832e-19)
(8.02782 0.942118 -4.42495e-19)
(8.08983 0.898591 1.94965e-19)
(8.13305 0.850015 -1.97557e-20)
(8.1601 0.801032 -1.79289e-20)
(8.17786 0.754557 1.20106e-19)
(8.19359 0.711777 -1.01181e-19)
(8.21024 0.67255 1.05754e-20)
(8.22466 0.635844 1.02037e-20)
(8.23034 0.600036 -2.49203e-20)
(8.22252 0.563041 -1.48068e-20)
(8.20236 0.522349 -1.13115e-19)
(8.17765 0.474961 -4.37485e-21)
(8.15982 0.417022 1.11605e-19)
(8.15997 0.349677 2.21715e-20)
(9.98318 -6.22339 0)
(18.4142 -10.2674 -5.37634e-20)
(24.2312 -9.63218 2.3166e-19)
(23.7515 -7.80705 8.78679e-17)
(22.8245 -5.70244 -1.76674e-16)
(20.6411 -4.63478 1.75282e-16)
(16.6052 -4.36224 -8.7726e-17)
(9.96707 -3.50959 0)
(0.0243091 -1.53176 -3.59921e-19)
(-12.7148 1.67407 7.56623e-17)
(-26.373 5.24073 -7.77543e-17)
(-38.0857 7.26557 -6.55873e-17)
(-45.0193 6.07672 1.27148e-16)
(-45.5802 1.56115 -7.83211e-18)
(-40.6854 -4.75858 -8.63622e-18)
(-35.4298 -10.462 -4.61247e-17)
(-37.1744 -12.6053 -3.06862e-19)
(-48.1252 -9.8082 2.18656e-17)
(-61.0389 -4.58758 -2.21327e-17)
(-64.5438 -1.83567 -1.16343e-19)
(-53.5301 -4.50719 -1.04542e-19)
(-33.61 -11.1192 -5.56959e-20)
(-14.5249 -17.6272 8.96931e-19)
(-1.65058 -21.3439 -1.03954e-18)
(5.18976 -22.285 8.83618e-20)
(8.21893 -21.6486 -5.10288e-20)
(9.2127 -20.3843 -6.70369e-19)
(9.1466 -18.9389 1.34765e-18)
(8.56941 -17.4696 -1.09788e-18)
(7.81973 -16.0135 4.57334e-19)
(7.10102 -14.5916 0)
(6.53269 -13.2539 -2.36706e-19)
(6.15335 -12.0725 4.33448e-19)
(5.96534 -11.0898 -1.99716e-19)
(5.94229 -10.3249 2.46987e-19)
(6.04248 -9.76361 -4.53199e-19)
(6.22186 -9.35801 2.75598e-21)
(6.43741 -9.0354 0)
(6.64808 -8.72161 6.79021e-20)
(6.821 -8.36495 -5.92658e-19)
(6.93569 -7.94272 6.52141e-19)
(6.98445 -7.4573 -3.59856e-20)
(6.97046 -6.92673 2.7397e-20)
(6.90465 -6.37524 0)
(6.80231 -5.82629 0)
(6.68037 -5.29856 3.8485e-20)
(6.5551 -4.80438 -7.01437e-20)
(6.44049 -4.34979 1.27061e-20)
(6.34714 -3.9356 1.07021e-19)
(6.28173 -3.5588 -2.4351e-19)
(6.24709 -3.21432 1.3464e-19)
(6.24281 -2.89667 0)
(6.26627 -2.60113 -1.86124e-19)
(6.31383 -2.32433 1.79953e-19)
(6.38176 -2.06453 0)
(6.46692 -1.82135 -1.96784e-19)
(6.56705 -1.59516 1.78361e-19)
(6.68056 -1.38658 -1.6395e-19)
(6.80607 -1.19606 1.50141e-19)
(6.94177 -1.0235 0)
(7.08487 -0.868213 -3.3323e-20)
(7.23122 -0.728962 -2.10598e-20)
(7.37542 -0.604151 1.00615e-19)
(7.51143 -0.492052 -2.68267e-20)
(7.63379 -0.391006 -8.64951e-20)
(7.73911 -0.299587 0)
(7.82736 -0.21671 -1.0452e-20)
(7.90181 -0.141637 0)
(7.96728 -0.0738624 0)
(8.02714 -0.0129428 7.71706e-20)
(8.08079 0.0415614 -7.52372e-20)
(8.12346 0.0899535 -6.13098e-20)
(8.14859 0.132225 -9.34509e-21)
(8.15152 0.168048 5.01066e-20)
(8.13246 0.196925 7.09954e-20)
(8.0973 0.218287 -5.91672e-20)
(8.05634 0.231367 1.0205e-20)
(8.02155 0.234873 6.77891e-20)
(8.00359 0.227172 -1.53622e-19)
(8.00843 0.208812 4.71266e-20)
(16.4016 -5.93374 4.01978e-17)
(49.5304 -19.1564 -3.01621e-17)
(69.477 -30.0093 -2.96819e-17)
(66.1606 -33.4794 3.03807e-17)
(48.329 -32.2781 -2.43258e-19)
(30.5615 -30.7906 -2.50076e-19)
(19.8218 -30.9746 0)
(16.0031 -31.7853 1.59163e-17)
(15.3404 -31.1895 -1.64547e-17)
(14.4976 -28.0024 0)
(12.2561 -22.3921 -3.65113e-18)
(9.02487 -15.2514 4.96145e-18)
(5.76167 -7.56454 -2.20414e-18)
(3.22737 -0.320135 1.75561e-18)
(1.72542 5.65753 -1.80367e-18)
(1.06755 10.009 -3.55734e-19)
(0.757336 12.9944 4.96766e-19)
(0.437389 15.3704 0)
(0.316846 17.8244 -7.15808e-18)
(0.939591 20.3233 7.08076e-18)
(2.44308 22.1754 2.00234e-19)
(4.12985 22.6381 -5.72205e-18)
(5.21387 21.5131 6.03074e-18)
(5.67615 19.1471 -4.76188e-18)
(6.07033 16.0387 4.85645e-18)
(6.85994 12.5928 4.92786e-20)
(8.1456 9.09224 -2.31988e-18)
(9.79142 5.77242 1.14909e-18)
(11.5661 2.79838 1.30027e-18)
(13.2225 0.265203 -1.10831e-18)
(14.5373 -1.77597 9.43146e-19)
(15.3178 -3.2813 2.57034e-18)
(15.4312 -4.21392 -2.68233e-18)
(14.8562 -4.59763 0)
(13.7543 -4.56021 1.02493e-19)
(12.4586 -4.32342 9.81849e-20)
(11.3311 -4.10998 0)
(10.5981 -4.01425 4.02869e-18)
(10.2793 -4.00314 -4.12069e-18)
(10.2318 -4.00847 -5.62821e-20)
(10.2706 -3.97341 0)
(10.2589 -3.86842 3.5785e-20)
(10.1336 -3.69394 1.17447e-18)
(9.89044 -3.47009 -1.167e-18)
(9.55937 -3.22423 0)
(9.1833 -2.98148 -4.14402e-19)
(8.80477 -2.7596 4.6317e-19)
(8.45856 -2.56734 0)
(8.16823 -2.40523 0)
(7.94528 -2.26771 -2.78649e-22)
(7.7903 -2.14606 1.83463e-21)
(7.69575 -2.03112 0)
(7.64953 -1.91539 2.85979e-20)
(7.63832 -1.79409 -2.38754e-20)
(7.65013 -1.66541 6.33168e-21)
(7.67552 -1.52993 1.36656e-20)
(7.70784 -1.38985 -3.78328e-20)
(7.74286 -1.24814 4.76285e-20)
(7.7781 -1.10794 1.30823e-20)
(7.81234 -0.972149 -3.10637e-20)
(7.84524 -0.843167 9.85992e-21)
(7.87727 -0.722868 0)
(7.90963 -0.612587 0)
(7.94407 -0.513145 -1.29408e-20)
(7.98233 -0.424868 8.6534e-21)
(8.02525 -0.34758 0)
(8.07166 -0.280652 4.0337e-21)
(8.1177 -0.223127 0)
(8.1572 -0.17396 2.51047e-21)
(8.18319 -0.132243 -2.44979e-21)
(8.19014 -0.0972543 6.85112e-21)
(8.17586 -0.0682697 2.41793e-21)
(8.14232 -0.0442847 -5.94805e-21)
(8.09508 -0.0239132 4.60169e-21)
(8.04187 -0.00563469 0)
(7.99096 0.0116742 0)
(7.94991 0.0281655 0)
(7.92477 0.0427101 2.36531e-20)
(7.91951 0.0536127 1.34993e-20)
(7.93445 0.058331 -6.73859e-20)
(-18.2015 7.70059 3.67134e-17)
(-65.1033 26.4286 5.29792e-17)
(-109.134 43.2191 -5.4256e-17)
(-133.395 54.9062 5.13105e-17)
(-140.418 60.5657 -5.24965e-17)
(-130.385 60.1723 -3.63134e-21)
(-99.7795 50.4786 -1.5642e-20)
(-54.3133 32.3175 0)
(-9.20144 11.5852 2.28991e-19)
(23.0479 -5.44854 0)
(39.5243 -15.8766 -5.27007e-20)
(43.8296 -20.0096 -4.02967e-17)
(40.9894 -19.6248 4.11131e-17)
(34.9309 -16.6308 3.69057e-17)
(28.1057 -12.4492 -3.74849e-17)
(21.8381 -7.95531 3.21287e-17)
(16.6855 -3.60482 -3.31723e-17)
(12.7643 0.429081 0)
(9.96979 4.12227 0)
(8.09715 7.45257 0)
(6.90158 10.3477 -1.85982e-17)
(6.16915 12.7458 3.48306e-17)
(5.76262 14.648 -2.6424e-18)
(5.60958 16.0972 -2.54825e-17)
(5.644 17.1255 1.18493e-17)
(5.78499 17.7342 0)
(5.94288 17.9073 7.44854e-20)
(6.04477 17.6458 0)
(6.04605 16.9737 -4.60307e-18)
(5.9345 15.9285 4.61799e-18)
(5.72837 14.5637 4.50303e-20)
(5.47052 12.96 0)
(5.2416 11.1959 2.22148e-18)
(5.14883 9.34494 -3.958e-18)
(5.30008 7.47861 1.81023e-18)
(5.77713 5.70414 -1.23654e-18)
(6.60083 4.14152 2.28243e-18)
(7.6769 2.82699 -1.04375e-18)
(8.81574 1.73693 0)
(9.81658 0.852516 0)
(10.5235 0.164782 0)
(10.8598 -0.338872 5.08992e-19)
(10.8334 -0.679048 -1.43445e-18)
(10.5166 -0.884347 8.89717e-19)
(10.0139 -0.988684 0)
(9.43292 -1.02714 -6.01407e-19)
(8.86604 -1.03114 5.82415e-19)
(8.38002 -1.02469 4.32734e-19)
(8.01226 -1.02258 -7.52236e-20)
(7.77194 -1.03053 -5.22342e-20)
(7.64582 -1.04724 -4.42539e-20)
(7.60717 -1.06751 -2.68582e-19)
(7.62536 -1.08521 0)
(7.67326 -1.0954 0)
(7.73121 -1.09524 -1.4022e-19)
(7.78773 -1.08397 1.5895e-19)
(7.83813 -1.06235 0)
(7.88219 -1.03198 0)
(7.92198 -0.994638 1.02073e-20)
(7.9601 -0.951949 4.5132e-21)
(7.99854 -0.90521 0)
(8.03797 -0.855408 0)
(8.07752 -0.803345 -1.63567e-20)
(8.11482 -0.749788 -1.54341e-20)
(8.14637 -0.695602 7.82403e-20)
(8.16826 -0.641821 -1.43158e-19)
(8.1772 -0.589619 -1.74681e-21)
(8.17147 -0.540144 1.27893e-19)
(8.1516 -0.494259 -1.30843e-19)
(8.12038 -0.452248 1.11176e-19)
(8.08205 -0.413652 -1.9565e-20)
(8.04124 -0.377326 -4.80651e-20)
(8.00184 -0.341758 7.82301e-20)
(7.96663 -0.305539 1.04843e-22)
(7.93749 -0.267824 -1.21771e-19)
(7.91597 -0.228646 6.45745e-20)
(7.90362 -0.189027 0)
(7.90197 -0.150799 7.05107e-21)
(7.91209 -0.115795 0)
(7.93335 -0.0883249 -2.61419e-21)
(21.1909 -7.31926 0)
(54.733 -18.6965 -1.52163e-19)
(79.7478 -23.3189 1.55432e-19)
(90.4617 -23.0606 5.37589e-17)
(77.8934 -13.3843 -1.05274e-16)
(36.6472 5.08384 5.17445e-17)
(-21.1172 27.9884 1.55753e-20)
(-73.9588 47.6822 0)
(-103.098 57.7633 0)
(-102.4 56.4193 0)
(-80.5197 47.0104 5.23328e-20)
(-52.6378 35.3211 3.79771e-19)
(-29.5069 25.5712 0)
(-14.1222 19.0101 -3.08008e-19)
(-5.3114 15.2105 -7.2829e-19)
(-1.01198 13.3691 -1.50033e-17)
(0.535081 12.7715 1.54984e-17)
(0.574169 12.8812 4.47846e-19)
(-0.120147 13.356 0)
(-1.1094 14.0194 -3.40695e-19)
(-2.16031 14.8022 -9.83379e-20)
(-3.15794 15.6766 -5.62068e-18)
(-4.05306 16.6075 7.83627e-19)
(-4.81632 17.5429 4.858e-18)
(-5.4089 18.4214 -1.08165e-19)
(-5.78504 19.1682 -1.1737e-19)
(-5.89709 19.7055 2.47074e-18)
(-5.71749 19.9846 -2.2316e-18)
(-5.2642 19.9871 -1.20006e-19)
(-4.57053 19.7059 3.96768e-20)
(-3.67569 19.1559 3.19385e-20)
(-2.5893 18.3429 1.09443e-18)
(-1.31228 17.2869 -1.10465e-18)
(0.138149 16.0336 -1.72885e-20)
(1.71242 14.651 -1.2134e-20)