/*--------------------------------*- C++ -*----------------------------------*\
| =========                 |                                                 |
| \\      /  F ield         | OpenFOAM: The Open Source CFD Toolbox           |
|  \\    /   O peration     | Version:  2012                                  |
|   \\  /    A nd           | Website:  www.openfoam.com                      |
|    \\/     M anipulation  |                                                 |
\*---------------------------------------------------------------------------*/
FoamFile
{
    version     2.0;
    format      ascii;
    class       volScalarField;
    location    "0.51";
    object      p;
}
// * * * * * * * * * * * * * * * * * * * * * * * * * * * * * * * * * * * * * //

dimensions      [0 2 -2 0 0 0 0];


internalField   nonuniform List<scalar> 
42400
(
-17882.8
-16807.4
-15476.9
-14176
-12875.9
-11644.2
-10438.4
-9293.42
-8267.94
-7376.35
-6596.11
-5900.28
-5273.2
-4710.74
-4214.09
-3783.55
-3414.3
-3093.03
-2800.58
-2518.15
-2234.76
-1949.69
-1669.85
-1403.72
-1158.34
-937.706
-743.574
-575.779
-433.086
-313.888
-216.515
-139.082
-79.3701
-34.8091
-2.62946
19.8995
35.2272
45.4856
52.1953
56.6816
59.8243
62.1542
63.9187
65.1934
66.2199
66.9981
67.2062
66.8788
66.0703
64.8236
63.1869
61.2128
58.9545
56.4639
53.7897
50.9756
48.0605
45.0779
42.0574
39.0241
36.0004
33.0056
30.0566
27.1685
24.3541
21.6244
18.9883
16.4526
14.022
11.6987
9.48294
7.37284
5.36476
3.45375
1.63363
-0.103293
-1.76713
-3.37005
-4.92356
-6.52454
13739
13279.9
12537.6
11306.9
9452.64
7445.36
5775.67
4598.16
3762.92
3125.18
2639.42
2282.48
2019.55
1814.83
1642.23
1485.73
1336.54
1194.3
1066.24
963.382
890.336
840.62
802.052
763.063
716.678
659.842
593.075
519.814
445.216
373.985
310.029
255.412
210.359
174.371
146.744
126.278
111.273
100.194
91.919
85.7359
81.1728
77.8501
75.4109
73.5236
71.7681
69.9984
68.137
66.1353
63.9862
61.6987
59.2862
56.7607
54.1322
51.4104
48.6065
45.7345
42.8109
39.8539
36.883
33.9173
30.9752
28.0738
25.2285
22.4527
19.7578
17.1532
14.6462
12.2417
9.94249
7.74925
5.66044
3.67273
1.78147
-0.018871
-1.73415
-3.37032
-4.93293
-6.42585
-7.85877
-9.29218
7913.49
7916.96
7937.62
7932.65
7834.49
7655.34
7425.41
7192.58
6966.02
6708.46
6378.43
5961.59
5476.36
4963.76
4470.98
4035.59
3673.96
3375.42
3105.99
2817.1
2465.9
2038.02
1553.35
1052.97
575.94
152.369
-190.842
-430.395
-559.001
-593.977
-567.743
-509.599
-436.948
-358.143
-278.327
-202.518
-135.418
-80.0687
-37.3217
-6.10231
15.7638
30.6451
40.5776
47.0737
51.1709
53.5317
54.6022
54.6624
53.924
52.5608
50.7182
48.5187
46.0633
43.4323
40.6882
37.8777
35.0357
32.1876
29.3532
26.5485
23.7877
21.0833
18.4468
15.8881
13.4156
11.0357
8.75299
6.57021
4.48812
2.50577
0.620633
-1.17094
-2.87331
-4.49092
-6.02777
-7.48687
-8.86928
-10.1722
-11.3969
-12.5976
-12643.7
-12323.9
-11940.6
-11512.6
-11044.7
-10569.5
-10089.1
-9597.15
-9077.45
-8508.31
-7870.56
-7159.46
-6389.33
-5585.1
-4769.18
-3956.85
-3164.5
-2421.85
-1769.72
-1241.3
-842.063
-547.727
-319.448
-126.545
44.5787
193.399
313.639
399.75
449.711
465.353
452.016
417.608
370.801
319.291
268.979
223.846
186.055
156.064
133.089
115.74
102.495
92.1088
83.5993
76.3046
69.8118
63.9094
58.5411
53.6731
49.2815
45.3356
41.7771
38.5313
35.5189
32.6665
29.9152
27.224
24.5701
21.946
19.356
16.8106
14.323
11.9065
9.57199
7.3273
5.17718
3.12381
1.1673
-0.693774
-2.46194
-4.1405
-5.73315
-7.24376
-8.67602
-10.033
-11.3169
-12.5289
-13.6676
-14.7286
-15.7165
-16.7001
-152.438
-221.759
-355.121
-547.827
-792.691
-989.442
-1112.84
-1188.09
-1239.33
-1276.05
-1304.88
-1334.48
-1373.2
-1425.96
-1493.65
-1574.09
-1661.46
-1743.1
-1800.17
-1813.95
-1773.32
-1678.13
-1538.14
-1368.29
-1182.56
-993.081
-808.546
-634.91
-475.746
-333.325
-209.497
-105.767
-22.6845
40.7768
87.1565
119.653
141.006
152.969
156.694
153.422
144.774
132.562
118.471
103.871
89.7676
76.8751
65.6152
56.1082
47.8506
40.9662
35.2112
30.2861
25.9386
21.9867
18.3301
14.9361
11.8067
8.94853
6.35388
3.9986
1.84849
-0.132137
-1.97419
-3.70217
-5.33371
-6.88045
-8.34972
-9.7461
-11.0727
-12.3317
-13.5255
-14.6558
-15.7243
-16.7322
-17.68
-18.5674
-19.3921
-20.1499
-20.8499
-21.5672
12330.7
12056.2
11675.5
11165.1
10466.2
9764.64
9129.8
8550.57
7991.17
7429.88
6857.78
6275.09
5699.27
5157.06
4660.19
4201.53
3772.58
3370.55
2991.1
2627.3
2276.7
1943.91
1637.25
1365.53
1133.95
943.434
790.926
671.669
580.044
510.387
457.728
417.011
383.686
354.431
327.01
300.122
273.18
246.075
219.015
192.385
166.609
142.032
118.918
97.4911
77.9885
60.6454
45.6066
32.8643
22.7205
15.0195
9.04908
4.39009
0.673879
-2.35754
-4.83769
-6.8403
-8.43509
-9.73536
-10.8695
-11.941
-13.011
-14.101
-15.2064
-16.3087
-17.3872
-18.4243
-19.4071
-20.3285
-21.1857
-21.9796
-22.7132
-23.3904
-24.0151
-24.5907
-25.1196
-25.6029
-26.0396
-26.4277
-26.7801
-27.1718
5146.93
5062.64
4905.76
4633.91
4217.78
3801.47
3485.55
3301.96
3227.2
3216.45
3228.58
3236.07
3225.12
3189.51
3126.19
3033.15
2909.4
2755.08
2571.46
2363.33
2140.78
1914.75
1693.88
1484.53
1292.24
1120.96
971.919
844.237
735.88
644.058
565.27
496.691
436.147
381.814
332.48
287.439
246.355
209.259
175.782
145.771
119.051
95.4146
74.6851
56.7581
41.6179
29.3168
19.9048
13.3274
9.39266
7.29253
6.59818
6.37054
5.80154
4.37622
1.88385
-1.58584
-5.72999
-10.1579
-14.5064
-18.5024
-22.0071
-24.8978
-27.2128
-29.0085
-30.3639
-31.3643
-32.0882
-32.6024
-32.9607
-33.205
-33.3672
-33.4702
-33.5306
-33.5595
-33.5639
-33.5476
-33.5112
-33.4546
-33.3921
-33.3928
-9882.3
-9573.21
-9231.12
-8885.34
-8523.04
-8121.15
-7636.94
-7056.53
-6396.76
-5687.15
-4957.18
-4230.16
-3525.74
-2866.3
-2279.81
-1791.97
-1413.62
-1137.58
-949.127
-832.127
-767.16
-731.887
-706.449
-675.56
-631.186
-573.184
-505.237
-432.169
-358.519
-288.203
-224.255
-168.68
-122.481
-85.7771
-57.9822
-37.9754
-24.388
-16.0193
-11.3105
-8.89432
-8.14117
-8.37947
-9.10884
-10.032
-11.0093
-12.0203
-13.1314
-14.4606
-16.1332
-18.249
-20.8213
-23.8049
-27.0705
-30.5428
-34.2618
-37.9745
-41.482
-44.5673
-47.0501
-48.8475
-49.9767
-50.5213
-50.6022
-50.3441
-49.8556
-49.2223
-48.5064
-47.7507
-46.9835
-46.2233
-45.4811
-44.7638
-44.0745
-43.4143
-42.7826
-42.1774
-41.595
-41.0331
-40.5031
-40.0632
811.617
588.187
333.126
70.7192
-245.399
-599.96
-994.651
-1422.52
-1874.36
-2339.06
-2798.29
-3224.45
-3582.7
-3838.7
-3969.09
-3970.71
-3859.56
-3661.4
-3403.96
-3115.39
-2823.75
-2551.89
-2305.79
-2071.17
-1826.05
-1558.31
-1273.52
-990.987
-735.062
-524.396
-366.657
-258.262
-189.216
-148.421
-126.513
-116.504
-113.462
-113.99
-115.872
-118.023
-119.345
-119.517
-118.587
-116.725
-114.189
-111.245
-108.148
-105.123
-102.359
-99.9881
-98.071
-96.5751
-95.3723
-94.2249
-92.8382
-91.2277
-89.3249
-87.1287
-84.6978
-82.1088
-79.4422
-76.775
-74.1717
-71.679
-69.3224
-67.1092
-65.0348
-63.0892
-61.2611
-59.5403
-57.9186
-56.3896
-54.9475
-53.5873
-52.3038
-51.0917
-49.9449
-48.8593
-47.8433
-46.9422
-7039.28
-6418.46
-5593.56
-4765.16
-3933.38
-3151.48
-2411.21
-1737.05
-1154.37
-672.655
-288.7
11.1469
248.29
446.975
625.551
789.227
929.741
1031.63
1078.62
1061.64
982.106
850.959
685.815
506.763
330.848
167.27
17.4082
-120.156
-244.789
-353.407
-440.855
-503.274
-540.101
-553.863
-548.901
-530.095
-502
-468.446
-432.408
-396.012
-360.777
-327.763
-297.337
-269.766
-245.156
-223.474
-204.6
-188.357
-174.529
-162.867
-153.088
-144.878
-137.908
-131.861
-126.433
-121.453
-116.793
-112.374
-108.153
-104.101
-100.202
-96.454
-92.8673
-89.4536
-86.2174
-83.1535
-80.2504
-77.4947
-74.8749
-72.383
-70.0139
-67.7648
-65.6334
-63.6174
-61.7137
-59.9178
-58.2243
-56.629
-55.1378
-53.7823
10125.6
9986.07
9799.79
9505.43
9092.77
8579.86
7969.1
7249.28
6409.98
5448.55
4382.7
3262.69
2168.14
1183.04
368.646
-248.486
-673.853
-929.369
-1045.93
-1056.68
-993.569
-885.492
-759.173
-637.68
-537.062
-464.898
-421.484
-402.281
-400.56
-409.161
-421.494
-432.557
-439.628
-441.964
-439.844
-433.776
-424.209
-411.541
-396.181
-378.603
-359.322
-338.728
-317.504
-296.158
-275.188
-255.127
-236.287
-218.746
-202.692
-188.257
-175.487
-164.36
-154.864
-146.72
-139.798
-133.885
-128.802
-124.369
-120.401
-116.731
-113.23
-109.813
-106.442
-103.107
-99.8116
-96.5597
-93.3558
-90.2057
-87.1182
-84.1053
-81.1808
-78.3589
-75.6518
-73.069
-70.616
-68.2949
-66.104
-64.0416
-62.1124
-60.3343
45.7179
166.667
377.868
647.306
956.833
1189.14
1283.12
1203.69
945.76
530.26
-1.88672
-585.881
-1140.06
-1586.52
-1877.36
-2007.57
-2009.78
-1936.05
-1836.72
-1746.09
-1678.62
-1634.05
-1602.68
-1570.05
-1521.72
-1447.74
-1344.82
-1216.81
-1073.28
-928
-795.866
-686.949
-604.009
-544.098
-501.693
-471.185
-447.844
-428.006
-409.304
-390.468
-371.022
-350.979
-330.623
-310.336
-290.464
-271.193
-252.775
-235.541
-219.631
-205.166
-192.227
-180.825
-170.818
-162.247
-154.982
-148.842
-143.627
-139.121
-135.105
-131.377
-127.775
-124.194
-120.582
-116.927
-113.238
-109.533
-105.83
-102.149
-98.5102
-94.9347
-91.4456
-88.0651
-84.813
-81.7047
-78.7508
-75.9564
-73.3218
-70.8457
-68.53
-66.3789
-20504.9
-19313.9
-17810.3
-16275
-14650.3
-13044.3
-11480.5
-9993.72
-8605.83
-7322.75
-6140.99
-5059.46
-4084.72
-3230.09
-2510.02
-1935.13
-1508.66
-1224.55
-1066.46
-1005.77
-1002.03
-1014.61
-1019.75
-1018.21
-1021.34
-1031.82
-1040.85
-1036.33
-1010.54
-963.059
-899.617
-829.126
-759.911
-696.135
-638.747
-587.254
-540.956
-499.467
-462.266
-428.855
-398.676
-371.395
-346.581
-323.86
-302.976
-283.767
-266.137
-250.02
-235.357
-222.089
-210.16
-199.507
-190.053
-181.714
-174.377
-167.902
-162.142
-156.904
-152.039
-147.407
-142.907
-138.474
-134.076
-129.702
-125.351
-121.029
-116.743
-112.505
-108.329
-104.236
-100.247
-96.3863
-92.6749
-89.131
-85.7668
-82.5885
-79.5967
-76.7892
-74.1646
-71.7141
19154
18827.9
18365.8
17599.9
16401
14929.4
13322.7
11722.3
10243
8929.98
7761.78
6688.23
5671.25
4696.7
3764.93
2881.17
2051.49
1283.17
584.85
-33.7564
-557.179
-961.045
-1224.76
-1353.53
-1379.32
-1340.32
-1264.26
-1169.36
-1068.25
-970.244
-880.418
-801.54
-734.576
-678.801
-632.883
-595.109
-563.237
-534.896
-508.07
-481.17
-453.36
-424.553
-395.597
-367.616
-341.651
-318.353
-297.876
-279.966
-264.18
-250.081
-237.343
-225.745
-215.146
-205.447
-196.566
-188.421
-180.925
-173.985
-167.511
-161.419
-155.638
-150.11
-144.791
-139.645
-134.647
-129.776
-125.018
-120.364
-115.813
-111.371
-107.052
-102.875
-98.8603
-95.0267
-91.3878
-87.951
-84.7175
-81.6848
-78.8489
-76.1907
-4276.85
-4067.43
-3698.38
-3172.31
-2537.83
-1879.83
-1238.11
-632.247
-73.5936
421.693
832.951
1146.78
1360.98
1477.61
1500.5
1437.96
1297.59
1084.98
808.313
488.584
168.496
-89.6367
-231.237
-249.899
-196.278
-138.285
-115.842
-132.442
-174.374
-226.808
-281.185
-333.673
-381.969
-423.73
-456.162
-476.916
-484.74
-479.42
-462.109
-435.298
-402.197
-366.732
-332.805
-303.763
-281.329
-265.508
-255.21
-248.717
-244.174
-240.076
-235.477
-229.954
-223.457
-216.156
-208.319
-200.228
-192.138
-184.242
-176.673
-169.506
-162.764
-156.437
-150.492
-144.886
-139.569
-134.495
-129.617
-124.896
-120.301
-115.818
-111.447
-107.202
-103.104
-99.1743
-95.4325
-91.8901
-88.5517
-85.4165
-82.4792
-79.7159
-12004.6
-11597.9
-11095.9
-10613
-10124.4
-9665.06
-9228.04
-8831.36
-8493.32
-8213.49
-7977.38
-7753.14
-7498.58
-7190.85
-6836.78
-6452.64
-6046.61
-5623.88
-5189
-4742.21
-4279.56
-3800.68
-3318.87
-2861.29
-2457.33
-2122.6
-1854.35
-1638.84
-1460.75
-1308.37
-1174.96
-1057.92
-957.007
-872.126
-801.967
-743.91
-694.83
-651.918
-613.12
-577.198
-543.414
-511.575
-481.942
-454.703
-429.585
-406.043
-383.707
-362.391
-341.943
-322.272
-303.344
-285.172
-267.812
-251.35
-235.889
-221.526
-208.338
-196.364
-185.599
-175.987
-167.433
-159.811
-152.982
-146.809
-141.168
-135.949
-131.057
-126.409
-121.942
-117.61
-113.393
-109.291
-105.317
-101.49
-97.8285
-94.3469
-91.0525
-87.9469
-85.0253
-82.2635
13535.2
13428.1
13260.7
12953.3
12507.1
11970.3
11364.3
10685.9
9924.22
9084.23
8205.7
7344.66
6541.19
5800.51
5102.12
4423.15
3753.33
3093.27
2447.76
1825.39
1239.95
706.412
235.888
-167.385
-504.119
-774.563
-975.697
-1103.92
-1160.8
-1156.69
-1109.31
-1038.39
-960.227
-885.375
-818.766
-761.498
-712.51
-670.033
-632.007
-596.738
-563.268
-531.294
-500.764
-471.738
-444.264
-418.25
-393.525
-369.943
-347.398
-325.825
-305.21
-285.576
-266.983
-249.514
-233.268
-218.334
-204.778
-192.622
-181.835
-172.328
-163.965
-156.581
-150.006
-144.088
-138.702
-133.753
-129.161
-124.853
-120.757
-116.816
-112.99
-109.261
-105.629
-102.103
-98.6999
-95.4355
-92.3213
-89.3633
-86.5605
-83.8932
825.919
893.171
964.262
982.857
945.328
821.134
642.422
467.565
352.139
327.882
392.58
522.658
689.544
872.808
1060.19
1242.46
1412.64
1565.7
1697.12
1800.03
1864.72
1879.57
1833.39
1721.3
1549.72
1335.76
1099.78
859.689
629.34
419.101
236.079
83.6011
-38.9863
-135.281
-209.975
-267.404
-310.208
-340.057
-358.249
-366.752
-367.581
-362.519
-353.151
-340.816
-326.589
-311.376
-295.958
-280.936
-266.704
-253.462
-241.256
-230.022
-219.634
-209.945
-200.83
-192.204
-184.026
-176.288
-169
-162.172
-155.801
-149.87
-144.347
-139.202
-134.411
-129.952
-125.796
-121.899
-118.208
-114.669
-111.244
-107.91
-104.657
-101.487
-98.4084
-95.4343
-92.5755
-89.8386
-87.2243
-84.7184
-14343.2
-13857
-13245.1
-12612.5
-11899.9
-11162
-10379.7
-9568.47
-8785.84
-8088.45
-7492.68
-6977.63
-6512.39
-6076.84
-5661.04
-5259.13
-4866.43
-4479.47
-4096.62
-3716.1
-3336.53
-2957.82
-2583.23
-2218.91
-1872.58
-1552.9
-1266.7
-1017.72
-806.366
-630.522
-486.849
-371.902
-282.431
-215.232
-167.019
-134.448
-114.23
-103.273
-99.5838
-101.266
-106.664
-114.487
-123.69
-133.438
-143.069
-152.106
-160.229
-167.233
-173.03
-177.608
-180.988
-183.196
-184.241
-184.115
-182.812
-180.347
-176.785
-172.256
-166.951
-161.105
-154.976
-148.804
-142.795
-137.102
-131.821
-126.995
-122.617
-118.641
-115.002
-111.632
-108.474
-105.479
-102.606
-99.8308
-97.137
-94.5212
-91.9855
-89.533
-87.1645
-84.8722
1718.98
1774.81
1844.06
1902.48
1966.24
2049.03
2158.23
2267.12
2331.63
2322.88
2249.88
2144.23
2023.32
1881.13
1706.66
1499.7
1269.98
1029.89
790.925
564.036
359.026
183.81
43.707
-60.8018
-132.497
-176.846
-200.655
-209.765
-208.827
-201.225
-189.641
-176.151
-162.232
-148.945
-137.2
-127.455
-119.735
-114.117
-110.541
-108.795
-108.594
-109.646
-111.69
-114.512
-117.951
-121.876
-126.171
-130.716
-135.377
-140.006
-144.437
-148.489
-151.966
-154.671
-156.42
-157.065
-156.522
-154.792
-151.972
-148.248
-143.869
-139.11
-134.231
-129.449
-124.915
-120.718
-116.887
-113.41
-110.251
-107.364
-104.699
-102.202
-99.8202
-97.5128
-95.2531
-93.0301
-90.8431
-88.6958
-86.5916
-84.5305
2462.99
2567.56
2759.96
2969.57
3126.64
3200.39
3219.88
3216.26
3205
3179.34
3111.83
2972.23
2749.28
2455.55
2110.93
1735.48
1342.69
943.104
547.732
168.94
-181.208
-493.803
-764.972
-991.715
-1173.79
-1311.25
-1400.77
-1438.45
-1421.9
-1352.35
-1238.39
-1095.4
-940.685
-788.738
-649.052
-526.365
-422.086
-335.831
-266.339
-211.578
-169.648
-138.457
-115.982
-99.7477
-88.4752
-81.0856
-76.6522
-74.3847
-73.6059
-73.7607
-74.4249
-75.3022
-76.1981
-76.978
-77.5289
-77.7385
-77.487
-76.6498
-75.1142
-72.7924
-69.6481
-65.7608
-61.2621
-56.2002
-50.6774
-44.7969
-38.6536
-32.3299
-25.9458
-19.7066
-13.8913
-8.76732
-4.49627
-1.09833
1.52246
3.51815
5.04299
6.22553
7.15984
7.91319
10916.5
10616.3
10210.8
9629.84
8769.31
7732.07
6551.22
5261.01
3962.72
2835.23
2025.53
1521.02
1187.7
920.12
699.012
535.601
426.753
359.246
322.032
308.001
309.596
318.437
330.766
344.09
355.226
360.366
357.689
347.291
329.031
301.182
262.063
212.692
157.219
101.178
49.4662
5.24843
-30.1129
-56.6314
-75.2105
-87.0635
-93.3272
-95.3742
-94.3294
-91.5273
-87.8604
-83.9352
-80.1507
-76.7297
-73.7641
-71.2681
-69.2195
-67.5731
-66.2613
-65.1929
-64.2559
-63.3262
-62.2773
-60.9901
-59.3603
-57.3051
-54.765
-51.7198
-48.2111
-44.3688
-40.2095
-35.7982
-31.2159
-26.5552
-21.9246
-17.4517
-13.2709
-9.49855
-6.20719
-3.41482
-1.08877
0.830218
2.40974
3.71338
4.79376
5.69502
-12990.3
-12535.7
-12006.9
-11424.6
-10730.3
-9905.13
-8946.89
-7879.31
-6732.91
-5549.84
-4405.12
-3383.78
-2532.2
-1840.72
-1273.69
-805.325
-425.924
-132.944
75.5653
203.836
260.4
257.025
207.401
124.643
22.0864
-88.4196
-197.159
-295.609
-375.524
-430.279
-458.152
-462.752
-448.975
-420.789
-381.995
-336.403
-288.214
-241.424
-199.335
-163.896
-135.658
-114.123
-98.2355
-86.7902
-78.6619
-72.9074
-68.7871
-65.7476
-63.3913
-61.446
-59.7356
-58.1532
-56.6373
-55.1515
-53.6696
-52.1657
-50.6092
-48.9636
-47.1886
-45.244
-43.0947
-40.7151
-38.0965
-35.2502
-32.2013
-28.9879
-25.6626
-22.2972
-18.9553
-15.711
-12.6338
-9.78043
-7.18792
-4.87217
-2.83007
-1.04636
0.501715
1.83882
2.98785
3.9758
-3844.38
-3824.5
-3829.72
-3856.44
-3903.14
-3895.82
-3777.66
-3522.9
-3153.76
-2732.66
-2335.44
-2027.14
-1845.53
-1793.31
-1837.75
-1926.79
-2010.9
-2058.58
-2060.34
-2023.12
-1960.85
-1884.02
-1800.36
-1711.79
-1618.73
-1520.03
-1413.25
-1295.63
-1164.78
-1019.42
-860.17
-692.172
-528.145
-383.888
-269.458
-186.451
-129.611
-91.5495
-66.8259
-51.6341
-43.2389
-39.5082
-38.7258
-39.5692
-41.0969
-42.7021
-44.0433
-44.9691
-45.4516
-45.5326
-45.2861
-44.7924
-44.1232
-43.3326
-42.4551
-41.5051
-40.4804
-39.3661
-38.1404
-36.7789
-35.2601
-33.5685
-31.6973
-29.6499
-27.4415
-25.0979
-22.6543
-20.1455
-17.6258
-15.1429
-12.7403
-10.454
-8.31062
-6.32639
-4.50946
-2.86142
-1.37328
-0.0401238
1.14499
2.19744
12028.9
11742.9
11343.6
10758.2
9913.41
8920.05
7897.71
6935.64
6062.38
5270.71
4563.42
3967.96
3514.15
3205.65
3008.86
2870.79
2747.69
2618.27
2477.79
2327.18
2169.55
2007.27
1842.66
1675.96
1507.73
1339.79
1174.81
1015.65
864.781
723.935
593.785
473.965
363.936
263.945
175.17
99.9061
39.747
-5.45688
-36.7008
-56.2548
-66.9722
-71.5303
-72.1119
-70.3142
-67.2233
-63.5444
-59.719
-56.0049
-52.5453
-49.4078
-46.615
-44.1639
-42.0348
-40.195
-38.6011
-37.2015
-35.9395
-34.7576
-33.6002
-32.4172
-31.1661
-29.8144
-28.3409
-26.737
-25.0063
-23.1638
-21.2333
-19.245
-17.2329
-15.2305
-13.2685
-11.3722
-9.56063
-7.84652
-6.23688
-4.73419
-3.33804
-2.04634
-0.856774
0.235138
-2715.9
-2230.05
-1556.49
-816.469
-26.8464
695.254
1324.48
1841.21
2226.22
2476.99
2620.5
2709.25
2797.79
2913.36
3041.88
3142.73
3175.67
3122.08
2987.49
2791.17
2554.47
2294.63
2025.15
1756.34
1495.73
1248.65
1019.03
809.613
622.309
457.839
316.155
196.641
98.2843
19.9315
-39.58
-82.2537
-110.669
-127.531
-135.354
-136.372
-132.548
-125.512
-116.552
-106.652
-96.5446
-86.751
-77.6061
-69.2943
-61.8873
-55.3979
-49.8193
-45.1351
-41.3068
-38.2612
-35.8911
-34.0703
-32.6584
-31.5262
-30.5558
-29.6448
-28.7145
-27.7035
-26.5715
-25.2994
-23.8871
-22.3503
-20.7159
-19.0172
-17.2896
-15.5658
-13.8738
-12.2346
-10.6618
-9.16279
-7.73962
-6.39088
-5.11354
-3.9034
-2.75496
-1.67035
-1175.56
-1342.64
-1566.29
-1819.27
-2109.33
-2420.16
-2756.08
-3110.63
-3467.44
-3808.38
-4115.98
-4373.29
-4564.43
-4676.01
-4698.59
-4629.43
-4474.97
-4250.13
-3975.67
-3673.83
-3364.15
-3061.04
-2773.48
-2506.23
-2260.77
-2036.9
-1833.26
-1647.68
-1477.62
-1320.58
-1174.86
-1039.55
-914.272
-798.879
-693.349
-597.707
-511.831
-435.421
-368.038
-309.154
-258.187
-214.506
-177.452
-146.276
-120.369
-99.2192
-82.0905
-68.3425
-57.4702
-49.056
-42.7308
-38.1431
-34.9472
-32.8111
-31.4368
-30.573
-30.0175
-29.6147
-29.2365
-28.6992
-28.0462
-27.2286
-26.2236
-25.0336
-23.6778
-22.1878
-20.6037
-18.9691
-17.326
-15.7103
-14.1489
-12.6587
-11.2474
-9.91489
-8.65573
-7.46177
-6.32426
-5.23515
-4.18638
-3.1766
-3558.26
-3408.55
-3176.94
-2880.53
-2529.76
-2199.99
-1920.61
-1695.46
-1516.07
-1368.85
-1242.5
-1129.53
-1029.53
-949.078
-899.353
-889.375
-920.733
-985.992
-1073.03
-1169.09
-1260.95
-1333.87
-1373.93
-1372.33
-1327.43
-1244.25
-1132.03
-1001.41
-862.923
-726.484
-600.865
-492.51
-404.308
-335.87
-285.104
-248.6
-222.519
-203.351
-188.265
-175.274
-162.898
-150.296
-137.002
-123.156
-109.324
-95.8425
-83.0968
-71.3757
-60.8975
-51.8346
-44.2935
-38.3044
-33.8109
-30.6648
-28.6396
-27.4647
-26.8654
-26.594
-26.4535
-26.3726
-26.1494
-25.6769
-24.9402
-23.9452
-22.7265
-21.3342
-19.8273
-18.2671
-16.7084
-15.1944
-13.7534
-12.3999
-11.1367
-9.95799
-8.85368
-7.81193
-6.8217
-5.87409
-4.96327
-4.08453
543.549
646.78
792.251
920.165
1019.93
1079.65
1124.04
1160.76
1183.73
1185.63
1158.08
1090.61
976.664
821.67
647.356
480.857
338.224
225.375
147.632
111.571
121.498
174.069
258.059
358.522
458.232
537.022
576.907
570.65
523.328
446.242
351.144
248.432
146.768
53.114
-27.1962
-91.4243
-139.317
-172.298
-192.613
-202.716
-204.703
-200.232
-190.605
-177.636
-162.6
-146.487
-130.104
-114.107
-99.0293
-85.2908
-73.1972
-62.9235
-54.4975
-47.8044
-42.6208
-38.6662
-35.6535
-33.3206
-31.445
-29.8446
-28.337
-26.8674
-25.365
-23.8001
-22.172
-20.5081
-18.8501
-17.2392
-15.7085
-14.2786
-12.9569
-11.7399
-10.6173
-9.57557
-8.6014
-7.68378
-6.81479
-5.98955
-5.20562
-4.46897
8497.08
8382.58
8169.25
7770.48
7186.28
6519.38
5843.82
5191.8
4567.56
3969.7
3401.66
2867.66
2366.14
1891.91
1452.65
1075.44
777.274
541.216
337.068
142.374
-62.1396
-295.991
-567.097
-853.32
-1089.65
-1200.48
-1163.97
-1028.22
-860.102
-699.822
-560.552
-444.678
-351.92
-280.62
-228.074
-191.098
-166.493
-151.165
-142.185
-136.97
-133.469
-129.985
-126.022
-120.802
-114.216
-106.769
-98.7152
-90.318
-81.8722
-73.6615
-65.9318
-58.871
-52.5953
-47.1481
-42.5078
-38.6035
-35.3323
-32.5734
-30.2091
-28.1189
-26.2189
-24.43
-22.7063
-21.0293
-19.4018
-17.8405
-16.3658
-14.9937
-13.7308
-12.5736
-11.5107
-10.527
-9.60774
-8.74081
-7.91862
-7.138
-6.39942
-5.70558
-5.0594
-4.47908
-11286.4
-10920.1
-10486
-10038.1
-9542.85
-9042.05
-8539.29
-8028.32
-7494.37
-6914.53
-6264.77
-5528.15
-4702.08
-3804.26
-2876.36
-1986.94
-1215.61
-618.847
-208.98
38.0612
162.456
207.499
211.168
205.063
210.677
235.384
269.459
294.976
299.314
281.007
245.929
201.803
155.27
111.187
72.4402
40.0644
13.857
-7.1963
-24.1501
-37.9238
-48.9769
-57.4224
-63.4164
-67.5033
-69.82
-70.0729
-68.5854
-65.7565
-61.9629
-57.5588
-52.8567
-48.1164
-43.5385
-39.2637
-35.3774
-31.922
-28.8973
-26.1607
-23.7922
-21.7349
-19.914
-18.2817
-16.8045
-15.4604
-14.2369
-13.1263
-12.1223
-11.2162
-10.3958
-9.6457
-8.9495
-8.29227
-7.663
-7.05583
-6.47017
-5.90984
-5.38154
-4.89331
-4.45686
-4.08078
-3978.45
-3832.56
-3625.71
-3362.8
-3010.42
-2645.89
-2325.47
-2080.69
-1908.3
-1784.35
-1687.89
-1609.69
-1545.11
-1486.45
-1420.13
-1328.48
-1197.42
-1023.81
-817.502
-598.905
-392.331
-217.934
-85.1318
7.74098
66.3324
93.8696
93.4925
71.4328
37.5681
0.542453
-34.5798
-66.644
-95.1773
-119.251
-137.947
-151.111
-158.948
-161.908
-160.619
-156.017
-148.908
-139.993
-129.848
-118.926
-107.689
-96.6443
-86.0303
-75.9424
-66.4979
-57.8399
-50.0017
-42.9901
-36.7956
-31.3963
-26.7473
-22.7874
-19.452
-16.7855
-14.5884
-12.7922
-11.3356
-10.1572
-9.20405
-8.43234
-7.80602
-7.29349
-6.86575
-6.49632
-6.16246
-5.84685
-5.53844
-5.23208
-4.92741
-4.62745
-4.33747
-4.06398
-3.81399
-3.59531
-3.41995
-3.27886
12820.3
12657.1
12424.8
12058
11570.5
10947.5
10164.4
9228.81
8222.24
7257.95
6398.72
5639.93
4953.08
4319.32
3730.89
3184.33
2677.01
2205.77
1766.04
1353.7
964.835
597.743
254.752
-55.5412
-320.079
-528.294
-675.863
-762.118
-790.576
-771.325
-719.57
-650.633
-575.811
-501.901
-432.682
-370.188
-315.539
-268.843
-229.686
-196.813
-169.177
-145.847
-126.005
-108.964
-94.1669
-81.1908
-69.7212
-59.5971
-50.6561
-42.7152
-35.6985
-29.5509
-24.2225
-19.6588
-15.8054
-12.6007
-9.98189
-7.88627
-6.2426
-4.98282
-4.04182
-3.35758
-2.87324
-2.5389
-2.31344
-2.16502
-2.07036
-2.01341
-1.98312
-1.97154
-1.97284
-1.98289
-1.99922
-2.02091
-2.0485
-2.08361
-2.12875
-2.18757
-2.26517
-2.34973
-5263.39
-4765.95
-4127.83
-3539.28
-3010.34
-2649.17
-2400.8
-2168.27
-1903.89
-1637.18
-1401.51
-1191.31
-992.797
-806.854
-639.745
-494.113
-369.529
-265.332
-182.034
-121.248
-82.5816
-63.5423
-59.8145
-65.2888
-72.5416
-76.4014
-74.8185
-70.2449
-67.4311
-70.3785
-79.629
-92.5847
-105.747
-116.468
-123.613
-126.779
-125.805
-121.274
-113.946
-104.85
-94.733
-84.1829
-73.6537
-63.4799
-53.8922
-45.0356
-36.9901
-29.7883
-23.427
-17.8773
-13.0967
-9.03418
-5.63406
-2.83784
-0.585783
1.18137
2.52235
3.49508
4.15525
4.55547
4.74355
4.7619
4.64673
4.42876
4.13379
3.78344
3.39569
2.98531
2.56397
2.14066
1.72201
1.31269
0.915745
0.53277
0.164153
-0.190694
-0.533193
-0.865465
-1.18974
-1.49951
-6530.85
-6488.15
-6394.52
-6211.38
-5942.2
-5607.48
-5216.17
-4767.23
-4256.05
-3691.72
-3109.46
-2561.09
-2083.88
-1681.75
-1344.28
-1066.98
-849.624
-690.039
-583.561
-524.32
-505.802
-520.461
-555.238
-590.258
-604.803
-584.732
-528.682
-447.26
-358.502
-278.543
-215.519
-169.759
-137.733
-115.109
-98.0417
-84.019
-71.7339
-60.3819
-49.5626
-39.2109
-29.4486
-20.4588
-12.3984
-5.35738
0.64454
5.64383
9.71297
12.944
15.4363
17.2885
18.5934
19.4349
19.8875
20.0155
19.8739
19.5097
18.9626
18.2672
17.4532
16.547
15.572
14.549
13.4963
12.4297
11.363
10.3072
9.27157
8.2631
7.28728
6.34823
5.44888
4.59125
3.7765
3.00496
2.27617
1.5888
0.940771
0.329128
-0.249369
-0.791577
5979.55
5847.78
5693.81
5512.3
5292.76
5053.69
4787.52
4484.18
4139.33
3753.72
3338.73
2915.06
2503.7
2118.66
1765.17
1443.12
1150.93
887.021
649.671
436.513
245.268
76.2353
-67.6114
-181.136
-258.422
-295.23
-293.49
-265.34
-229.322
-199.777
-181.091
-170.759
-163.74
-155.689
-143.797
-126.784
-104.567
-78.2849
-49.9874
-22.1155
3.07179
23.9761
39.9027
50.9972
57.9439
61.6247
62.8827
62.4171
60.7679
58.3402
55.4344
52.2708
49.0073
45.7531
42.5795
39.5288
36.6228
33.869
31.2656
28.8059
26.4804
24.279
22.1923
20.2117
18.3299
16.5409
14.8401
13.2238
11.6893
10.2345
8.85791
7.55807
6.33372
5.18342
4.10535
3.09715
2.15568
1.27663
0.455802
-0.304531
1184.93
1148.95
1122.42
1122.9
1175.14
1252.08
1312.46
1333.12
1319.42
1284.53
1237.16
1182.31
1122.15
1057.12
987.336
913.421
836.562
758.678
681.387
605.75
531.487
457.223
380.693
299.73
215.019
133.014
65.7619
25.1528
14.9145
29.0139
57.3884
91.6448
126.897
161.456
194.533
224.928
250.883
270.847
283.748
288.911
286.299
276.614
260.933
240.995
218.784
195.977
173.873
153.333
134.817
118.483
104.289
92.0737
81.6138
72.6684
65.0017
58.3982
52.6692
47.6546
43.2212
39.261
35.6867
32.4297
29.4357
26.663
24.0794
21.6605
19.3879
17.248
15.2307
13.3287
11.5367
9.85052
8.26727
6.78426
5.39893
4.10845
2.90928
1.79642
0.766424
-0.177581
-6379.66
-5973.89
-5426.39
-4879.42
-4367.5
-4005.17
-3745.86
-3531.05
-3347.06
-3198.54
-3080.93
-2981.11
-2885.22
-2781.97
-2663.38
-2525.02
-2364.6
-2182.13
-1979.98
-1763.51
-1540.37
-1319.26
-1108.15
-912.608
-735.634
-578.267
-440.039
-319.42
-214.27
-122.976
-44.0038
23.9031
80.9029
126.874
161.64
185.196
198.005
201.307
197.099
187.963
176.392
164.204
152.674
142.419
133.196
124.839
117.146
109.909
102.981
96.2867
89.8017
83.5413
77.5308
71.7986
66.3676
61.2503
56.4483
51.9539
47.7516
43.8214
40.1409
36.6876
33.4399
30.3785
27.4868
24.7509
22.16
19.7056
17.381
15.1814
13.103
11.143
9.29926
7.56975
5.95262
4.44577
3.04653
1.75086
0.558109
-0.524872
10074.3
9900.5
9676.26
9352.5
8929.6
8442.26
7925.65
7393.56
6848.57
6301.5
5769.8
5267.43
4801.09
4370.6
3969.75
3589.41
3218.59
2847.8
2470.81
2084.34
1688.28
1287.82
895.939
533.132
223.309
-14.0235
-169.323
-246.895
-263.758
-241.984
-201.367
-155.142
-109.667
-67.6143
-30.0751
2.56503
30.2229
52.9944
71.1174
84.9525
94.9446
101.557
105.358
106.834
106.483
104.668
101.749
98.0329
93.7733
89.1728
84.3891
79.5419
74.72
69.9868
65.3854
60.9429
56.6741
52.5844
48.673
44.9346
41.362
37.9469
34.6813
31.5579
28.5709
25.7155
22.9883
20.387
17.9097
15.555
13.3217
11.2084
9.21424
7.33803
5.57908
3.93702
2.41176
1.00302
-0.283672
-1.43343
-1875.92
-1831
-1786.07
-1716.31
-1540.44
-1294.36
-1054.58
-902.644
-861.738
-896.791
-955.128
-994.033
-989.177
-932.118
-822.887
-667.29
-475.772
-262.265
-43.5676
161.27
332.944
455.815
523.798
541.398
519.71
472.891
413.786
351.83
292.821
239.839
194.512
157.808
130.134
111.184
99.9257
94.7919
93.9742
95.7135
98.518
101.289
103.344
104.394
104.333
103.085
100.852
97.7847
94.2816
90.4683
86.445
82.3058
78.121
73.9418
69.8044
65.7337
61.7461
57.8522
54.0581
50.367
46.78
43.2974
39.9191
36.6452
33.4762
30.4131
27.4577
24.6121
21.8785
19.2589
16.7548
14.3668
12.0949
9.93803
7.89453
5.96273
4.14137
2.43035
0.831767
-0.648954
-1.98214
-3.1408
9.09344
10.1197
10.5503
10.5859
10.3503
9.92651
9.34892
8.66801
7.89983
7.10558
6.3476
5.67298
5.10134
4.62166
4.19594
3.76943
3.28333
2.68546
1.93586
1.0062
-0.125013
-1.47843
-3.07726
-4.94255
-7.07513
-9.42295
-11.8485
-14.1167
-15.9461
-17.1073
-17.4995
-17.1645
-16.2708
-15.0135
-13.5702
-12.0649
-10.5677
-9.114
-7.72575
-6.42388
-5.23043
-4.1639
-3.23382
-2.4388
-1.7689
-1.2102
-0.749177
-0.375076
-0.0805556
0.139012
0.286685
0.364882
0.375795
0.321372
0.203128
0.0219111
-0.222345
-0.530819
-0.905869
-1.35105
-1.87124
-2.47305
-3.16516
-3.95843
-4.865
-5.89618
-7.0589
-8.35147
-9.76005
-11.2572
-12.8025
-14.3449
-15.8251
-17.1792
-18.3427
-19.2563
-19.872
-20.1581
-20.1021
-19.7199
-19.0445
-18.1293
-17.0354
-15.8215
-14.5366
-13.2174
-11.8903
-10.5759
-9.2921
-8.0553
-6.87986
-5.77656
-4.75186
-3.80823
-2.94538
-2.16169
-1.45497
-0.822161
-0.258576
0.242636
0.690036
1.09255
1.45793
1.79188
2.09808
2.37905
2.637
2.87443
3.09415
3.29905
3.49175
3.67437
3.84845
4.01498
4.17461
4.3277
4.47446
4.61497
4.74932
4.87756
4.99976
5.11601
5.22638
5.33092
5.42969
5.52277
5.61029
5.69241
5.7693
5.8411
5.908
5.97013
6.02776
6.08104
6.13014
6.17526
6.21658
6.25429
6.28858
6.31965
6.34766
6.37274
6.395
6.41453
6.4314
6.44569
6.45744
6.4667
6.47345
6.47768
6.47932
6.4783
6.47448
6.4677
6.45779
6.44461
6.42808
6.40819
6.38508
6.35901
6.3304
6.29977
6.26765
6.23452
6.20066
6.16608
6.13048
6.09328
6.05365
6.01058
5.96297
5.9097
5.84966
5.78182
5.70521
5.61895
5.52221
5.41421
5.29423
5.16162
5.01585
4.85651
4.68338
4.49642
4.29583
4.08203
3.85569
3.61774
3.36933
3.11183
2.84668
2.57535
2.29916
2.01912
1.73561
1.44838
1.1554
0.854089
0.537754
0.196157
7.13729
8.479
9.10999
9.26554
9.06782
8.64225
8.04673
7.30526
6.44044
5.54131
4.67502
3.90753
3.28128
2.79947