/*--------------------------------*- C++ -*----------------------------------*\
| =========                 |                                                 |
| \\      /  F ield         | OpenFOAM: The Open Source CFD Toolbox           |
|  \\    /   O peration     | Version:  2012                                  |
|   \\  /    A nd           | Website:  www.openfoam.com                      |
|    \\/     M anipulation  |                                                 |
\*---------------------------------------------------------------------------*/
FoamFile
{
    version     2.0;
    format      ascii;
    class       volVectorField;
    location    "0.51";
    object      U;
}
// * * * * * * * * * * * * * * * * * * * * * * * * * * * * * * * * * * * * * //

dimensions      [0 1 -1 0 0 0 0];


internalField   nonuniform List<vector> 
42400
(
(4.20272 -0.210075 -1.603e-16)
(-1.52172 20.9307 -2.18246e-16)
(-31.7122 46.2716 2.23603e-16)
(-49.7256 68.1563 0)
(-53.7569 66.0623 0)
(-39.5686 49.1413 2.4387e-19)
(-19.1393 28.5544 0)
(-3.89325 15.0628 -2.85244e-19)
(4.43911 9.68738 0)
(8.72604 8.43859 -2.69185e-19)
(10.9092 8.56222 -2.55586e-19)
(11.7193 8.95583 2.38372e-19)
(11.519 9.21601 8.59619e-17)
(10.6558 9.18599 -8.76841e-17)
(9.6647 8.71063 1.79819e-19)
(8.94245 7.67265 0)
(8.54292 6.23231 0)
(8.20535 4.82569 0)
(7.65361 3.85541 0)
(6.73145 3.56542 0)
(5.49826 3.87727 0)
(4.11396 4.69002 1.74961e-19)
(2.74307 5.87939 3.16811e-17)
(1.49341 7.24993 -5.218e-18)
(0.404196 8.57182 -2.70576e-17)
(-0.536062 9.66001 4.64065e-20)
(-1.36993 10.4191 2.54646e-20)
(-2.13533 10.8332 -1.91769e-20)
(-2.83937 10.9365 0)
(-3.45628 10.7789 0)
(-3.94798 10.4006 -4.04932e-18)
(-4.2914 9.83273 4.09141e-18)
(-4.48987 9.10795 4.73966e-20)
(-4.56606 8.2646 4.43384e-19)
(-4.54802 7.34551 -5.00206e-19)
(-4.45814 6.39574 0)
(-4.30663 5.45598 0)
(-4.08721 4.55631 0)
(-3.78736 3.71087 0)
(-3.39861 2.92195 -1.41483e-18)
(-2.92091 2.19168 1.41981e-18)
(-2.368 1.52272 -1.54071e-18)
(-1.76544 0.913149 6.93142e-20)
(-1.14513 0.353456 3.08556e-18)
(-0.529348 -0.161675 -1.50407e-18)
(0.076263 -0.631863 1.53747e-18)
(0.664758 -1.06677 -3.17312e-18)
(1.2286 -1.48281 1.53141e-18)
(1.76959 -1.88682 9.85789e-20)
(2.29178 -2.27883 -1.54513e-18)
(2.79699 -2.65561 3.02875e-18)
(3.28431 -3.01179 1.2532e-19)
(3.75054 -3.3412 -1.58786e-18)
(4.19097 -3.63792 1.57962e-19)
(4.60035 -3.89696 0)
(4.97371 -4.11459 0)
(5.3069 -4.28848 0)
(5.59694 -4.4177 -1.18789e-19)
(5.84218 -4.5026 -1.08874e-19)
(6.04237 -4.54462 0)
(6.19856 -4.54609 -1.47737e-18)
(6.31291 -4.51003 1.5328e-18)
(6.38853 -4.43995 1.18324e-18)
(6.42922 -4.3397 -1.16106e-18)
(6.43934 -4.2135 0)
(6.42366 -4.06589 0)
(6.3873 -3.9019 6.75746e-19)
(6.33572 -3.72706 -6.60577e-19)
(6.27465 -3.54749 -5.44649e-20)
(6.20997 -3.36968 0)
(6.14751 -3.20032 0)
(6.09267 -3.04571 -2.3262e-20)
(6.04999 -2.91129 -1.46472e-20)
(6.0227 -2.8009 0)
(6.01232 -2.71625 1.9467e-22)
(6.01845 -2.65659 2.77038e-20)
(6.03884 -2.61848 -2.68746e-20)
(6.07015 -2.59569 -3.46351e-20)
(6.11156 -2.57655 -1.56442e-19)
(6.16476 -2.55295 -2.56938e-19)
(-2.35948 1.16112 0)
(-34.1543 17.264 1.73965e-16)
(-83.3921 60.4197 -1.78451e-16)
(-133.77 91.7556 0)
(-150.442 101.631 0)
(-129.483 82.4456 9.78216e-17)
(-84.2146 43.9792 -1.00517e-16)
(-43.7046 6.17157 2.8516e-19)
(-21.5056 -17.6646 0)
(-12.1233 -28.5606 2.70182e-19)
(-8.18834 -32.9901 2.56889e-19)
(-5.76329 -35.2923 -3.62264e-17)
(-2.80609 -37.5449 4.56318e-18)
(1.57127 -40.5807 3.38831e-17)
(7.23888 -44.2976 2.79926e-17)
(13.3071 -47.9833 -2.79073e-17)
(18.6072 -50.6646 0)
(22.1816 -51.4096 6.77845e-19)
(23.5959 -49.5812 0)
(22.9282 -45.127 0)
(20.7299 -38.7403 0)
(17.6154 -31.2334 -1.683e-17)
(13.9997 -23.1694 6.58475e-19)
(10.111 -14.8652 1.65384e-17)
(6.10301 -6.60674 0)
(2.13633 1.19192 -1.82662e-19)
(-1.59373 7.99809 -2.55356e-20)
(-4.87094 13.3018 1.92189e-20)
(-7.52323 16.8388 -9.11776e-18)
(-9.49967 18.7326 9.21701e-18)
(-10.8655 19.4461 9.14227e-20)
(-11.7248 19.4085 9.10504e-20)
(-12.1626 18.9355 -4.58614e-18)
(-12.2245 18.1625 4.49497e-18)
(-11.9205 17.1374 3.26716e-18)
(-11.2469 15.8351 -3.20945e-18)
(-10.2233 14.297 0)
(-8.91411 12.5877 7.54321e-21)
(-7.41678 10.7839 0)
(-5.84812 8.96438 6.02729e-20)
(-4.32419 7.20558 -1.85984e-18)
(-2.94227 5.57298 1.93901e-18)
(-1.76414 4.11179 -1.06358e-19)
(-0.807914 2.8416 1.06011e-19)
(-0.0574285 1.75226 -1.15036e-20)
(0.533896 0.817873 1.04647e-19)
(1.02865 0.00513427 -1.03209e-19)
(1.48209 -0.715838 -1.48264e-18)
(1.93029 -1.36705 1.47939e-18)
(2.3897 -1.9607 0)
(2.8613 -2.50136 -8.24806e-20)
(3.33689 -2.98933 -1.75712e-19)
(3.80458 -3.42326 -1.08116e-18)
(4.25231 -3.80169 1.07925e-18)
(4.66975 -4.12374 1.29505e-19)
(5.04894 -4.38928 -1.91353e-18)
(5.38436 -4.59903 2.11969e-18)
(5.67279 -4.75454 1.18844e-19)
(5.91304 -4.85823 1.08928e-19)
(6.10571 -4.91334 -1.41246e-18)
(6.25289 -4.92369 1.39008e-18)
(6.35786 -4.89352 -8.03391e-20)
(6.42473 -4.82716 -5.64253e-20)
(6.45813 -4.72895 0)
(6.46296 -4.60313 6.52351e-19)
(6.4443 -4.45393 -9.95728e-20)
(6.40733 -4.28576 -6.6244e-19)
(6.35737 -4.10336 0)
(6.29992 -3.912 8.73051e-20)
(6.24053 -3.71748 -2.27531e-20)
(6.18472 -3.52599 -1.62085e-19)
(6.13759 -3.34379 1.81148e-19)
(6.1034 -3.17669 4.40671e-20)
(6.08516 -3.0295 -1.96108e-20)
(6.08422 -2.90544 -1.52304e-20)
(6.10004 -2.80579 1.24514e-19)
(6.1304 -2.72966 -7.04276e-20)
(6.1722 -2.67379 3.46415e-20)
(6.22271 -2.63281 -3.00591e-19)
(6.27156 -2.61384 2.30939e-19)
(-23.7472 19.1564 -3.54377e-17)
(-46.4413 36.5872 -1.15748e-19)
(-47.801 41.8633 5.49369e-19)
(-40.1938 40.0616 -9.80983e-20)
(-31.2483 40.151 0)
(-22.4003 39.003 -1.10239e-16)
(-13.4151 34.8578 2.21496e-16)
(-5.3619 27.7749 -1.1124e-16)
(0.574221 19.1974 1.06201e-16)
(4.86367 10.1843 -4.64748e-18)
(8.36912 1.20693 -1.05969e-16)
(11.192 -7.11476 -5.31336e-19)
(13.0571 -14.2496 -4.9254e-19)
(14.0434 -20.2397 8.09125e-17)
(14.6637 -25.6995 -8.23941e-17)
(15.5846 -31.3996 -7.60881e-19)
(17.262 -37.9317 -6.38533e-17)
(19.6148 -45.4468 4.43723e-18)
(21.9865 -53.5835 6.07633e-17)
(23.5368 -61.5745 2.34827e-19)
(23.795 -68.4789 -2.46329e-19)
(22.9833 -73.6329 -2.30121e-19)
(21.6508 -76.7613 0)
(19.9782 -77.842 -1.42277e-19)
(17.5713 -76.6624 7.65201e-18)
(13.7786 -72.6381 -7.23822e-18)
(8.23074 -65.2837 -3.56448e-19)
(1.40915 -55.127 1.07881e-17)
(-5.28762 -44.0715 -1.09472e-17)
(-10.3255 -34.3145 -1.31089e-17)
(-13.0184 -26.8365 2.542e-17)
(-13.7876 -21.3697 -1.56299e-18)
(-13.5345 -17.1465 -1.09812e-17)
(-12.9083 -13.6347 0)
(-12.1091 -10.6123 0)
(-11.1126 -8.04705 -2.84629e-20)
(-9.92796 -5.87267 0)
(-8.64921 -4.03241 2.10911e-20)
(-7.39112 -2.50345 5.32815e-19)
(-6.2382 -1.29311 -3.98479e-19)
(-5.23503 -0.41146 -1.87665e-19)
(-4.38134 0.150919 0)
(-3.64606 0.420474 0)
(-2.97701 0.436784 -1.20366e-18)
(-2.32282 0.240351 1.10927e-18)
(-1.64659 -0.125331 8.98795e-20)
(-0.932141 -0.614068 0)
(-0.183443 -1.17934 0)
(0.581638 -1.77787 -1.29287e-18)
(1.3403 -2.37296 1.2866e-18)
(2.07121 -2.93761 8.25678e-20)
(2.758 -3.4544 0)
(3.38994 -3.9135 1.18022e-18)
(3.96128 -4.31038 -1.05015e-18)
(4.46977 -4.64376 1.69615e-18)
(4.9153 -4.91415 -1.83247e-18)
(5.29892 -5.12317 1.41652e-18)
(5.62235 -5.27336 -2.88721e-18)
(5.88799 -5.36824 2.59694e-18)
(6.09912 -5.41225 -1.21152e-19)
(6.25996 -5.41048 -1.07922e-18)
(6.37554 -5.36827 -8.33427e-19)
(6.4514 -5.29085 8.7505e-19)
(6.49331 -5.18303 0)
(6.50695 -5.04913 -4.04787e-19)
(6.49788 -4.89303 9.08841e-20)
(6.4714 -4.7184 4.57416e-19)
(6.43272 -4.52896 0)
(6.38699 -4.32879 -3.74408e-20)
(6.3393 -4.12243 -3.33229e-20)
(6.29459 -3.91495 6.57411e-20)
(6.2574 -3.71175 0)
(6.23151 -3.5182 0)
(6.21952 -3.33917 -8.9948e-21)
(6.22256 -3.17853 1.50407e-20)
(6.24 -3.03875 1.70482e-19)
(6.26968 -2.92062 -2.88781e-19)
(6.30865 -2.82294 0)
(6.35469 -2.74257 6.59667e-20)
(6.39785 -2.69166 3.59541e-19)
(4.91395 -0.383146 1.12381e-16)
(11.6099 -0.540695 -1.65946e-16)
(8.88662 4.39764 8.37895e-17)
(2.14618 12.5339 7.94354e-17)
(-1.35273 18.0337 -8.14023e-17)
(1.7743 21.2062 0)
(8.68559 23.4371 1.48001e-16)
(16.9043 25.6361 -1.50292e-16)
(25.5521 27.8461 1.37512e-16)
(34.5496 29.8879 -1.40249e-16)
(43.7813 31.5923 1.2182e-16)
(52.6934 32.986 -2.37292e-16)
(60.4841 34.364 2.15727e-16)
(66.4394 36.1662 -1.92998e-16)
(70.047 38.8031 1.68645e-16)
(70.8988 42.5548 -7.8831e-17)
(68.7227 47.3668 -5.11335e-17)
(63.9193 52.5564 9.14454e-17)
(57.8081 56.8715 -3.98469e-17)
(51.958 59.291 -2.3746e-19)
(47.2142 59.5295 6.49066e-19)
(43.6221 57.8988 -8.77735e-18)
(40.8553 54.715 8.79181e-18)
(38.6015 50.2194 -1.4829e-19)
(36.5434 44.6384 0)
(34.3617 38.4469 -5.69272e-20)
(31.7086 32.3544 0)
(28.2431 27.1571 -9.22624e-18)
(23.7951 23.4037 -7.25189e-19)
(18.5424 21.0909 1.02012e-17)
(13.0351 19.7162 9.77734e-18)
(7.98914 18.5742 -9.92279e-18)
(4.03866 17.0786 1.4875e-19)
(1.56912 14.922 1.30621e-19)
(0.602521 12.1206 5.78409e-18)
(0.74922 8.9974 -5.96184e-18)
(1.34037 6.05572 0)
(1.75049 3.73568 -3.50291e-18)
(1.68059 2.21066 3.49563e-18)
(1.19055 1.36635 -8.316e-20)
(0.519648 0.940777 1.88332e-19)
(-0.0956048 0.68455 0)
(-0.51514 0.433325 0)
(-0.691551 0.1094 0)
(-0.635127 -0.307711 1.22353e-19)
(-0.379437 -0.797324 -1.59194e-18)
(0.0375064 -1.3366 1.49917e-18)
(0.572414 -1.89668 0)
(1.18184 -2.45159 0)
(1.82791 -2.98247 -1.05405e-18)
(2.4779 -3.47488 9.89967e-19)
(3.10571 -3.92067 -8.84512e-19)
(3.69363 -4.31716 6.65758e-19)
(4.23169 -4.66478 -8.01792e-20)
(4.7157 -4.96455 5.9439e-19)
(5.14454 -5.21635 -7.50737e-19)
(5.51803 -5.41879 1.05746e-18)
(5.83612 -5.57015 -1.00052e-18)
(6.09925 -5.66988 0)
(6.30918 -5.71948 2.83239e-20)
(6.46939 -5.72239 5.63017e-19)
(6.58477 -5.68342 -1.15643e-19)
(6.66116 -5.608 -8.05658e-19)
(6.70471 -5.50151 5.93991e-19)
(6.72146 -5.36889 -2.50024e-19)
(6.71706 -5.21443 -8.42953e-20)
(6.6967 -5.04184 7.59476e-20)
(6.66517 -4.85452 -2.43314e-20)
(6.62698 -4.6558 -8.42878e-20)
(6.58642 -4.44923 1.16797e-19)
(6.54755 -4.2387 -5.27611e-20)
(6.51405 -4.02847 -3.14311e-19)
(6.48898 -3.82297 2.60933e-19)
(6.47447 -3.6265 0)
(6.4715 -3.44282 -3.69449e-19)
(6.47969 -3.27485 3.9922e-20)
(6.49751 -3.12429 9.17237e-19)
(6.52307 -2.99104 -4.016e-19)
(6.55519 -2.87386 4.44073e-19)
(6.58471 -2.79094 -4.37168e-19)
(-7.04875 5.97803 9.07009e-19)
(-41.9227 25.2336 0)
(-77.7578 47.3692 0)
(-84.0869 44.4535 3.99762e-20)
(-57.968 23.0901 0)
(-24.8574 -0.649871 0)
(-0.594961 -16.8894 0)
(13.2636 -25.4137 -1.10717e-18)
(20.6273 -29.2189 0)
(24.2812 -30.5628 3.9223e-19)
(25.5465 -30.5568 2.29381e-17)
(25.1565 -29.7791 -4.54283e-17)
(23.6568 -28.5546 2.39813e-17)
(21.4785 -27.0688 0)
(18.9387 -25.3489 -4.4017e-19)
(16.2551 -23.368 5.83924e-19)
(13.6598 -21.0574 0)
(11.3574 -18.2578 3.36184e-17)
(9.37562 -14.8362 -6.8901e-17)
(7.59538 -10.823 3.7996e-19)
(5.92137 -6.49651 3.53684e-17)
(4.36762 -2.16588 3.52135e-19)
(2.95937 1.91168 0)
(1.72415 5.61414 -2.6609e-17)
(0.612452 8.80393 2.69778e-17)
(-0.426267 11.4456 -1.93043e-17)
(-1.45242 13.5865 1.95467e-17)
(-2.5247 15.3405 1.22388e-17)
(-3.66086 16.8355 -1.23359e-17)
(-4.80076 18.1533 0)
(-5.81722 19.2982 -3.5852e-18)
(-6.56956 20.2053 3.61948e-18)
(-6.95103 20.7708 -1.25379e-19)
(-6.91682 20.8822 1.34784e-18)
(-6.50595 20.4556 -1.49073e-18)
(-5.84048 19.4692 -2.8151e-20)
(-5.0759 17.982 1.53969e-19)
(-4.33743 16.1363 3.70731e-18)
(-3.69809 14.1303 -3.72908e-18)
(-3.19127 12.1571 -3.48061e-18)
(-2.81775 10.3453 6.50179e-20)
(-2.54161 8.73894 3.59347e-18)
(-2.29526 7.31586 0)
(-2.00072 6.02335 -1.53997e-19)
(-1.59554 4.81187 1.79177e-18)
(-1.05205 3.65404 -3.89074e-18)
(-0.373097 2.53368 3.22994e-18)
(0.413872 1.46299 -1.41624e-18)
(1.25532 0.450371 0)
(2.0893 -0.495705 -4.22442e-20)
(2.87239 -1.35624 8.11716e-19)
(3.57689 -2.1274 -7.81864e-19)
(4.19235 -2.81669 5.15301e-20)
(4.72392 -3.43384 5.24863e-19)
(5.18516 -3.98487 -3.79293e-19)
(5.58954 -4.46864 3.07836e-19)
(5.94484 -4.87811 1.72941e-19)
(6.25262 -5.20518 -5.09623e-19)
(6.51067 -5.44569 2.29734e-19)
(6.71793 -5.60225 -2.54656e-19)
(6.87597 -5.68252 0)
(6.98899 -5.69724 1.55092e-20)
(7.06272 -5.65807 -8.48476e-20)
(7.10368 -5.57604 9.39094e-20)
(7.11831 -5.46068 5.6939e-20)
(7.11257 -5.31967 0)
(7.09175 -5.15896 3.9386e-19)
(7.06035 -4.98316 -3.12697e-19)
(7.02233 -4.79592 -3.08125e-20)
(6.98126 -4.60036 -7.62148e-20)
(6.94028 -4.39959 1.20172e-19)
(6.90217 -4.1968 -3.40537e-20)
(6.86925 -3.99529 -6.14182e-19)
(6.84317 -3.79841 5.17879e-19)
(6.8248 -3.60933 -8.29771e-20)
(6.81408 -3.43081 0)
(6.81028 -3.26482 -6.97975e-19)
(6.81266 -3.1121 5.59509e-19)
(6.82122 -2.97353 0)
(6.82874 -2.87136 -5.93823e-19)
(-14.4883 9.42765 6.05509e-19)
(-46.7407 23.1658 8.25515e-17)
(-69.0279 40.3809 -7.91705e-17)
(-70.9582 36.601 1.57333e-16)
(-44.5485 19.8695 -7.82909e-17)
(-11.4376 -1.96663 -7.85805e-19)
(11.4433 -17.4334 -6.64229e-17)
(21.7697 -24.3945 6.92162e-17)
(25.41 -26.0346 6.97295e-19)
(27.1185 -25.488 2.85589e-19)
(28.3739 -24.3303 5.42976e-17)
(29.1637 -22.9554 4.60057e-17)
(29.4416 -21.1024 -1.0405e-16)
(29.2015 -18.7823 8.76934e-17)
(28.2767 -16.4504 -1.68659e-16)
(26.536 -14.2942 8.22605e-17)
(24.0066 -12.0674 0)
(20.7105 -9.73506 0)
(16.7548 -7.58583 -5.61381e-17)
(12.5013 -5.83833 7.00581e-18)
(8.41439 -4.491 4.98807e-17)
(4.72159 -3.46318 -3.70512e-17)
(1.4396 -2.59824 6.92025e-17)
(-1.46817 -1.71439 -3.20288e-17)
(-4.01425 -0.697225 -2.24684e-17)
(-6.20856 0.490124 3.75642e-18)
(-8.0769 1.83997 1.92039e-17)
(-9.64809 3.32699 -2.64773e-19)
(-10.941 4.91105 2.32147e-19)
(-11.9518 6.53766 -4.11123e-19)
(-12.6494 8.14994 0)
(-13.007 9.68164 -8.95401e-18)
(-13.025 11.0537 1.76797e-17)
(-12.7309 12.1964 -8.68434e-18)
(-12.1727 13.0597 0)
(-11.4129 13.6159 6.98687e-18)
(-10.5165 13.8605 -7.023e-18)
(-9.53859 13.8086 0)
(-8.51977 13.4906 0)
(-7.48466 12.9453 4.22732e-18)
(-6.44198 12.2131 -4.37153e-18)
(-5.38596 11.331 -2.8304e-20)
(-4.30136 10.3288 0)
(-3.17326 9.22895 -1.99409e-18)
(-1.99786 8.04999 5.78624e-19)
(-0.789264 6.8115 1.80021e-18)
(0.416526 5.53811 4.9876e-20)
(1.56366 4.25479 -1.02621e-19)
(2.6022 3.00825 0)
(3.50189 1.84405 3.33273e-19)
(4.24055 0.784533 -4.2998e-19)
(4.81008 -0.17568 1.68854e-19)
(5.23264 -1.04647 3.92947e-20)
(5.55545 -1.8405 -5.50591e-20)
(5.83246 -2.56723 -7.16597e-20)
(6.10427 -3.22581 3.08712e-19)
(6.38434 -3.80563 -1.57704e-19)
(6.66353 -4.29141 0)
(6.92188 -4.67499 0)
(7.14172 -4.95869 4.1426e-20)
(7.31505 -5.15002 4.69005e-20)
(7.4418 -5.26076 0)
(7.52605 -5.30346 6.29643e-19)
(7.57411 -5.29056 -6.14264e-19)
(7.5931 -5.23312 -7.69176e-19)
(7.58972 -5.14061 -1.60751e-19)
(7.56982 -5.02081 6.55237e-19)
(7.53821 -4.8799 -7.73927e-19)
(7.49874 -4.72285 7.55826e-19)
(7.45454 -4.55376 -4.63665e-20)
(7.40822 -4.37619 7.20014e-19)
(7.36197 -4.1934 -6.97476e-19)
(7.3176 -4.00847 -7.16391e-19)
(7.2765 -3.82432 8.91931e-19)
(7.23956 -3.64372 -7.03659e-19)
(7.20713 -3.46913 7.63629e-19)
(7.17921 -3.30241 -7.66206e-19)
(7.15603 -3.14465 1.49575e-18)
(7.13827 -2.99812 1.01926e-20)
(7.12039 -2.88636 1.18487e-20)
(-29.5302 18.1338 -2.30551e-17)
(-64.6067 36.1918 -4.50239e-19)
(-70.082 43.2063 3.33013e-17)
(-60.643 37.7492 -6.47721e-17)
(-38.2663 27.2868 3.18844e-17)
(-5.56441 9.56858 -2.6067e-17)
(29.9249 -10.825 1.39085e-18)
(60.3902 -28.8263 2.6387e-17)
(81.1835 -41.1784 -2.5883e-17)
(91.6617 -47.2669 2.54383e-17)
(93.9949 -48.2807 -2.66062e-17)
(91.2755 -45.9232 2.72434e-17)
(85.9948 -41.5745 -2.75391e-17)
(79.5849 -36.0376 2.7536e-17)
(72.5718 -29.7705 -5.43797e-19)
(64.9576 -23.2138 -5.15197e-19)
(56.5739 -16.8785 -5.26447e-17)
(47.5287 -11.2874 5.36352e-17)
(38.3585 -6.85403 8.37963e-19)
(29.8062 -3.69196 -2.34972e-19)
(22.5014 -1.70654 -4.08265e-17)
(16.7665 -0.840192 4.11762e-17)
(12.6 -0.941944 0)
(9.76456 -1.64148 1.33273e-19)
(7.88217 -2.56565 0)
(6.56452 -3.43932 0)
(5.52048 -4.04576 8.01218e-20)
(4.57269 -4.22617 1.77752e-17)
(3.62826 -3.88518 -1.80049e-17)
(2.65754 -3.01019 -1.33296e-17)
(1.67184 -1.68223 1.3867e-17)
(0.707784 -0.031512 -3.29892e-19)
(-0.185363 1.80986 2.98345e-19)
(-0.966967 3.72041 0)
(-1.60938 5.59381 1.01278e-19)
(-2.09629 7.3435 0)
(-2.42623 8.91074 0)
(-2.60194 10.2655 7.24203e-20)
(-2.62648 11.3957 0)
(-2.50962 12.2935 0)
(-2.26333 12.9623 -2.60077e-18)
(-1.89841 13.4117 2.42514e-18)
(-1.42713 13.6505 0)
(-0.865994 13.6845 0)
(-0.238267 13.5167 0)
(0.424856 13.1464 1.3097e-20)
(1.08566 12.5738 -4.95035e-20)
(1.70311 11.8054 -2.39889e-19)
(2.23547 10.8689 2.73732e-19)
(2.64343 9.78019 -1.66312e-19)
(2.90691 8.56468 1.66531e-19)
(3.05444 7.26664 4.93541e-21)
(3.16729 5.91658 1.56215e-20)
(3.34827 4.51712 0)
(3.68693 3.07875 0)
(4.20406 1.63694 -2.63486e-20)
(4.84247 0.255196 -1.16987e-19)
(5.50898 -0.997368 1.76799e-19)
(6.12623 -2.07012 -3.634e-19)
(6.65261 -2.94024 4.08346e-19)
(7.07562 -3.61126 9.56354e-19)
(7.39984 -4.10084 1.09813e-19)
(7.63754 -4.43291 -2.13898e-18)
(7.80208 -4.63556 1.14079e-18)
(7.90727 -4.73543 9.97932e-20)
(7.966 -4.75605 1.21326e-19)
(7.9894 -4.71712 1.23381e-18)
(7.98654 -4.63434 -2.42853e-18)
(7.96454 -4.51987 1.19386e-18)
(7.92893 -4.38301 1.22574e-19)
(7.88403 -4.23091 1.15778e-18)
(7.83324 -4.06914 -1.29268e-18)
(7.77926 -3.90207 0)
(7.72419 -3.73321 -1.16052e-19)
(7.66958 -3.56545 0)
(7.61648 -3.40111 1.00977e-18)
(7.56567 -3.24188 -1.35385e-21)
(7.51809 -3.0889 -9.48022e-19)
(7.47477 -2.94508 6.62382e-19)
(7.43154 -2.8329 2.48502e-19)
(-7.5937 7.13918 -4.35924e-17)
(-14.2883 16.0827 6.55611e-17)
(-7.73525 19.2463 2.39499e-19)
(4.50394 20.3704 6.12937e-17)
(17.1155 20.2021 -6.25902e-17)
(30.6564 18.854 5.8113e-17)
(43.4428 16.283 -1.1445e-16)
(53.9837 12.8653 5.60693e-17)
(61.842 9.17546 -4.75e-17)
(67.4155 5.57548 4.81688e-17)
(71.6032 2.10148 0)
(75.3531 -1.40458 4.20745e-19)
(78.9192 -4.95837 -4.72785e-19)
(80.9799 -7.92646 0)
(78.507 -8.80367 0)
(68.7323 -6.10653 0)
(52.0588 0.144882 0)
(32.5842 7.91136 3.53762e-19)
(15.1605 14.5746 0)
(2.36452 18.9572 -7.60711e-18)
(-5.68499 21.1943 8.19471e-18)
(-9.72275 21.7268 1.4777e-17)
(-10.6991 20.9653 -1.48195e-17)
(-9.83908 19.4194 -1.38007e-17)
(-8.18084 17.3668 1.42714e-17)
(-6.22314 14.8796 -1.16044e-17)
(-4.07188 11.9864 1.16779e-17)
(-1.79272 8.88421 -8.41639e-18)
(0.412383 5.91798 1.60712e-18)
(2.25756 3.47609 7.31004e-18)
(3.5077 1.82775 0)
(4.06994 1.04177 1.53607e-19)
(4.00209 1.01396 1.13153e-19)
(3.45853 1.54511 0)
(2.62536 2.41846 -1.01235e-19)
(1.67477 3.44475 0)
(0.738108 4.4813 0)
(-0.100736 5.42086 2.56787e-19)
(-0.794946 6.19048 -5.27311e-19)
(-1.321 6.76554 2.45357e-19)
(-1.67813 7.14281 1.52374e-19)
(-1.8905 7.32185 -2.01274e-19)
(-1.99411 7.31575 -4.87024e-20)
(-2.03407 7.14805 0)
(-2.05807 6.84626 3.7662e-19)
(-2.10645 6.43735 -2.93999e-19)
(-2.19993 5.94275 0)
(-2.32879 5.37437 0)
(-2.44722 4.73465 -3.26194e-19)
(-2.48077 4.02116 5.03089e-19)
(-2.34785 3.23867 6.34148e-19)
(-1.98365 2.39962 -5.43939e-19)
(-1.35424 1.53358 -6.96103e-19)
(-0.478965 0.663257 1.4333e-18)
(0.575638 -0.19598 -7.51432e-19)
(1.72658 -1.01943 -2.42214e-19)
(2.89301 -1.78225 0)
(4.00654 -2.46828 1.84408e-19)
(5.01895 -3.06469 -8.77173e-19)
(5.90084 -3.56133 2.02723e-18)
(6.63742 -3.95297 -1.05844e-18)
(7.2255 -4.24069 0)
(7.67282 -4.43231 -1.00629e-19)
(7.99529 -4.54026 0)
(8.21348 -4.57914 -9.97917e-20)
(8.34906 -4.5633 -1.4173e-19)
(8.42182 -4.50529 -2.70698e-19)
(8.44819 -4.41532 -1.76652e-18)
(8.44094 -4.30144 1.47887e-18)
(8.40968 -4.17007 -2.34891e-19)
(8.36158 -4.02642 -1.56334e-18)
(8.30204 -3.87477 1.90103e-18)
(8.23517 -3.71869 -1.43663e-18)
(8.16406 -3.5611 1.39692e-18)
(8.09104 -3.4044 -1.50232e-18)
(8.01776 -3.25049 1.10389e-18)
(7.94555 -3.10064 1.20699e-18)
(7.87563 -2.95582 -1.16988e-18)
(7.80902 -2.81899 2.53294e-19)
(7.74253 -2.71023 -2.47785e-19)
(-1.37332 -0.809008 -3.63543e-18)
(-6.39724 -4.71608 -2.96131e-18)
(-8.92169 -8.73144 4.35059e-18)
(-9.46907 -17.3015 -8.37548e-19)
(-5.71278 -25.1465 -6.1108e-19)
(-0.102344 -32.9275 -2.50313e-19)
(5.88428 -39.9038 9.04345e-18)
(11.2646 -45.7946 -2.18332e-17)
(15.478 -50.4996 -3.76748e-18)
(18.2971 -53.8765 1.67848e-17)
(19.6532 -55.9075 -1.96423e-19)
(19.5897 -56.6886 -2.87462e-17)
(18.2134 -56.3816 2.9302e-17)
(15.6364 -55.0792 -3.37434e-17)
(11.8196 -52.6805 3.43996e-17)
(6.79894 -48.9314 3.51716e-17)
(1.13534 -43.5796 -3.58247e-17)
(-4.0162 -36.7826 -3.49173e-19)
(-7.52183 -29.2063 0)
(-8.80434 -21.574 -2.87766e-17)
(-8.08719 -14.4784 2.90683e-17)
(-6.26334 -8.01908 2.63842e-19)
(-4.57974 -1.8568 2.20654e-17)
(-4.22674 4.37147 -2.26473e-17)
(-5.62608 10.5581 -1.56083e-19)
(-8.14995 16.1782 0)
(-10.5257 20.5142 -2.10191e-19)
(-11.6086 23.0114 -4.30449e-19)
(-10.9227 23.4802 -1.37537e-17)
(-8.81455 22.2794 1.41085e-17)
(-6.12104 20.1163 7.08786e-18)
(-3.67869 17.6638 -7.18519e-18)
(-1.99203 15.355 1.5086e-19)
(-1.18073 13.3901 -3.46841e-18)
(-1.11191 11.8173 6.10183e-18)
(-1.55754 10.6068 -2.88394e-18)
(-2.29553 9.69749 -2.48603e-18)
(-3.15003 9.02282 2.73174e-18)
(-3.99809 8.52192 1.58852e-19)
(-4.76761 8.12812 -1.94727e-19)
(-5.41794 7.78845 4.84567e-20)
(-5.93031 7.46215 -2.90357e-18)
(-6.29608 7.12636 8.26654e-20)
(-6.51951 6.75985 2.87694e-18)
(-6.6076 6.35589 -2.85194e-18)
(-6.56635 5.91507 2.75371e-18)
(-6.39527 5.44261 0)
(-6.08468 4.94425 2.74558e-18)
(-5.61688 4.42272 -2.60275e-18)
(-4.97179 3.87612 2.29829e-18)
(-4.13673 3.29881 -1.30014e-19)
(-3.11473 2.68478 -3.2173e-20)
(-1.93207 2.03044 -2.77624e-20)
(-0.62873 1.34672 -2.96147e-20)
(0.740946 0.656098 -2.16834e-18)
(2.11303 -0.0286801 3.27642e-20)
(3.42484 -0.697339 0)
(4.62724 -1.33335 -2.10664e-18)
(5.68689 -1.91857 1.71444e-18)
(6.58512 -2.43761 0)
(7.31583 -2.87903 -1.91229e-18)
(7.88346 -3.23689 1.41632e-18)
(8.30169 -3.51154 0)
(8.59164 -3.70889 -2.04316e-19)
(8.77836 -3.83821 0)
(8.88651 -3.90967 -2.43356e-18)
(8.93704 -3.93263 5.06068e-18)
(8.94589 -3.9151 -2.38856e-18)
(8.92435 -3.86398 2.46304e-19)
(8.88032 -3.78547 2.34835e-19)
(8.81953 -3.68534 -1.97999e-18)
(8.74642 -3.56904 1.71534e-18)
(8.66461 -3.44152 -2.4744e-19)
(8.57714 -3.30716 -2.33871e-19)
(8.48646 -3.1696 4.05391e-19)
(8.39454 -3.03174 1.7554e-19)
(8.30296 -2.89559 1.64081e-18)
(8.21311 -2.76271 -2.97666e-20)
(8.12582 -2.63641 -1.50262e-18)
(8.03883 -2.53403 -3.39628e-19)
(-24.2457 11.2039 0)
(-63.8097 36.377 -1.53829e-19)
(-80.973 41.6658 1.13871e-19)
(-60.7316 35.8892 -3.1106e-17)
(-27.3324 19.854 5.78114e-17)
(1.37662 6.06489 -4.72373e-17)
(21.3696 -5.52265 2.13662e-17)
(35.0063 -16.0738 0)
(43.9272 -26.0796 1.90076e-19)
(48.514 -35.6891 -3.97262e-18)
(48.9132 -44.7239 4.26261e-18)
(45.9307 -52.7559 -1.09686e-18)
(41.1349 -59.278 4.31448e-18)
(36.3489 -63.9165 1.79905e-18)
(32.7159 -66.5063 1.55773e-18)
(30.47 -67.0799 -6.50002e-18)
(29.2254 -65.8981 -1.88288e-20)
(28.4244 -63.3675 1.00957e-17)
(27.5567 -59.9573 -1.02505e-17)
(26.1047 -56.0786 1.58309e-19)
(23.5193 -51.9864 8.96449e-22)
(19.4208 -47.837 -2.64334e-19)
(13.9067 -43.7531 6.15157e-18)
(7.54546 -39.8032 -1.5754e-18)
(1.16214 -36.0289 -4.72247e-18)
(-4.39593 -32.4968 4.97982e-20)
(-8.50465 -29.261 -4.01133e-19)
(-10.9845 -26.301 2.73571e-18)
(-12.1136 -23.5244 -5.5011e-18)
(-12.3683 -20.8574 3.21872e-18)
(-12.1548 -18.3143 0)
(-11.7129 -15.944 -1.21137e-17)
(-11.1656 -13.774 2.45164e-17)
(-10.5854 -11.8001 -1.25446e-17)
(-10.0243 -9.99767 1.23729e-17)
(-9.51947 -8.33658 -1.31916e-17)
(-9.09257 -6.79062 -2.30222e-19)
(-8.75048 -5.34179 0)
(-8.48709 -3.98037 1.05983e-19)
(-8.28585 -2.70333 -8.71086e-18)
(-8.12382 -1.50338 9.22872e-18)
(-7.98107 -0.397497 -2.54357e-19)
(-7.83495 0.605121 2.34946e-19)
(-7.66046 1.49743 0)
(-7.43465 2.27432 0)
(-7.13731 2.9308 4.86437e-18)
(-6.74799 3.4624 -5.55262e-18)
(-6.24558 3.86516 -2.22646e-19)
(-5.60996 4.13392 -4.08035e-18)
(-4.82546 4.26325 8.12433e-18)
(-3.8852 4.24787 -3.53262e-18)
(-2.79692 4.08505 0)
(-1.58674 3.7771 3.393e-18)
(-0.2992 3.33604 -3.14961e-18)
(1.01291 2.78592 0)
(2.29686 2.15397 2.87718e-18)
(3.5082 1.46943 -2.6937e-18)
(4.61798 0.763379 2.46218e-18)
(5.61171 0.0661276 -2.11444e-18)
(6.48096 -0.59489 0)
(7.21783 -1.19681 5.2497e-19)
(7.81684 -1.72349 2.2755e-19)
(8.28051 -2.16699 -1.88311e-18)
(8.62211 -2.52707 2.7156e-19)
(8.86255 -2.80877 1.74638e-18)
(9.02427 -3.01939 0)
(9.12624 -3.16643 1.73027e-19)
(9.18213 -3.25687 0)
(9.20105 -3.2974 0)
(9.18925 -3.2948 -2.52944e-18)
(9.15168 -3.25617 2.46614e-18)
(9.09288 -3.18875 1.94238e-18)
(9.01726 -3.09961 1.793e-19)
(8.92907 -2.99526 -1.82974e-18)
(8.8322 -2.88137 -2.1078e-18)
(8.72999 -2.76253 1.83171e-18)
(8.62524 -2.6421 -1.97471e-19)
(8.5202 -2.52271 -1.58253e-18)
(8.41615 -2.40836 3.40388e-18)
(8.31212 -2.31361 -1.12922e-18)
(-9.0114 1.27461 -9.03655e-17)
(-30.714 8.67174 6.75632e-17)
(-53.7733 16.1296 6.61044e-17)
(-73.6093 22.5544 -6.74818e-17)
(-89.2146 26.3429 -1.4415e-19)
(-102.259 27.7302 -1.54955e-19)
(-114.103 27.2603 0)
(-125.6 25.7501 -5.21958e-17)
(-136.798 23.4833 5.35976e-17)
(-145.379 19.8047 0)
(-145.718 12.8802 3.12789e-17)
(-131.355 0.806916 -5.47049e-17)
(-100.316 -16.551 8.71258e-18)
(-57.4956 -36.9491 2.1355e-17)
(-11.8168 -56.7825 -6.95043e-18)
(28.2233 -72.6323 -3.82982e-20)
(57.1757 -82.3879 2.12273e-19)
(73.2754 -85.5875 0)
(77.8084 -83.0604 1.00845e-17)
(73.646 -76.2748 -1.02701e-17)
(63.8881 -66.8352 2.06682e-19)
(51.4064 -56.2379 8.32189e-18)
(38.8128 -45.8441 -8.27635e-18)
(28.1398 -36.6537 6.12254e-18)
(20.2935 -29.1319 -6.20111e-18)
(15.0351 -23.2693 -4.99806e-20)
(11.6201 -18.8487 4.55356e-18)
(9.35678 -15.6842 -1.16746e-19)
(7.80912 -13.6671 -8.72639e-18)
(6.70404 -12.6368 -2.18751e-19)
(5.7806 -12.2882 4.51248e-18)
(4.803 -12.2334 5.01807e-18)
(3.65745 -12.1483 -5.25739e-18)
(2.36773 -11.8666 0)
(1.03107 -11.3684 3.65513e-19)
(-0.245786 -10.7072 3.59045e-19)
(-1.38176 -9.94599 0)
(-2.33374 -9.12784 9.7535e-18)
(-3.09437 -8.27319 -1.01162e-17)
(-3.67993 -7.38957 -2.94859e-19)
(-4.11606 -6.48166 0)
(-4.42334 -5.54835 2.55037e-19)
(-4.61666 -4.59202 7.54026e-18)
(-4.70494 -3.62805 -7.5293e-18)
(-4.68927 -2.67311 0)
(-4.5684 -1.74995 -5.44817e-18)
(-4.34188 -0.885072 6.3357e-18)
(-4.00822 -0.0961513 0)
(-3.56286 0.59866 0)
(-3.00553 1.18483 -2.64161e-19)
(-2.34184 1.64898 -2.45632e-19)
(-1.5833 1.98347 0)
(-0.748366 2.17955 3.33811e-18)
(0.1384 2.23221 -3.52161e-18)
(1.05645 2.14793 -3.16392e-18)
(1.99329 1.93894 3.27865e-19)
(2.94252 1.62335 5.82995e-18)
(3.89572 1.22285 -5.55627e-18)
(4.83336 0.762131 -2.30284e-19)
(5.72258 0.268512 2.23589e-18)
(6.52526 -0.231011 -2.84842e-19)
(7.21233 -0.712937 0)
(7.77374 -1.15944 0)
(8.21819 -1.55883 2.05588e-18)
(8.56475 -1.9044 -2.28062e-18)
(8.83329 -2.19274 0)
(9.03877 -2.42255 2.37126e-19)
(9.19038 -2.5942 0)
(9.29335 -2.70983 1.55796e-18)
(9.35137 -2.77355 -1.52043e-18)
(9.36831 -2.79126 3.73534e-19)
(9.34895 -2.77022 2.90584e-18)
(9.29896 -2.71839 -2.52841e-18)
(9.22457 -2.64369 3.08771e-19)
(9.13194 -2.55341 0)
(9.02675 -2.45371 0)
(8.91388 -2.34932 0)
(8.79722 -2.24398 -2.02491e-18)
(8.67919 -2.14238 -1.50079e-19)
(8.56047 -2.0563 3.25262e-18)
(-25.959 7.16944 -2.04771e-19)
(-46.9397 14.7518 -1.82138e-18)
(-46.5385 10.5368 1.86056e-18)
(-38.8527 9.36777 -5.60927e-18)
(-35.6963 9.27546 5.33586e-18)
(-33.7353 11.8049 -3.37379e-19)
(-32.1317 15.5801 -2.95637e-19)
(-29.9577 19.8981 0)
(-26.6516 24.5333 -2.21484e-19)
(-21.9812 29.3115 0)
(-15.3133 33.8409 -1.9233e-19)
(-5.3911 37.1786 -7.20019e-18)
(8.72001 38.1287 7.1598e-18)
(26.5534 35.8506 1.4709e-17)
(46.1979 30.2335 -1.47045e-17)
(65.1351 21.8964 1.74946e-17)
(81.1533 11.95 -1.85553e-17)
(92.8344 1.65998 0)
(99.549 -7.8216 0)
(101.264 -15.6218 0)
(98.4102 -21.2744 -1.61246e-17)
(91.7862 -24.5724 3.22571e-17)
(82.3549 -25.5438 -5.08836e-19)
(71.06 -24.481 -3.21439e-17)
(58.7208 -21.9345 1.65421e-17)
(45.9905 -18.5685 0)
(33.3438 -14.9292 4.0109e-19)
(21.1348 -11.4031 0)
(9.93573 -8.39264 -1.13509e-17)
(0.775813 -6.38641 1.11508e-17)
(-5.29623 -5.75279 -8.49777e-20)
(-8.03859 -6.44515 0)
(-8.28989 -7.98113 6.88211e-18)
(-7.35871 -9.76684 -1.31509e-17)
(-6.23486 -11.3825 6.43064e-18)
(-5.33103 -12.6312 -5.51066e-18)
(-4.69348 -13.4635 1.08428e-17)
(-4.25286 -13.8972 -5.32461e-18)
(-3.94192 -13.9752 0)
(-3.7176 -13.7508 0)
(-3.55406 -13.2768 0)
(-3.43223 -12.6029 4.20541e-18)
(-3.33467 -11.7767 -1.23781e-17)
(-3.24517 -10.8447 7.91869e-18)
(-3.14673 -9.85013 0)
(-3.01989 -8.8241 -6.65825e-18)
(-2.84673 -7.78939 6.43739e-18)
(-2.61389 -6.76878 5.57091e-18)
(-2.30893 -5.7893 -7.16259e-19)
(-1.92305 -4.86964 -3.32001e-19)
(-1.45117 -4.02715 -2.92969e-19)
(-0.891604 -3.2758 -4.45365e-18)
(-0.244003 -2.6204 0)
(0.487024 -2.0633 0)
(1.29067 -1.60939 -3.2859e-18)
(2.15107 -1.25796 3.50914e-18)
(3.04509 -1.00512 0)
(3.94129 -0.845604 0)
(4.80295 -0.772701 1.97777e-19)
(5.59617 -0.778222 3.36683e-19)
(6.29884 -0.852026 0)
(6.90533 -0.981799 0)
(7.42425 -1.15328 -3.28543e-19)
(7.87089 -1.35098 -3.12289e-19)
(8.2593 -1.5592 2.47787e-18)
(8.5977 -1.76292 -4.26435e-18)
(8.88821 -1.94875 -1.66788e-19)
(9.12894 -2.10577 3.8059e-18)
(9.3169 -2.22633 -3.82063e-18)
(9.45012 -2.3065 3.37235e-18)
(9.52906 -2.34615 -6.40318e-19)
(9.55694 -2.34839 -1.51383e-18)
(9.53951 -2.31874 2.7335e-18)
(9.48431 -2.26406 -6.47411e-20)
(9.39967 -2.1915 -4.88836e-18)
(9.29379 -2.10763 2.62796e-18)
(9.17404 -2.01776 0)
(9.04646 -1.92622 4.99881e-19)
(8.91503 -1.83803 0)
(8.78218 -1.76203 -1.75946e-18)
(-6.0271 5.34034 0)
(-19.52 26.3756 6.41426e-21)
(-23.769 32.3588 7.51958e-21)
(-1.79743 41.4059 -1.09966e-16)
(23.2685 43.5209 2.14e-16)
(39.9627 48.3605 -1.02977e-16)
(46.4587 54.409 3.04169e-19)
(46.152 60.9264 0)
(42.8138 67.151 0)
(39.0037 72.464 0)
(35.9229 76.4746 1.99666e-19)
(33.7792 78.8604 2.41166e-19)
(32.1664 79.3025 0)
(30.4295 77.5441 -5.05449e-20)
(28.0024 73.4417 -3.96405e-19)
(24.5826 66.9818 1.60248e-17)
(20.1246 58.2699 -1.58121e-17)
(14.742 47.5089 4.35552e-21)
(8.69722 35.0052 0)
(2.55236 21.2926 8.00352e-20)
(-2.74099 7.38233 -2.09955e-19)
(-6.31393 -5.21238 1.05792e-17)
(-7.93328 -15.0435 2.0086e-19)
(-8.49457 -21.5907 -1.07231e-17)
(-9.17859 -25.4056 -4.24535e-19)
(-10.5067 -27.4507 2.00924e-19)
(-12.3768 -28.3504 -1.22261e-17)
(-14.4402 -28.3506 1.11898e-17)
(-16.2591 -27.5732 3.66496e-19)
(-17.402 -26.2234 3.37248e-19)
(-17.6253 -24.5739 3.05544e-19)
(-16.9719 -22.8954 -9.2574e-18)
(-15.656 -21.3766 9.33839e-18)
(-13.9604 -20.1023 4.83819e-19)