/*--------------------------------*- C++ -*----------------------------------*\
| =========                 |                                                 |
| \\      /  F ield         | OpenFOAM: The Open Source CFD Toolbox           |
|  \\    /   O peration     | Version:  2012                                  |
|   \\  /    A nd           | Website:  www.openfoam.com                      |
|    \\/     M anipulation  |                                                 |
\*---------------------------------------------------------------------------*/
FoamFile
{
    version     2.0;
    format      ascii;
    class       volScalarField;
    location    "1.3";
    object      p;
}
// * * * * * * * * * * * * * * * * * * * * * * * * * * * * * * * * * * * * * //

dimensions      [0 2 -2 0 0 0 0];


internalField   nonuniform List<scalar> 
42400
(
3500.17
3304.43
3035.99
2733.75
2439.18
2231.66
2129.02
2145.71
2319.74
2659.11
3100.16
3558.79
3969.02
4264.81
4407.32
4404.87
4279.22
4046.63
3727.36
3350.9
2951.09
2559.26
2198.59
1879.43
1602.91
1367.07
1168.74
1002.32
858.784
727.725
603.776
488.245
384.383
294.167
218.427
156.875
108.847
72.45
45.4995
26.2491
12.7808
3.26972
-3.74523
-9.32714
-14.1735
-18.6609
-22.9371
-27.0249
-30.8884
-34.4687
-37.7098
-40.5783
-43.173
-45.5172
-47.5137
-49.2092
-50.6106
-51.7616
-52.7133
-53.5117
-54.1904
-54.7686
-55.2495
-55.6212
-55.8604
-55.9381
-55.8283
-55.5129
-54.9844
-54.2437
-53.2977
-52.1555
-50.8271
-49.323
-47.6569
-45.8475
-43.9189
-41.9008
-39.8498
-37.8195
11726.8
11605.2
11451
11221.9
10942.7
10650.1
10320.1
9898.02
9346.14
8670
7901.32
7081.63
6255.84
5465.8
4739.36
4089.13
3518.63
3026.5
2606.89
2251.47
1952.19
1702.57
1496.23
1324.32
1171.61
1019.57
855.587
676.614
489.939
313.861
178.237
101.686
71.0057
60.1358
54.0309
49.2728
45.2043
41.5702
38.2708
34.8735
31.0671
26.6535
21.5302
15.7222
9.37658
2.77057
-3.66648
-9.7258
-15.3984
-20.6018
-25.2934
-29.4761
-33.0656
-36.0972
-38.7591
-41.1117
-43.1896
-45.0314
-46.6677
-48.119
-49.3964
-50.5017
-51.4298
-52.1707
-52.7125
-53.0447
-53.1613
-53.0618
-52.7521
-52.2421
-51.5429
-50.664
-49.6124
-48.3951
-47.0237
-45.5184
-43.9093
-42.2357
-40.5458
-38.8576
-10388.2
-10088.4
-9719
-9284.03
-8713.16
-8022.43
-7201.2
-6265.26
-5243.74
-4160.51
-3040.52
-1934.89
-926.515
-93.2442
535.688
981.285
1282.95
1471.82
1571.02
1605.47
1601.67
1578.59
1540.89
1479.53
1381.26
1239.83
1057.96
848.651
635.628
449.39
311.368
221.968
168.326
134.598
110.897
91.4807
74.2681
59.02
45.8798
34.8342
25.6279
17.9053
11.3269
5.63173
0.619365
-3.8562
-8.03367
-11.9408
-15.4717
-18.6812
-21.6524
-24.4494
-27.1181
-29.6888
-32.1738
-34.5632
-36.8338
-38.9592
-40.9156
-42.6855
-44.2575
-45.6252
-46.786
-47.74
-48.4893
-49.0383
-49.3939
-49.5649
-49.56
-49.3854
-49.042
-48.5261
-47.8324
-46.9598
-45.9175
-44.7282
-43.4269
-42.057
-40.6667
-39.2826
-308.429
-341.646
-479.56
-743.175
-1045.97
-1369.33
-1742.06
-2175.65
-2636.88
-3069.57
-3424.98
-3675.14
-3812.56
-3843.24
-3777.4
-3624.12
-3394.46
-3105.41
-2775.33
-2417.19
-2041.63
-1661.91
-1294.47
-957.837
-668.747
-440.062
-277.221
-176.733
-125.751
-103.091
-85.1007
-55.7126
-16.3763
22.6314
49.835
61.203
59.1355
48.9839
35.427
21.469
8.70354
-2.18987
-11.083
-18.1158
-23.501
-27.4854
-30.3124
-32.1992
-33.3436
-33.9509
-34.2409
-34.4324
-34.7137
-35.209
-35.9584
-36.9254
-38.0271
-39.1715
-40.2845
-41.3212
-42.2629
-43.1077
-43.8614
-44.5299
-45.1162
-45.6186
-46.0317
-46.3465
-46.5503
-46.6273
-46.5591
-46.3284
-45.9235
-45.3437
-44.6022
-43.7258
-42.7505
-41.7159
-40.6593
-39.5974
6207.66
6011.91
5703.95
5292.22
4790.74
4308.51
3883.82
3513.62
3178.83
2862.72
2555.77
2254.35
1956.51
1659.79
1367.8
1092.25
846.249
636.297
457.477
297.092
146.441
6.05214
-118.386
-221.804
-305.607
-376.662
-444.389
-511.887
-573.79
-620.896
-645.45
-643.771
-616.924
-570.151
-511.282
-448.115
-386.421
-330.093
-280.316
-236.989
-200.162
-169.52
-144.402
-124
-107.43
-93.8578
-82.5716
-73.0152
-64.8121
-57.7654
-51.8187
-46.9855
-43.2704
-40.6148
-38.8878
-37.9105
-37.4921
-37.4623
-37.6903
-38.0866
-38.5941
-39.1773
-39.8115
-40.4754
-41.1482
-41.807
-42.4272
-42.9827
-43.4465
-43.7918
-43.9946
-44.0371
-43.9115
-43.622
-43.1851
-42.6262
-41.9757
-41.2634
-40.5174
-39.7425
-4801.01
-4710.11
-4585.28
-4386.85
-4097.43
-3731.86
-3323.63
-2914.96
-2543.99
-2242.1
-2025.22
-1878.96
-1780.71
-1707.84
-1620.7
-1493.54
-1332.78
-1150.11
-949.792
-730.837
-489.699
-224.097
54.8392
308.375
483.536
552.104
530.27
456.538
364.998
276.829
201.431
142.069
97.1712
62.903
35.5589
11.9182
-9.30417
-27.5699
-42.4485
-54.2318
-62.3762
-66.8428
-68.1524
-67.0403
-64.2764
-60.5637
-56.4803
-52.4677
-48.8369
-45.7854
-43.4028
-41.6724
-40.4908
-39.7084
-39.1753
-38.7751
-38.4441
-38.1679
-37.9637
-37.8605
-37.8829
-38.0425
-38.3357
-38.7454
-39.2449
-39.8012
-40.3784
-40.9397
-41.45
-41.8773
-42.1956
-42.3873
-42.4449
-42.3717
-42.1794
-41.8855
-41.5095
-41.0703
-40.585
-40.0539
-6679.23
-6521.6
-6333.99
-6093.33
-5757.83
-5316.59
-4778.91
-4173.3
-3555.65
-3028.19
-2660.16
-2389.51
-2129.03
-1895.85
-1728.77
-1607.69
-1508.19
-1429.47
-1368.05
-1311.88
-1247.85
-1160.9
-1033.9
-858.163
-646.08
-427.473
-231.879
-75.7371
38.7927
117.758
169.604
201.878
220.242
228.492
228.154
220.749
207.266
188.519
165.464
139.823
113.02
86.6568
61.9868
39.9246
21.0465
5.59059
-6.5109
-15.5657
-22.0407
-26.4721
-29.3914
-31.2603
-32.4334
-33.1611
-33.613
-33.9049
-34.1174
-34.3095
-34.5252
-34.7963
-35.1431
-35.5746
-36.0891
-36.676
-37.3175
-37.9904
-38.6683
-39.3238
-39.9301
-40.4637
-40.9063
-41.2463
-41.4788
-41.6054
-41.6315
-41.5657
-41.4177
-41.198
-40.9177
-40.5771
8029.51
7709.82
7291.21
6852.47
6376.04
5935.67
5500.23
5036.74
4546.58
4078.25
3690.96
3371.17
3060.82
2747.68
2450
2172.6
1916.47
1682
1467.96
1274.15
1101.24
948.611
814.403
696.55
592.827
500.696
416.575
338.449
265.661
198.725
138.676
86.469
42.7029
7.54295
-19.2775
-38.4127
-50.839
-57.751
-60.4299
-60.0808
-57.7399
-54.4734
-50.9198
-47.4669
-44.3419
-41.6513
-39.4223
-37.6351
-36.2446
-35.1955
-34.4316
-33.9008
-33.5562
-33.3574
-33.2723
-33.2792
-33.366
-33.529
-33.7696
-34.0909
-34.4946
-34.9783
-35.5352
-36.1532
-36.8158
-37.5033
-38.1947
-38.8685
-39.5049
-40.0866
-40.5994
-41.0327
-41.3792
-41.6354
-41.8007
-41.8773
-41.8699
-41.7849
-41.6309
-41.4101
9964.9
9723.35
9354.55
8825.87
8138.23
7446.07
6816.83
6248.37
5712.43
5188.1
4670.52
4165.92
3684.21
3233.97
2820.3
2445.24
2109.05
1809.98
1543.57
1302.61
1078.13
862.407
651.204
446.622
254.356
80.1896
-70.1428
-192.15
-282.775
-341.458
-370.882
-376.633
-364.33
-340.366
-309.775
-276.319
-242.671
-210.588
-181.12
-154.788
-131.75
-111.932
-95.1211
-81.0375
-69.3829
-59.8635
-52.2028
-46.146
-41.459
-37.9283
-35.3589
-33.5741
-32.4159
-31.7474
-31.4542
-31.4443
-31.6473
-32.0105
-32.4962
-33.0771
-33.7326
-34.446
-35.2023
-35.9872
-36.7863
-37.5851
-38.3693
-39.1243
-39.8359
-40.4908
-41.0771
-41.5851
-42.0076
-42.3405
-42.5826
-42.7353
-42.802
-42.7881
-42.7016
-42.5464
-6664.76
-6389.61
-6047.77
-5624.9
-5045.58
-4335.27
-3592.74
-2931.17
-2387.42
-1945.41
-1590.62
-1313.35
-1100.1
-936.966
-813.939
-726.769
-678.084
-675.618
-722.557
-808.185
-907.412
-994.665
-1055.38
-1085.83
-1086.33
-1060.81
-1014.43
-951.877
-876.706
-792.154
-702.073
-610.716
-522.095
-439.378
-364.588
-298.672
-241.779
-193.556
-153.375
-120.461
-93.9697
-73.0451
-56.8628
-44.6569
-35.7342
-29.4828
-25.3515
-22.8797
-21.6736
-21.4046
-21.8013
-22.642
-23.7517
-25.0002
-26.2994
-27.5962
-28.8635
-30.0915
-31.2804
-32.4339
-33.5563
-34.6501
-35.7149
-36.7479
-37.7436
-38.6951
-39.5943
-40.4324
-41.201
-41.8924
-42.5004
-43.0201
-43.4487
-43.7853
-44.0307
-44.1874
-44.2596
-44.2526
-44.1745
-44.0303
-4067.22
-4109.27
-4174.8
-4227.21
-4231.8
-4166.5
-4056.01
-3945.35
-3859.38
-3794.29
-3736.43
-3675.98
-3605.69
-3521.12
-3420.24
-3301.31
-3163.01
-3004.48
-2824.46
-2622.06
-2401.56
-2171.66
-1939.54
-1707.85
-1478.43
-1255.7
-1046.78
-856.006
-684.183
-531.049
-396.794
-281.918
-186.592
-110.18
-51.1602
-7.40013
23.4767
43.7997
55.6995
61.0571
61.5073
58.4351
52.9691
46.001
38.2178
30.1493
22.2058
14.6892
7.79207
1.60377
-3.86831
-8.66536
-12.8588
-16.5304
-19.7621
-22.6301
-25.2013
-27.5308
-29.6615
-31.6246
-33.4409
-35.1235
-36.6795
-38.1125
-39.4237
-40.6135
-41.6824
-42.6311
-43.461
-44.1746
-44.7745
-45.2647
-45.6495
-45.934
-46.1237
-46.2248
-46.2436
-46.1871
-46.0646
-45.8821
-196.67
-104.923
6.40594
118.866
244.988
366.216
483.058
598.801
716.334
837.516
960.678
1080.11
1184.95
1263.5
1308.83
1321.03
1305.94
1271.42
1223.32
1164.02
1094.5
1015.73
929.461
838.04
744.649
652.781
566.103
487.445
418.943
361.635
314.907
276.898
245.176
217.468
192.117
168.21
145.495
123.768
103.182
84.1184
67.0613
52.4064
40.4535
31.1926
24.2386
18.9768
14.7719
11.0933
7.56295
3.95304
0.0547013
-3.97034
-8.05274
-12.1099
-16.0552
-19.8227
-23.3692
-26.6701
-29.7145
-32.4995
-35.0274
-37.3035
-39.3352
-41.1316
-42.7032
-44.0616
-45.2196
-46.1906
-46.9889
-47.6285
-48.1237
-48.4884
-48.7359
-48.8786
-48.9283
-48.8952
-48.7888
-48.6179
-48.3926
-48.1192
2704.61
2655.41
2591.85
2506.05
2394.14
2265.29
2124.03
1973.52
1815.08
1648.42
1472.62
1287.42
1094.4
898.107
704.649
520.418
350.698
198.667
65.3092
-49.5737
-146.186
-224.212
-282.889
-321.396
-339.988
-340.489
-326.324
-301.833
-271.589
-239.409
-208.092
-179.696
-155.08
-133.885
-115.086
-97.4557
-80.0887
-62.3452
-44.466
-27.412
-12.38
-0.274547
8.33459
13.3209
15.063
14.3038
11.8763
8.47583
4.563
0.397433
-3.76771
-7.98558
-12.2054
-16.3606
-20.3982
-24.2748
-27.9555
-31.4125
-34.6239
-37.5727
-40.2469
-42.6392
-44.7471
-46.5733
-48.125
-49.414
-50.4559
-51.2694
-51.8757
-52.2972
-52.5567
-52.6769
-52.679
-52.5825
-52.4044
-52.1591
-51.8585
-51.5127
-51.1314
-50.7197
-4441.67
-4392.38
-4345.07
-4295.51
-4238.15
-4171.11
-4085.07
-3971.75
-3830.64
-3668.99
-3496.35
-3320.48
-3146.58
-2977.93
-2816.7
-2664.21
-2521.05
-2387.02
-2261.16
-2142.03
-2028.31
-1918.86
-1812.51
-1707.23
-1600.93
-1492.29
-1380.99
-1267.05
-1151.77
-1037.21
-925.517
-818.133
-716.104
-620.364
-531.702
-450.586
-377.02
-310.714
-251.447
-199.261
-154.385
-116.993
-86.9623
-63.7793
-46.6093
-34.46
-26.3452
-21.3941
-18.8853
-18.2396
-18.9979
-20.8063
-23.3493
-26.382
-29.7061
-33.1594
-36.6105
-39.9554
-43.1132
-46.0232
-48.6421
-50.9423
-52.9094
-54.5412
-55.8455
-56.8386
-57.5438
-57.9892
-58.2067
-58.2293
-58.0903
-57.8215
-57.4517
-57.0063
-56.5066
-55.9693
-55.4068
-54.8284
-54.242
-53.6489
461.597
499.658
539.788
570.904
612.761
673.31
769.793
897.045
1021.85
1107.03
1132.97
1100.94
1022.67
911.682
779.536
635.264
486.183
338.727
198.653
70.7687
-41.2394
-134.635
-207.776
-260.863
-295.538
-313.844
-318.03
-311.787
-298.907
-283.071
-267.522
-254.394
-244.161
-235.835
-227.533
-217.255
-203.651
-186.441
-166.371
-144.84
-123.422
-103.481
-85.959
-71.3339
-59.7015
-50.9034
-44.6463
-40.5852
-38.3645
-37.6473
-38.178
-39.6237
-41.7273
-44.2716
-47.0666
-49.953
-52.8016
-55.5096
-57.9988
-60.212
-62.1107
-63.6731
-64.8911
-65.7693
-66.3226
-66.5747
-66.5563
-66.3032
-65.8539
-65.2478
-64.5232
-63.7149
-62.8539
-61.9657
-61.0703
-60.1823
-59.311
-58.4619
-57.6377
-56.8351
5552.49
5686.92
5830.71
5874.04
5813.94
5643.34
5412.8
5164.62
4896.57
4587
4239.42
3875.89
3513.09
3160.06
2822.98
2507
2216.17
1952.25
1713.26
1495.29
1297.57
1122.17
968.082
831.07
708.983
601.232
507.412
426.813
358.047
299.165
248.16
203.373
163.66
128.367
97.19
70
46.6995
27.1183
10.9623
-2.1854
-12.8223
-21.4602
-28.567
-34.5312
-39.6559
-44.1681
-48.2293
-51.9534
-55.4206
-58.6794
-61.6994
-64.5345
-67.181
-69.6229
-71.8413
-73.8157
-75.526
-76.9545
-78.0877
-78.9164
-79.4375
-79.6538
-79.5748
-79.2167
-78.6021
-77.76
-76.7243
-75.533
-74.2257
-72.8419
-71.4182
-69.9869
-68.5746
-67.2013
-65.881
-64.6217
-63.4263
-62.2938
-61.2204
-60.197
3961.41
3689.19
3283.64
2790.51
2217.35
1699.93
1293.03
1009.99
813.39
637.493
443.341
234.959
42.6641
-93.4499
-147.375
-122.727
-43.6531
59.0422
156.185
237.205
315.977
400.562
475.994
527.152
551.905
554.036
538.694
511.563
476.358
435.071
390.266
343.796
297.127
251.472
207.753
166.622
128.5
93.6267
62.1087
33.9496
9.0826
-12.6055
-31.2772
-47.1625
-60.5041
-71.551
-80.5575
-87.773
-93.4377
-97.7733
-100.981
-103.241
-104.71
-105.522
-105.788
-105.599
-105.03
-104.142
-102.981
-101.586
-99.9886
-98.2151
-96.289
-94.2331
-92.0713
-89.8299
-87.5379
-85.2262
-82.9266
-80.6698
-78.4827
-76.3875
-74.4
-72.5299
-70.7806
-69.1502
-67.6327
-66.2187
-64.8964
-63.6515
-7295.37
-7121.36
-6946.53
-6774.84
-6596.49
-6398.92
-6161.46
-5834.19
-5360.7
-4725.77
-3961.61
-3113.56
-2231.72
-1397.89
-721.035
-267.938
-3.85745
167.142
312.19
447.82
571.202
670.88
731.039
744.923
721.174
677.837
628.898
576.125
516.74
452.267
385.959
320.221
256.197
194.787
137.03
83.8711
35.9614
-6.35775
-43.0268
-74.201
-100.171
-121.312
-138.05
-150.825
-160.098
-166.345
-170.035
-171.615
-171.488
-170.008
-167.479
-164.152
-160.236
-155.9
-151.281
-146.493
-141.626
-136.754
-131.934
-127.211
-122.614
-118.163
-113.866
-109.728
-105.75
-101.933
-98.2819
-94.8015
-91.4994
-88.3827
-85.4567
-82.7247
-80.1863
-77.8383
-75.6734
-73.6809
-71.8466
-70.1538
-68.5836
-67.117
6687.35
6507.79
6294.41
6032.68
5660.92
5224.48
4731.55
4189.67
3616.82
3036.74
2474.59
1957.46
1519.35
1194
994.598
919.912
969.91
1095.48
1180.6
1149.93
1031.68
889.483
757.287
637.088
522.052
409.058
299.529
196.51
101.821
15.3264
-63.206
-133.513
-195.278
-248.196
-292.135
-327.034
-352.855
-369.755
-378.298
-379.52
-374.805
-365.677
-353.596
-339.801
-325.239
-310.561
-296.171
-282.274
-268.937
-256.145
-243.845
-231.976
-220.492
-209.369
-198.608
-188.233
-178.287
-168.816
-159.868
-151.48
-143.669
-136.435
-129.758
-123.603
-117.932
-112.703
-107.878
-103.424
-99.3081
-95.504
-91.9868
-88.7356
-85.7333
-82.9664
-80.4225
-78.0882
-75.9472
-73.9798
-72.1632
-70.475
609.913
672.704
802.445
946.896
1047.23
1066.75
1028.05
963.355
897.31
845.902
827.45
859.778
946.989
1069.92
1182.45
1219.48
1124.98
895.37
597.444
318.565
97.6957
-81.6133
-252.907
-436.962
-638.486
-849.472
-1053.38
-1233.28
-1377.08
-1478.56
-1535.41
-1548.04
-1518.99
-1452.04
-1352.91
-1230.6
-1097.25
-965.887
-846.405
-743.798
-658.8
-589.719
-533.814
-488.003
-450.027
-418.02
-390.434
-366.049
-343.947
-323.47
-304.174
-285.788
-268.173
-251.289
-235.157
-219.837
-205.408
-191.947
-179.517
-168.154
-157.857
-148.586
-140.269
-132.814
-126.124
-120.104
-114.667
-109.735
-105.236
-101.108
-97.3
-93.7703
-90.4919
-87.4488
-84.6318
-82.0333
-79.6423
-77.4422
-75.4114
-73.527
7196.19
7236.7
7340.36
7484
7633.13
7743.48
7787.12
7749.09
7626.85
7427.2
7160.4
6838.72
6477.03
6091.17
5696.06
5301.53
4911.5
4526.2
4146.94
3777.08
3420.16
3079.84
2760.84
2466.71
2198.21
1954.68
1734.86
1537.36
1361.15
1205.58
1069.91
952.778
852.112
765.396
690.255
624.638
566.886
515.125
468.248
425.668
386.43
350.029
316.131
284.512
255.059
227.74
202.583
179.632
158.887
140.22
123.347
107.934
93.7747
80.907
69.5935
60.2236
53.2309
49.0392
47.9628
50.0132
54.6626
61.1196
67.5296
72.5975
75.677
76.7445
76.1804
74.4779
72.0724
69.2134
66.1302
62.9567
59.7846
56.6726
53.6548
50.7496
47.966
45.3033
42.762
40.3246
-3062.92
-3259.72
-3446.24
-3526.52
-3513.94
-3404.1
-3259.29
-3139.65
-3073.7
-3054.12
-3051
-3034.32
-2985.3
-2895.53
-2762.36
-2584.86
-2366.24
-2115.19
-1845.63
-1573.59
-1310.73
-1059.57
-816.333
-579.232
-353.42
-148.755
25.7614
166.172
272.686
348.265
397.2
424.356
434.977
434.072
425.644
412.413
396.078
378.114
359.023
339.1
318.639
298.017
277.696
258.144
239.715
222.503
206.264
190.489
174.649
158.464
142.025
125.702
109.968
95.2994
82.1381
70.8867
61.9218
55.6106
52.175
52.0878
55.0746
59.689
64.5806
68.6564
71.3198
72.472
72.3245
71.2078
69.4248
67.2078
64.7187
62.0712
59.3471
56.6032
53.8796
51.2044
48.5974
46.068
43.6261
41.2642
-13588.5
-12787.4
-11779.9
-10829.8
-9948.95
-9200.87
-8514.05
-7856.06
-7232.52
-6642.8
-6069.42
-5497.97
-4936.97
-4420.3
-3985.31
-3648.58
-3391.31
-3172.23
-2955.74
-2728.94
-2497.21
-2266.94
-2041.95
-1822.37
-1605.88
-1389.67
-1172.71
-957.92
-752.382
-564.072
-399.612
-261.696
-149.541
-60.6003
7.59578
58.7343
95.807
121.401
137.708
146.643
149.912
149.112
145.783
141.358
136.979
133.3
130.419
128.015
125.461
122.315
118.352
113.61
108.288
102.628
96.8763
91.3113
86.2621
82.0904
78.9088
76.3402
74.2218
72.8777
72.0975
71.5786
71.0339
70.2629
69.1922
67.7893
66.0783
64.1235
61.9818
59.7061
57.3442
54.9366
52.5167
50.1114
47.7417
45.4182
43.1536
40.9535
7857.21
7852.5
7789.88
7611.64
7362.4
7083.6
6781.23
6383.69
5800.68
5015.19
4113.11
3234.29
2486.6
1900.12
1445.09
1084.05
796.961
577.975
419.039
303.72
216.371
147.418
92.9584
52.0129
24.9496
12.3492
13.5195
25.6485
44.127
63.8144
80.5138
91.9099
97.6547
98.9035
97.6197
94.4305
90.6382
87.1967
84.5043
82.5804
81.2063
80.1656
79.4357
79.2191
79.7661
81.131
83.0437
84.9864
86.4157
86.9782
86.582
85.3386
83.4623
81.2007
78.8127
76.46
74.2569
72.2511
70.6832
69.5866
68.8046
68.1415
67.5406
66.8659
66.0519
65.0735
63.899
62.5272
60.9724
59.259
57.4156
55.4726
53.4598
51.4046
49.3313
47.2604
45.2079
43.1783
41.1846
39.2415
9911.81
9867.87
9836.14
9754.64
9597.81
9333.95
8991.47
8622.42
8261.34
7907.25
7539.79
7150.41
6755.28
6378.16
6023.15
5666.81
5279.97
4851.84
4393.26
3925.44
3469.71
3039.44
2641.64
2278.85
1951.28
1657.84
1396.69
1165.6
962.501
786.03
635.27
509.267
405.761
322.151
255.701
203.79
164.031
134.301
112.764
97.8171
88.0416
82.1816
79.1574
78.0797
78.248
79.1282
80.3201
81.5254
82.5272
83.1779
83.3882
83.1164
82.3666
81.1758
79.5784
77.6796
75.5886
73.41
71.2539
69.2208
67.3618
65.6281
63.9693
62.3836
60.8413
59.3093
57.7612
56.1799
54.5578
52.8951
51.198
49.4766
47.7433
46.0106
44.29
42.5909
40.9182
39.2656
37.6376
36.0392
-6113.44
-5995.37
-5803.78
-5502.1
-5093.86
-4625.56
-4138.94
-3653.12
-3173.8
-2717.59
-2313.77
-1985.05
-1732.42
-1536.49
-1370.22
-1219.94
-1084.33
-965.12
-859.781
-760.72
-659.452
-551.523
-438.401
-325.256
-219.514
-128.259
-56.8112
-8.00057
18.4671
26.2648
21.3666
9.96295
-2.66872
-13.2117
-19.4675
-20.5175
-16.4184
-8.21439
2.63976
14.7061
26.9064
38.5687
49.2528
58.6312
66.4651
72.6458
77.214
80.3281
82.2041
83.0583
83.074
82.3939
81.1403
79.4206
77.3354
74.9849
72.4649
69.8621
67.2504
64.6834
62.1999
59.8577
57.6272
55.5096
53.4994
51.5868
49.7599
48.0072
46.3194
44.6897
43.1147
41.5939
40.1287
38.7214
37.3741
36.0867
34.8548
33.663
32.5057
31.3816
-2294.49
-2393.17
-2474.47
-2496.92
-2482.45
-2433.74
-2372.59
-2311.94
-2254.38
-2205.27
-2179.17
-2196.24
-2273.77
-2417.68
-2615.67
-2845.17
-3082.94
-3308.28
-3504.47
-3657.61
-3754.13
-3784.95
-3745.67
-3637.25
-3466.41
-3243.7
-2980.74
-2689.39
-2381.86
-2069.2
-1760.87
-1465.23
-1189.28
-938.504
-716.922
-526.434
-367.567
-239.52
-140.118
-65.845
-12.2389
25.4173
51.3693
68.9721
80.6518
88.0897
92.4402
94.507
94.8581
93.9077
91.9607
89.2625
86.0144
82.3822
78.5061
74.5042
70.4762
66.5049
62.6567
58.9836
55.5227
52.3048
49.336
46.6161
44.1371
41.8848
39.8409
37.985
36.2966
34.7566
33.3492
32.0623
30.8876
29.8201
28.8561
27.9912
27.2162
26.5106
25.8576
25.2275
-3614
-2994.39
-2239.23
-1605.96
-1052.34
-570.804
-119.847
287.459
620.035
850.041
989.66
1107.41
1247.28
1349.47
1334.11
1209.45
1030.79
837.354
654.124
496.653
368.324
269.735
201.043
159.752
140.994
136.976
139.903
142.823
140.426
130.901
114.859
94.645
73.54
54.8734
41.4165
35.0802
36.6884
45.6593
60.1307
77.6316
95.6147
111.821
124.618
133.19
137.469
138.011
135.554
130.895
124.744
117.664
110.085
102.325
94.6104
87.0975
79.8925
73.0662
66.6649
60.7181
55.2432
50.2487
45.7351
41.6936
38.112
34.9697
32.239
29.8863
27.8727
26.1557
24.6923
23.4414
22.3672
21.4416
20.6454
19.9684
19.4071
18.961
18.6283
18.3979
18.2589
18.1723
9392.92
9245.86
9097.16
8914.1
8644.9
8307.39
7884.59
7344.63
6642.86
5682.48
4370.28
2919.45
1841.89
1272.6
877.736
528.781
322.504
253.074
280.285
382.39
516.76
647.979
762.631
853.919
917.466
954.578
968.47
962.584
941.215
908.194
866.703
819.248
767.723
713.544
658.34
603.203
548.858
495.982
444.703
395.837
350.453
309.493
273.452
242.286
215.533
192.517
172.53
154.941
139.241
125.05
112.101
100.217
89.2824
79.2221
69.9861
61.5391
53.8539
46.9079
40.6807
35.1557
30.3162
26.1082
22.5324
19.553
17.1262
15.199
13.7092
12.5869
11.7589
11.1546
10.7115
10.3816
10.1342
9.95671
9.85151
9.83066
9.90922
10.0986
10.4085
10.8039
-2346.3
-2165.54
-1883.77
-1524.15
-1111.06
-735.13
-398.247
-95.6016
168.123
383.113
525.216
595.932
673.782
812.653
927.834
910.57
743.921
481.772
244.459
150.004
191.198
268.861
337.517
402.762
465.866
520.815
565.726
601.698
629.788
650.542
664.058
670.166
668.675
659.452
642.031
616.536
583.481
543.816
499.589
452.369
403.738
355.555
309.451
266.822
228.595
195.141
166.343
141.77
120.844
102.975
87.6253
74.3364
62.7367
52.5339
43.5064
35.4914
28.3739
22.0758
16.5469
11.7537
7.67377
4.32458
1.65941
-0.346054
-1.73145
-2.5565
-2.90141
-2.86376
-2.55133
-2.07067
-1.51443
-0.950818
-0.418036
0.0752851
0.544463
1.01974
1.53715
2.13116
2.83129
3.61973
-3288.78
-2944.69
-2576.01
-2345.86
-2169.15
-2030.77
-1890.31
-1731.88
-1543.45
-1322.73
-1084.23
-856.212
-663.801
-517.943
-421.35
-371.121
-351.594
-327.723
-258.706
-140.899
-19.9357
61.7741
99.9391
112.482
113.772
110.621
107.305
107.336
112.488
122.486
135.449
148.645
159.288
164.849
163.448
154.337
137.847
116.102
93.1545
73.3305
59.4693
51.9842
49.5089
49.7832
50.5962
50.4074
48.5143
44.9193
39.9431
34.0385
27.6351
21.0802
14.6291
8.45646
2.67501
-2.64529
-7.45979
-11.7349
-15.4395
-18.5424
-21.0145
-22.8239
-23.9499
-24.3899
-24.1694
-23.3502
-22.0323
-20.3494
-18.4563
-16.5062
-14.6273
-12.904
-11.3705
-10.0181
-8.80896
-7.69199
-6.61545
-5.53321
-4.40747
-3.23934
7091.67
6913.06
6616.2
6184.81
5667.12
5150.21
4654.86
4157.81
3614.08
2993.27
2311.79
1636.64
1044.56
574.619
219.66
-47.9932
-258.044
-437.026
-603.972
-765.032
-911.726
-1025.18
-1090.17
-1106.91
-1089.81
-1055.9
-1015.95
-973.093
-925.98
-873.708
-816.034
-752.62
-682.809
-605.533
-519.76
-425.575
-329.903
-246.171
-185.605
-148.633
-127.174
-112.556
-100.047
-88.375
-77.8047
-68.8211
-61.6395
-56.1913
-52.262
-49.6057
-47.9961
-47.2359
-47.1509
-47.5836
-48.3881
-49.4272
-50.5692
-51.6827
-52.6338
-53.3023
-53.5772
-53.3263
-52.4553
-50.9096
-48.688
-45.8513
-42.5259
-38.8924
-35.1734
-31.5709
-28.2398
-25.2621
-22.6459
-20.3461
-18.2931
-16.418
-14.6658
-12.9941
-11.37
-9.7884
-10879.1
-10433.7
-9810.33
-9038.54
-8078.8
-7040.87
-5955.77
-4854.58
-3793.52
-2850.45
-2088.59
-1514.12
-1086.15
-765.777
-534.979
-382.64
-293.491
-250.26
-236.885
-239.097
-245.349
-248.377
-245.35
-236.831
-225.67
-214.891
-208.631
-210.628
-223.147
-245.831
-275.837
-308.902
-340.538
-366.121
-381.385
-383.784
-373.242
-352.641
-326.702
-299.517
-273.299
-248.843
-226.424
-206.196
-188.217
-172.428
-158.674
-146.752
-136.459
-127.609
-120.039
-113.607
-108.18
-103.633
-99.8411
-96.6727
-93.9932
-91.6662
-89.5144
-87.3359
-84.9571
-82.2399
-79.0384
-75.2391
-70.8453
-65.9086
-60.5874
-55.1182
-49.7672
-44.7668
-40.2638
-36.2994
-32.8272
-29.7541
-26.9833
-24.4405
-22.0791
-19.8682
-17.7828
-15.8202
-5111.05
-5099.9
-5088.26
-5055.64
-4985.01
-4871.28
-4713.52
-4493.96
-4189.57
-3790.73
-3305.81
-2763.18
-2211.79
-1703.72
-1273.55
-931.383
-667.807
-464.456
-305.144
-179.962
-84.0612
-15.0664
29.416
53.1825
59.5572
50.8988
30.2572
0.579583
-35.7816
-76.231
-118.051
-158.432
-195.066
-227.053
-254.163
-276.25
-292.489
-302.343
-305.828
-303.427
-295.981
-284.584
-270.448
-254.736
-238.438
-222.322
-206.936
-192.637
-179.627
-167.991
-157.727
-148.767
-141
-134.293
-128.497
-123.448
-118.986
-115.089
-111.439
-107.829
-104.035
-99.8857
-95.2452
-90.0234
-84.2156
-77.9275
-71.3785
-64.8675
-58.7004
-53.1049
-48.178
-43.8887
-40.1257
-36.7569
-33.6734
-30.8066
-28.1212
-25.5971
-23.2183
-20.9949
17558.3
17237.4
16783.5
16092
15121.3
13996.4
12742.8
11388.4
9995.06
8628.34
7329.3
6116.15
5002.97
4009.08
3150.49
2431.83
1844.35
1367.81
977.988
654.762
381.947
145.039
-66.1806
-258.283
-435.451
-601.218
-757.756
-904.516
-1036.63
-1144.41
-1215.17
-1236.79
-1204.23
-1125.73
-1020.39
-908.431
-802.577
-707.878
-624.859
-552.597
-489.931
-435.698
-388.819
-348.357
-313.535
-283.702
-258.287
-236.759
-218.6
-203.297
-190.346
-179.258
-169.592
-160.969
-153.141
-145.945
-139.245
-132.786
-126.65
-120.713
-114.787
-108.683
-102.26
-95.4589
-88.3309
-81.0492
-73.8916
-67.1745
-61.1554
-55.9511
-51.5199
-47.7081
-44.3255
-41.2097
-38.2586
-35.4276
-32.7069
-30.0964
-27.5951
-25.2342
-12432.1
-11723.5
-10853.9
-9906.07
-8757.68
-7369.55
-5700.37
-3843.31
-2006.99
-415.287
787.414
1567.39
1970.87
2078.06
1978.8
1772.26
1560.52
1415.66
1346.87
1311.91
1268.17
1202.8
1120.71
1027.47
925.643
816.286
700.316
579.133
455.526
333.536
217.403
111.804
20.8293
-53.2206
-110.529
-153.022
-183.257
-203.569
-215.888
-221.893
-223.112
-220.913
-216.445
-210.618
-204.111
-197.4
-190.796
-184.47
-178.486
-172.823
-167.386
-162.039
-156.627
-150.951
-144.863
-138.566
-132.162
-125.645
-119.077
-112.475
-105.831
-99.1463
-92.4363
-85.7537
-79.211
-72.9872
-67.3009
-62.3418
-58.1881
-54.7633
-51.863
-49.2421
-46.7045
-44.1455
-41.5396
-38.9066
-36.2804
-33.6902
-31.1557
-28.7269
-4233.94
-4459.51
-4827.12
-5340.07
-6014
-6712.96
-7314.26
-7702.38
-7807.72
-7625.9
-7211.91
-6650.38
-6007.51
-5313.09
-4581.95
-3835.16
-3103.94
-2428.17
-1846.13
-1375.29
-1008.04
-727.993
-520.962
-373.72
-274.152
-210.89
-173.257
-151.046
-136.818
-125.575
-113.722
-99.1876
-81.3846
-61.1543
-40.6567
-22.8419
-10.5523
-5.63783
-8.49247
-18.1461
-32.6895
-49.9199
-67.7892
-84.6911
-99.5369
-111.717
-120.998
-127.34
-131.053
-132.538
-132.005
-129.729
-126.054
-121.411
-116.257
-110.698
-104.959
-99.3125
-93.9542
-88.8682
-84.0715
-79.5336
-75.2236
-71.1473
-67.3607
-63.9599
-61.0367
-58.6127
-56.5926
-54.7869
-52.994
-51.0724
-48.9627
-46.6699
-44.2361
-41.7148
-39.1567
-36.6007
-34.0718
-31.6204
8739.12
8671
8573.57
8406.72
8133.8
7776.85
7315.72
6728.2
6031.75
5277.89
4524.34
3817.89
3187.3
2648.7
2204.25
1847.47
1565.91
1341.78
1155.16
990.078
839.621
704.193
584.243
476.298
375.312
277.468
182.174
90.8149
6.72167
-68.1759
-132.223
-183.501
-220.494
-242.762
-251.319
-248.404
-236.859
-220.144
-201.454
-183.193
-166.865
-153.185
-142.296
-133.936
-127.588
-122.815
-119.233
-116.581
-114.357
-112.08
-109.578
-106.737
-103.506
-99.9114
-96.0407
-92.0112
-87.9557
-83.9882
-80.108
-76.4934
-73.1366
-70.0277
-67.1802
-64.636
-62.4545
-60.6647
-59.2178
-57.9857
-56.8066
-55.5337
-54.0655
-52.3573
-50.4174
-48.2874
-46.0193
-43.6613
-41.2527
-38.8221
-36.3847
-33.9903
1237.56
1149.91
1023.74
894.207
751.96
643.635
590.358
631.412
801.133
1082.42
1397.04
1625.77
1672.29
1542.54
1321.45
1086.66
868.75
665.45
466.381
263.276
52.3199
-163.011
-370.509
-552.859
-694.8
-789.165
-838.057
-849.312
-833.636
-800.385
-755.961
-704.294
-648.022
-589.228
-529.636
-470.971
-415.12
-363.353
-316.5
-275.017
-239.019
-208.342
-182.616
-161.378
-144.16
-130.338
-119.272
-110.352
-103.12
-97.1983
-92.2734
-88.0963
-84.475
-81.2678
-78.3744
-75.7258
-73.2798
-71.0551
-69.0504
-67.1522
-65.3996
-63.8342
-62.4853
-61.3543
-60.4056
-59.5765
-58.7907
-57.9624
-57.0047
-55.8501
-54.4694
-52.8715
-51.0862
-49.1482
-47.0887
-44.9363
-42.7191
-40.4622
-38.1851
-35.9739
-10220.4
-10003.1
-9713.25
-9335.25
-8877.62
-8415.57
-7987.94
-7575.75
-7146.14
-6729.43
-6383.57
-6090.24
-5765.38
-5362.96
-4902.72
-4396.95
-3834.65
-3224.96
-2595.82
-1969.82
-1370.53
-837.497
-416.497
-132.74
25.1312
89.2676
96.8205
77.1501
48.3405
19.6704
-4.71059
-23.3725
-36.2665
-43.848
-47.046
-47.1125
-45.4654
-43.4592
-42.1806
-42.3159
-44.1346
-47.4391
-51.686
-56.2135
-60.4429
-63.9753
-66.614
-68.3337
-69.2277
-69.4499
-69.1705
-68.549
-67.721
-66.7899
-65.8201
-64.8405
-63.9156
-63.0068
-62.1379
-61.3788
-60.7083
-60.1196
-59.6032
-59.1461
-58.7242
-58.2924
-57.7884
-57.151
-56.337
-55.3279
-54.1245
-52.7368
-51.1777
-49.4606
-47.6012
-45.6205
-43.5466
-41.4111
-39.2708
-37.2673
35.858
29.9547
24.9371
20.7181
17.1868
14.2345
11.7563
9.64813
7.81451
6.17807
4.68128
3.28129
1.94297
0.638334
-0.654532
-1.95339
-3.26965
-4.60386
-5.9533
-7.30965
-8.66201
-9.99572
-11.2917
-12.5232
-13.655
-14.6461
-15.4597
-16.0639
-16.4363
-16.5664
-16.4573
-16.1256
-15.5989
-14.9126
-14.1054
-13.2159
-12.2795
-11.3264
-10.382
-9.46722
-8.60005
-7.79609
-7.06859
-6.42789
-5.88083
-5.43054
-5.07675
-4.81649
-4.64494
-4.55635
-4.54489
-4.60509
-4.73212
-4.92182
-5.171
-5.47805
-5.84358
-6.27053
-6.76269
-7.3215
-7.94255
-8.61366
-9.31591
-10.0267
-10.7225
-11.3799
-11.9759
-12.4888
-12.9004
-13.1979
-13.3744
-13.4275
-13.3584
-13.1722
-12.8757
-12.4779
-11.9901
-11.4271
-10.8067
-10.1484
-9.47251
-8.79792
-8.141
-7.51459
-6.92769
-6.38575
-5.89128
-5.44453
-5.04427
-4.68838
-4.37426
-4.09917
-3.86038
-3.65534
-3.48175
-3.33759
-3.22109
-3.13081
-3.06556
-3.02454
-3.00725
-3.01354
-3.04355
-3.09769
-3.17663
-3.28115
-3.41191
-3.56902
-3.75142
-3.95613
-4.17764
-4.40793
-4.63748
-4.85707
-5.05942
-5.23988
-5.39601
-5.52653
-5.63038
-5.70631
-5.75296
-5.76908
-5.7539
-5.70783
-5.63108
-5.52501
-5.3917
-5.23388
-5.05485
-4.85832
-4.64825
-4.42866
-4.20348
-3.97643
-3.75081
-3.52953
-3.31495
-3.10895
-2.91295
-2.72795
-2.55465
-2.39348
-2.24467
-2.1083
-1.98434
-1.87265
-1.77305
-1.68536
-1.60942
-1.54511
-1.49234
-1.45107
-1.42135
-1.40331
-1.39721
-1.40345
-1.42252
-1.45497
-1.50135
-1.56214
-1.63769
-1.72812
-1.83328
-1.9528
-2.08613
-2.23265
-2.39166
-2.56225
-2.7432
-2.93273
-3.12841
-3.32707
-3.52485
-3.71728
-3.89943
-4.06607
-4.21191
-4.3319
-4.4215
-4.47693
-4.49539
-4.47518
-4.41581
-4.31784
-4.18286
-4.0134
-3.81274
-3.58478
-3.33377
-3.06412
-2.7802
-2.48623
-2.18605
-1.88304
-1.58034
-1.27939
-0.983952
-0.689701
-0.409496
-0.117857
36.9225
31.1074
26.054
21.7609
18.1441
15.1129
12.5723
10.4203
8.55746
6.89973
5.38442
3.96666
2.61196
1.29359
-0.00796682
-1.30909
-2.62529
-3.96338
-5.31925
-6.68086
-8.03474
-9.36493
-10.6625
-11.9026
-13.0496
-14.0652
-14.9149
-15.5621