/*--------------------------------*- C++ -*----------------------------------*\
| =========                 |                                                 |
| \\      /  F ield         | OpenFOAM: The Open Source CFD Toolbox           |
|  \\    /   O peration     | Version:  2012                                  |
|   \\  /    A nd           | Website:  www.openfoam.com                      |
|    \\/     M anipulation  |                                                 |
\*---------------------------------------------------------------------------*/
FoamFile
{
    version     2.0;
    format      ascii;
    class       volVectorField;
    location    "0.94";
    object      U;
}
// * * * * * * * * * * * * * * * * * * * * * * * * * * * * * * * * * * * * * //

dimensions      [0 1 -1 0 0 0 0];


internalField   nonuniform List<vector> 
42400
(
(-5.26628 2.8109 7.94449e-17)
(-6.97275 1.31881 1.14015e-16)
(-5.24953 1.2394 -1.16657e-16)
(-5.17494 1.28253 0)
(-4.34436 4.61811 0)
(-2.22501 7.35555 4.07428e-19)
(3.7642 6.63823 0)
(15.6046 0.285463 -4.9472e-19)
(32.7767 -11.8185 0)
(52.4757 -27.1312 -5.90738e-19)
(70.5589 -41.8461 -6.23522e-19)
(83.1561 -52.285 6.3944e-19)
(87.8518 -56.0354 4.37098e-17)
(84.1634 -52.5508 -4.45993e-17)
(73.39 -43.0915 5.8706e-19)
(58.0771 -30.1818 0)
(41.3481 -16.921 0)
(26.1407 -6.18566 0)
(14.4432 0.380194 0)
(7.03065 2.6224 0)
(3.72435 1.24592 0)
(3.68084 -2.57242 2.92533e-19)
(5.53226 -7.26203 1.6784e-17)
(7.72252 -11.2635 -2.7831e-18)
(9.09262 -13.7276 -1.41151e-17)
(9.26028 -14.7851 8.28889e-20)
(8.42221 -15.0601 6.97319e-20)
(6.9745 -15.0247 -1.29133e-19)
(5.26822 -14.8149 0)
(3.52456 -14.4254 0)
(1.86919 -13.8786 -1.21456e-17)
(0.40469 -13.2376 1.22726e-17)
(-0.766968 -12.5782 -1.54909e-19)
(-1.56496 -11.9729 1.13427e-17)
(-1.95283 -11.4699 -1.12742e-17)
(-1.94316 -11.0779 0)
(-1.59403 -10.7754 0)
(-0.990598 -10.5218 0)
(-0.223111 -10.2679 0)
(0.605326 -9.9858 8.30479e-18)
(1.40077 -9.65599 -8.32979e-18)
(2.10697 -9.24244 7.42893e-18)
(2.66857 -8.70864 -7.15418e-19)
(3.0182 -8.04711 -1.33732e-17)
(3.10449 -7.25361 6.35266e-18)
(2.90364 -6.32103 -5.65501e-18)
(2.41322 -5.26086 1.12503e-17)
(1.66873 -4.12476 -5.32377e-18)
(0.773615 -3.00504 -2.50562e-19)
(-0.108622 -2.03312 4.67146e-18)
(-0.806797 -1.35326 -9.04602e-18)
(-1.19964 -1.06267 -2.40097e-19)
(-1.25391 -1.16478 4.56786e-18)
(-1.02278 -1.57627 -4.28136e-19)
(-0.604976 -2.17944 0)
(-0.101759 -2.87515 0)
(0.418055 -3.59092 0)
(0.927687 -4.27578 3.82557e-19)
(1.41626 -4.90005 3.68452e-19)
(1.8772 -5.44304 0)
(2.30343 -5.88744 5.37873e-18)
(2.68606 -6.2193 -5.60603e-18)
(3.01549 -6.42943 -4.75162e-18)
(3.28303 -6.51495 4.66252e-18)
(3.48252 -6.48013 0)
(3.61144 -6.33633 0)
(3.6715 -6.10048 -3.56761e-18)
(3.66832 -5.7922 3.48711e-18)
(3.61029 -5.43047 3.8096e-19)
(3.50696 -5.03084 0)
(3.36775 -4.60433 0)
(3.2011 -4.15794 3.03049e-19)
(3.01438 -3.69622 2.81237e-19)
(2.81402 -3.22311 0)
(2.60591 -2.74362 2.42518e-19)
(2.39581 -2.26417 1.80937e-18)
(2.1897 -1.79274 -1.75495e-18)
(1.99356 -1.33907 -3.87964e-19)
(1.81245 -0.919111 -1.43365e-18)
(1.65932 -0.550668 -1.26368e-18)
(16.1599 -9.806 0)
(38.8956 -19.4556 -2.11872e-16)
(44.3156 -18.5371 2.17404e-16)
(42.6989 -7.90733 0)
(39.4416 1.536 0)
(38.8553 9.60177 -1.86791e-16)
(40.3466 15.8145 1.90091e-16)
(43.0185 20.5579 4.95779e-19)
(45.6749 24.4417 0)
(47.0304 27.9859 5.88903e-19)
(46.236 31.4347 6.19969e-19)
(43.1537 34.7798 1.25877e-16)
(38.1589 38.0074 -1.49431e-17)
(31.5529 41.4914 -1.16376e-16)
(22.8412 46.2394 -9.08344e-17)
(10.9413 53.3807 9.12376e-17)
(-3.49471 62.2174 0)
(-16.5121 68.3735 -5.38179e-19)
(-23.9125 67.2449 0)
(-24.4957 59.3416 0)
(-19.1487 48.1892 0)
(-9.30834 35.5333 1.13299e-17)
(2.55528 22.0918 -5.46795e-18)
(12.495 10.0412 -6.87844e-18)
(17.3295 2.04282 0)
(17.0764 -1.40038 -1.19928e-19)
(14.0738 -2.0725 -6.99309e-20)
(10.5357 -1.98984 1.29661e-19)
(7.48627 -2.08319 -3.67916e-18)
(5.11422 -2.42728 3.72442e-18)
(3.33448 -2.85338 -1.42434e-19)
(2.04538 -3.24399 -1.35532e-19)
(1.17995 -3.56048 -1.44704e-18)
(0.690427 -3.81231 1.74195e-18)
(0.530275 -4.02829 2.57153e-19)
(0.647692 -4.24087 -5.04471e-19)
(0.98906 -4.47963 0)
(1.49545 -4.7545 4.81205e-20)
(2.08973 -5.05461 0)
(2.67825 -5.3358 3.48204e-20)
(3.15721 -5.5279 2.13019e-18)
(3.41801 -5.58696 -2.12763e-18)
(3.39561 -5.49324 3.01278e-19)
(3.09874 -5.24042 -2.93278e-19)
(2.58613 -4.85139 2.11023e-19)
(1.94242 -4.36547 -2.76714e-19)
(1.25842 -3.81837 2.68345e-19)
(0.614147 -3.23888 2.6425e-18)
(0.0752123 -2.6571 -2.63956e-18)
(-0.298718 -2.11232 0)
(-0.463055 -1.65746 1.4033e-19)
(-0.409045 -1.34929 4.53277e-19)
(-0.166952 -1.22403 2.58905e-18)
(0.207577 -1.28881 -2.57343e-18)
(0.660567 -1.5242 -3.29965e-19)
(1.15853 -1.89514 5.69824e-18)
(1.68015 -2.36248 -6.30041e-18)
(2.20542 -2.89725 -3.82176e-19)
(2.72107 -3.46656 -3.68042e-19)
(3.21427 -4.03569 5.41019e-18)
(3.67029 -4.57078 -5.3254e-18)
(4.07366 -5.03987 3.16883e-19)
(4.40973 -5.41484 2.78244e-19)
(4.66616 -5.67377 0)
(4.83432 -5.80364 -3.45443e-18)
(4.91088 -5.80288 2.1488e-19)
(4.89917 -5.68227 3.97679e-18)
(4.80936 -5.46281 0)
(4.65662 -5.17046 -7.33385e-19)
(4.45793 -4.82984 3.26587e-19)
(4.229 -4.45953 2.46937e-18)
(3.98248 -4.07061 -2.70814e-18)
(3.72762 -3.6679 -2.41359e-18)
(3.47067 -3.25301 2.31817e-18)
(3.21639 -2.82651 -4.7076e-19)
(2.96927 -2.38978 1.71817e-18)
(2.73433 -1.94692 -1.26935e-18)
(2.51859 -1.50592 3.87931e-19)
(2.33172 -1.08307 -1.72663e-18)
(2.1945 -0.703581 1.36514e-18)
(5.23837 -6.98994 -4.01988e-17)
(-3.17716 -4.93393 5.74992e-19)
(-25.3928 4.87754 -1.71707e-19)
(-39.9038 11.1502 5.79188e-19)
(-44.0037 10.4685 0)
(-43.1233 7.80036 -1.21219e-16)
(-39.072 3.59353 2.39753e-16)
(-32.4719 -3.00125 -1.18389e-16)
(-24.9282 -11.5352 9.88746e-17)
(-18.3246 -20.9003 -1.31314e-17)
(-13.3497 -30.2311 -8.87973e-17)
(-9.76349 -38.796 2.58538e-19)
(-7.6103 -45.6542 2.6845e-19)
(-8.26617 -49.1364 2.94445e-17)
(-14.7222 -46.2778 -3.00447e-17)
(-29.6239 -33.7101 1.12942e-18)
(-50.4203 -12.1495 7.32826e-18)
(-67.2875 9.19033 2.03669e-18)
(-70.4791 18.787 -1.08227e-17)
(-59.766 15.1618 6.29066e-19)
(-43.5474 6.47514 -5.69012e-19)
(-29.92 -0.142997 -5.06029e-19)
(-21.6596 -3.34458 0)
(-17.6367 -4.62977 4.05288e-19)
(-15.7333 -5.29196 3.03897e-18)
(-14.4358 -5.85871 -6.47688e-18)
(-13.0777 -6.42649 3.76685e-18)
(-11.5081 -6.95983 -4.91707e-18)
(-9.7775 -7.42693 4.97916e-18)
(-7.96434 -7.81545 6.02664e-18)
(-6.1356 -8.13421 -1.15778e-17)
(-4.33342 -8.38691 -6.13567e-20)
(-2.5775 -8.5589 6.08356e-18)
(-0.881372 -8.63235 0)
(0.729326 -8.60294 0)
(2.21058 -8.48472 8.17116e-20)
(3.52206 -8.27811 0)
(4.63272 -7.97861 5.40027e-20)
(5.51634 -7.58744 -3.17722e-18)
(6.15291 -7.10879 5.87335e-18)
(6.53793 -6.55636 -2.58661e-18)
(6.69681 -5.93397 0)
(6.66312 -5.24173 0)
(6.47527 -4.48674 -5.03899e-19)
(6.17298 -3.67832 5.774e-19)
(5.79358 -2.82806 -3.3012e-21)
(5.37084 -1.95231 0)
(4.93873 -1.07186 0)
(4.53274 -0.209812 1.14317e-18)
(4.18072 0.597311 -1.13685e-18)
(3.90798 1.30325 -1.39742e-19)
(3.74152 1.86894 0)
(3.69528 2.26288 -2.24161e-18)
(3.76597 2.46493 2.00505e-18)
(3.93939 2.47186 -4.27796e-18)
(4.19165 2.29005 4.62415e-18)
(4.50385 1.93995 -4.54686e-18)
(4.85428 1.44682 9.73236e-18)
(5.21939 0.839635 -9.71247e-18)
(5.5761 0.150319 3.86275e-20)
(5.9032 -0.585912 4.68556e-18)
(6.18154 -1.33121 4.37692e-18)
(6.39408 -2.04612 -4.57851e-18)
(6.52629 -2.69089 0)
(6.56676 -3.22838 3.09957e-18)
(6.50887 -3.62949 -1.96229e-19)
(6.35398 -3.87977 -4.02211e-18)
(6.11397 -3.98384 0)
(5.81016 -3.96344 6.68373e-19)
(5.46809 -3.84919 2.11168e-18)
(5.11128 -3.67068 -2.10137e-18)
(4.75729 -3.44972 0)
(4.41692 -3.19885 0)
(4.09542 -2.92345 -2.4466e-19)
(3.79471 -2.62481 2.28212e-19)
(3.51588 -2.30331 1.22304e-18)
(3.26097 -1.96086 -1.97241e-18)
(3.03491 -1.603 0)
(2.84687 -1.24354 3.45082e-19)
(2.71574 -0.908893 1.26304e-18)
(-14.9312 10.1972 -1.16981e-16)
(-24.6373 12.2777 1.72698e-16)
(-8.16725 2.56668 -8.76667e-17)
(18.2344 -20.1492 -8.29954e-17)
(45.261 -39.3445 8.45004e-17)
(63.2359 -51.8091 0)
(67.2224 -51.3359 -1.34559e-16)
(56.4544 -37.9901 1.37626e-16)
(35.2961 -18.3238 -1.25005e-16)
(12.5785 0.639293 1.28043e-16)
(-3.71051 15.5692 -1.23751e-16)
(-10.989 26.2925 2.50103e-16)
(-11.0246 33.4938 -2.51608e-16)
(-6.77884 37.373 2.54606e-16)
(-1.47023 37.7226 -2.55456e-16)
(1.55283 35.7717 1.2838e-16)
(0.547988 34.2371 1.15861e-16)
(-2.76242 33.8001 -2.21808e-16)
(-4.72204 32.2897 1.07274e-16)
(-3.96718 28.6123 -6.41643e-19)
(-2.1639 23.5785 -1.81334e-19)
(-0.88174 18.1843 6.23583e-17)
(-0.344336 13.0076 -6.20867e-17)
(-0.157819 8.23337 -3.88286e-19)
(0.0288509 3.88611 0)
(0.340316 -0.0165231 -2.85828e-19)
(0.757 -3.43199 0)
(1.22944 -6.30023 -1.91241e-17)
(1.75563 -8.61277 4.46733e-18)
(2.40499 -10.4234 1.49811e-17)
(3.24397 -11.7836 8.87555e-18)
(4.28849 -12.7387 -8.74771e-18)
(5.48939 -13.3258 -1.49024e-19)
(6.74641 -13.5703 1.70215e-20)
(7.96187 -13.4869 3.50993e-18)
(9.06462 -13.0921 -3.53238e-18)
(9.99337 -12.4357 0)
(10.704 -11.5906 -2.4311e-18)
(11.1804 -10.6209 2.33619e-18)
(11.4263 -9.5802 -1.48301e-19)
(11.458 -8.50652 1.57722e-20)
(11.3004 -7.42333 0)
(10.985 -6.34347 0)
(10.5471 -5.27221 0)
(10.0235 -4.21127 -1.31884e-20)
(9.45095 -3.16176 1.58482e-19)
(8.86471 -2.12643 -1.54732e-19)
(8.29688 -1.11107 0)
(7.77542 -0.125569 0)
(7.32325 0.815923 1.11291e-18)
(6.95634 1.69693 -1.02473e-18)
(6.68386 2.49932 1.47908e-18)
(6.50908 3.20455 -1.0539e-18)
(6.42823 3.79553 2.08523e-19)
(6.43145 4.2579 -1.6526e-18)
(6.503 4.58158 2.1164e-18)
(6.6252 4.76094 -4.01469e-18)
(6.77921 4.79344 3.72626e-18)
(6.94578 4.67814 0)
(7.10644 4.4153 -2.33913e-19)
(7.24468 4.00669 -3.85847e-18)
(7.34681 3.457 3.25378e-19)
(7.40228 2.7772 7.32792e-18)
(7.40251 1.99058 -6.503e-18)
(7.33873 1.13949 2.8415e-18)
(7.20123 0.286643 2.84272e-18)
(6.98365 -0.495953 -2.09868e-18)
(6.68963 -1.14819 -2.97743e-19)
(6.33568 -1.63968 -2.3576e-18)
(5.94701 -1.97211 2.26599e-18)
(5.54988 -2.16804 -5.23996e-19)
(5.16503 -2.25653 -2.1737e-18)
(4.80508 -2.26317 1.88685e-18)
(4.47529 -2.20615 0)
(4.17614 -2.09679 -1.62591e-18)
(3.90628 -1.94209 4.47914e-19)
(3.66514 -1.74762 3.28331e-18)
(3.45507 -1.52024 -1.39718e-18)
(3.28251 -1.27315 1.27437e-18)
(3.16209 -1.02958 -1.25725e-18)
(-0.991614 3.28011 4.18158e-17)
(10.2336 0.724552 0)
(28.2882 -9.93554 0)
(40.6956 -16.2176 2.40666e-19)
(42.8718 -20.3164 0)
(42.2554 -24.0533 0)
(41.4063 -28.4017 0)
(42.2494 -33.6843 8.85312e-19)
(46.9985 -40.982 0)
(58.0987 -51.6781 -5.88393e-19)
(77.1986 -66.5756 2.67958e-17)
(101.613 -83.8473 -4.33475e-17)
(120.213 -96.2894 1.49442e-17)
(116.823 -93.0684 0)
(84.925 -69.1506 5.19264e-19)
(37.6024 -32.9425 -8.52969e-19)
(-3.69553 0.163491 0)
(-27.8746 21.1462 -1.81083e-17)
(-37.1942 30.9432 3.73437e-17)
(-38.4116 34.2087 -5.57193e-19)
(-36.2695 34.3159 -1.9108e-17)
(-32.8763 32.8842 -6.56382e-19)
(-28.9878 30.616 0)
(-24.8901 27.9071 1.23685e-17)
(-20.6929 25.0103 -1.20504e-17)
(-16.4193 22.0675 6.48508e-18)
(-12.0432 19.1226 -6.34675e-18)
(-7.52756 16.1779 -1.70169e-18)
(-2.87023 13.2335 1.53038e-18)
(1.85484 10.3496 0)
(6.47829 7.63466 -2.72151e-18)
(10.7558 5.15844 2.74528e-18)
(14.4692 2.96167 -3.65202e-20)
(17.4555 1.1034 -3.41688e-18)
(19.6244 -0.392802 3.42583e-18)
(20.9492 -1.5218 1.43158e-19)
(21.4604 -2.30245 -1.09745e-19)
(21.2448 -2.77241 -1.93051e-18)
(20.4369 -2.98467 1.94086e-18)
(19.2038 -3.00058 1.14086e-18)
(17.7202 -2.88065 -2.75539e-19)
(16.1425 -2.67664 -1.02314e-18)
(14.5916 -2.4265 0)
(13.1482 -2.15349 7.60194e-20)
(11.8563 -1.86749 -6.41534e-19)
(10.7324 -1.56789 1.63723e-18)
(9.77467 -1.24825 -1.76296e-18)
(8.97213 -0.901164 8.47417e-19)
(8.31082 -0.522273 0)
(7.77749 -0.112242 9.91378e-20)
(7.36057 0.322874 -1.41054e-18)
(7.04945 0.772798 1.42219e-18)
(6.83365 1.22428 2.15661e-20)
(6.70161 1.66326 -1.66658e-18)
(6.63991 2.07605 1.2187e-18)
(6.63257 2.45129 -1.76204e-18)
(6.66133 2.78049 -2.04201e-18)
(6.70604 3.05831 3.74992e-18)
(6.745 3.28207 -3.53516e-18)
(6.75554 3.45045 3.71644e-18)
(6.71581 3.56101 0)
(6.6083 3.60615 -2.20214e-19)
(6.42599 3.56771 -3.11387e-18)
(6.17976 3.41338 2.66039e-18)
(5.90108 3.10369 7.04747e-19)
(5.63318 2.6158 0)
(5.4118 1.97183 2.31157e-18)
(5.24716 1.24283 -1.99185e-18)
(5.12167 0.520782 -2.78759e-19)
(5.00557 -0.117373 -2.42774e-19)
(4.87633 -0.629023 4.79264e-19)
(4.72683 -1.00467 1.54786e-20)
(4.56142 -1.25581 -1.90258e-18)
(4.38829 -1.40208 1.6471e-18)
(4.21471 -1.46302 -1.88709e-19)
(4.04599 -1.45478 0)
(3.88661 -1.39023 -1.72489e-18)
(3.74182 -1.28067 1.32684e-18)
(3.6184 -1.14065 0)
(3.52799 -0.989762 -1.17014e-18)
(-4.49258 2.7499 3.81833e-19)
(-20.305 9.90931 -3.33057e-17)
(-37.3444 18.4883 3.72493e-17)
(-49.6724 21.3131 -7.79788e-17)
(-54.6576 21.3127 4.05851e-17)
(-55.4519 19.7067 3.46659e-19)
(-54.5281 18.2675 4.62469e-17)
(-53.4974 17.6609 -4.82074e-17)
(-52.8024 17.5384 -3.36904e-19)
(-51.7069 16.704 2.46652e-19)
(-48.4724 13.4108 -5.19918e-17)
(-41.2979 6.00101 -5.21928e-17)
(-29.8448 -5.85944 1.07948e-16)
(-16.3031 -19.9136 -1.01983e-16)
(-4.42783 -31.6124 2.00089e-16)
(2.91012 -37.0743 -9.87858e-17)
(5.65347 -35.5596 0)
(5.43693 -29.2656 0)
(4.19419 -21.0781 7.2238e-17)
(3.33833 -13.05 -7.40719e-18)
(3.57504 -6.17178 -6.56802e-17)
(5.02752 -0.706568 5.25047e-17)
(7.5207 3.38877 -1.0046e-16)
(10.7159 6.31709 4.75971e-17)
(14.1971 8.28436 3.77058e-17)
(17.6155 9.47602 -4.46093e-18)
(20.7315 10.0457 -3.46434e-17)
(23.3614 10.1416 2.97232e-19)
(25.3557 9.90484 -2.63667e-19)
(26.5604 9.47378 4.646e-19)
(26.8519 8.95001 0)
(26.2211 8.41142 1.41898e-17)
(24.7802 7.8733 -2.61138e-17)
(22.6923 7.31224 1.18384e-17)
(20.1719 6.66764 0)
(17.4658 5.88924 -5.36095e-18)
(14.8202 4.94967 5.37004e-18)
(12.4481 3.84382 0)
(10.5014 2.60099 0)
(9.04071 1.28305 -1.92815e-18)
(8.03113 -0.0252861 1.99035e-18)
(7.37184 -1.23434 -7.88918e-20)
(6.94392 -2.2704 0)
(6.64644 -3.09208 1.7106e-18)
(6.41137 -3.69156 -4.22214e-20)
(6.20167 -4.08449 -1.9031e-18)
(6.00128 -4.29912 -1.26988e-19)
(5.80558 -4.36795 2.15437e-19)
(5.61534 -4.32224 0)
(5.43324 -4.18987 -2.02832e-18)
(5.26266 -3.99404 3.86325e-18)
(5.10583 -3.7549 -2.03445e-18)
(4.96324 -3.49027 -2.1797e-19)
(4.8342 -3.21456 -2.11542e-18)
(4.71602 -2.93996 2.28805e-19)
(4.60412 -2.67608 3.68895e-18)
(4.49214 -2.42948 -1.37619e-18)
(4.37215 -2.20311 0)
(4.2347 -1.99554 0)
(4.06898 -1.80009 1.99188e-19)
(3.86422 -1.60478 1.91863e-19)
(3.61422 -1.3952 0)
(3.32618 -1.16252 2.68714e-18)
(3.03101 -0.914881 -2.64416e-18)
(2.78529 -0.683581 -2.87068e-18)
(2.65471 -0.513909 -1.78205e-19)
(2.68187 -0.442591 2.02578e-18)
(2.85995 -0.478222 -2.09037e-18)
(3.13485 -0.598389 2.0418e-18)
(3.43415 -0.762506 1.23488e-20)
(3.69856 -0.929392 1.55699e-18)
(3.89688 -1.06943 -1.52197e-18)
(4.02302 -1.16749 -1.40762e-18)
(4.0854 -1.21977 1.7609e-18)
(4.09775 -1.22881 -1.26718e-18)
(4.07412 -1.19967 1.41349e-18)
(4.02728 -1.13794 -1.30588e-18)
(3.9688 -1.04951 2.50161e-18)
(3.90896 -0.943633 -2.78619e-20)
(3.85909 -0.833004 -2.87184e-20)
(1.28249 -0.556726 1.16853e-17)
(-3.04005 7.38601 1.90732e-19)
(-10.781 12.6953 -1.03055e-17)
(-2.43966 14.8972 1.66747e-17)
(16.2058 8.4761 -6.46477e-18)
(36.1344 1.74381 -1.41804e-18)
(50.1832 -1.87417 -2.8742e-18)
(56.4239 -1.01769 3.52108e-18)
(56.5908 3.48847 -7.26339e-18)
(53.383 9.94725 7.31193e-18)
(49.1287 16.8084 -7.42882e-18)
(45.4381 22.8238 7.26919e-18)
(42.9654 27.1049 -4.8322e-18)
(41.3685 29.3627 5.29816e-18)
(39.794 30.0661 3.8003e-19)
(37.3032 29.9804 3.73073e-19)
(33.541 29.7297 5.58985e-18)
(28.7055 29.5359 -5.68235e-18)
(23.2845 29.3041 -6.57736e-19)
(17.7472 28.7967 -2.07584e-20)
(12.4056 27.8128 1.26999e-17)
(7.38803 26.2519 -1.28762e-17)
(2.69293 24.1521 0)
(-1.71736 21.7086 -2.39508e-20)
(-5.80493 19.2172 0)
(-9.32815 16.911 0)
(-11.9306 14.8221 -6.58601e-21)
(-13.3579 12.8972 -9.00005e-18)
(-13.5652 11.0948 9.08104e-18)
(-12.7396 9.3899 6.63392e-18)
(-11.1924 7.79659 -7.17736e-18)
(-9.24406 6.36116 3.49861e-19)
(-7.16416 5.12513 -2.9902e-19)
(-5.13836 4.11172 0)
(-3.26755 3.31354 -9.03299e-20)
(-1.59163 2.6933 0)
(-0.116359 2.19478 0)
(1.16044 1.75538 -1.10277e-19)
(2.23704 1.31832 0)
(3.10822 0.84174 0)
(3.77199 0.303438 3.53741e-18)
(4.23674 -0.298784 -3.38994e-18)
(4.52399 -0.950012 0)
(4.66495 -1.62339 0)
(4.69317 -2.28661 0)
(4.63845 -2.90854 -1.66879e-19)
(4.52396 -3.46395 1.26947e-19)
(4.36684 -3.93574 1.94068e-18)
(4.17982 -4.31531 -2.05838e-18)
(3.97265 -4.60173 1.95378e-18)
(3.75319 -4.79954 -2.19212e-18)
(3.52817 -4.91712 2.42064e-19)
(3.30315 -4.96478 1.17803e-19)
(3.08316 -4.95367 0)
(2.87293 -4.8949 0)
(2.67712 -4.79874 -1.49655e-18)
(2.50044 -4.67413 -1.92509e-19)
(2.34779 -4.52836 1.63814e-18)
(2.22424 -4.36658 -1.55962e-18)
(2.13518 -4.19133 1.51556e-18)
(2.08644 -4.00204 2.69855e-18)
(2.08444 -3.79519 -7.83012e-20)
(2.13604 -3.5662 -5.1854e-18)
(2.24769 -3.31325 2.57853e-18)
(2.42317 -3.04133 1.41978e-19)
(2.65919 -2.76308 2.923e-19)
(2.94078 -2.49507 2.08017e-18)
(3.24164 -2.2518 -3.99826e-18)
(3.53177 -2.04164 1.91902e-18)
(3.78754 -1.86509 2.30985e-19)
(3.99611 -1.71662 1.68201e-18)
(4.15376 -1.58786 -1.8341e-18)
(4.26272 -1.46991 0)
(4.32823 -1.35556 -1.88501e-19)
(4.35706 -1.24018 0)
(4.35679 -1.12144 1.30381e-18)
(4.33543 -0.998715 -2.75734e-20)
(4.3012 -0.872689 -1.19913e-18)
(4.26189 -0.747309 8.39874e-19)
(4.22574 -0.630317 2.40227e-19)
(-1.42143 -0.660575 4.41312e-17)
(-0.776672 -4.6006 -6.62531e-17)
(4.47278 -4.85966 -1.74247e-19)
(8.72101 -8.66929 -6.13427e-17)
(12.8687 -10.4491 6.26521e-17)
(14.7336 -13.1464 -5.505e-17)
(15.6712 -17.0333 1.07419e-16)
(17.5231 -22.1675 -5.16344e-17)
(21.0947 -28.5277 4.26417e-17)
(25.674 -34.9611 -4.27898e-17)
(29.2287 -39.8961 0)
(30.0799 -42.3773 -4.71284e-20)
(27.9205 -42.4452 3.14578e-19)
(23.4452 -40.6417 0)
(17.4709 -37.4955 0)
(10.4729 -33.2843 0)
(2.6302 -28.0912 0)
(-5.89951 -22.0083 -2.0664e-19)
(-14.7663 -15.327 0)
(-23.4501 -8.59241 6.40557e-18)
(-31.3355 -2.4106 -6.50124e-18)
(-37.6792 2.66221 -1.01521e-17)
(-41.4966 6.07337 1.03001e-17)
(-41.7121 7.27791 9.98352e-18)
(-37.7485 6.04849 -1.02751e-17)
(-30.1433 2.82534 9.72089e-18)
(-20.4648 -1.36201 -9.85251e-18)
(-10.5566 -5.395 7.93456e-18)
(-1.83858 -8.50758 -1.40294e-18)
(4.92234 -10.3994 -6.76654e-18)
(9.52381 -11.0959 0)
(12.137 -10.7954 1.12136e-19)
(13.1266 -9.77113 1.34385e-19)
(12.9226 -8.30329 0)
(11.9343 -6.64044 9.07623e-20)
(10.5082 -4.98327 0)
(8.91527 -3.48537 0)
(7.35763 -2.25718 2.51233e-18)
(5.97541 -1.3639 -5.06808e-18)
(4.85284 -0.823893 2.79721e-18)
(4.02576 -0.610739 3.10605e-18)
(3.49164 -0.663667 -3.23076e-18)
(3.22034 -0.904387 -1.00428e-19)
(3.16266 -1.25387 0)
(3.25989 -1.64592 3.26609e-18)
(3.45305 -2.0317 -2.9206e-18)
(3.6892 -2.37833 0)
(3.9261 -2.66754 0)
(4.13513 -2.89287 -2.29564e-18)
(4.30061 -3.05569 2.55592e-18)
(4.41693 -3.16182 2.38201e-18)
(4.48542 -3.21917 -2.23708e-18)
(4.51168 -3.23618 -1.99211e-18)
(4.50348 -3.22082 3.6258e-18)
(4.46937 -3.18008 -1.75037e-18)
(4.41765 -3.1197 -4.00784e-19)
(4.35582 -3.04414 0)
(4.29019 -2.95671 1.75256e-19)
(4.22588 -2.85963 -1.21477e-18)
(4.16695 -2.75427 2.50723e-18)
(4.11685 -2.64134 -1.30317e-18)
(4.07921 -2.52129 0)
(4.05858 -2.39492 -1.57018e-19)
(4.06061 -2.26412 0)
(4.091 -2.1325 -1.41793e-19)
(4.15293 -2.00506 -1.22788e-19)
(4.24451 -1.88679 -2.34056e-19)
(4.35772 -1.78041 -1.83251e-18)
(4.48 -1.68475 1.57756e-18)
(4.59725 -1.59515 -2.01697e-19)
(4.69725 -1.50561 -1.57558e-18)
(4.7716 -1.4109 1.91283e-18)
(4.81659 -1.3078 -1.42405e-18)
(4.83272 -1.19539 1.38471e-18)
(4.82356 -1.07449 -1.44437e-18)
(4.79448 -0.947032 1.10052e-18)
(4.75168 -0.815372 1.16482e-18)
(4.70161 -0.681982 -1.12902e-18)
(4.65056 -0.550787 2.73533e-19)
(4.60487 -0.429642 -2.63448e-19)
(8.92681 -3.49026 1.73566e-17)
(36.9538 -11.7288 2.18738e-17)
(61.8869 -20.1474 -3.99718e-17)
(67.7752 -15.3923 3.15324e-17)
(54.3311 -3.94309 -1.34933e-17)
(36.9423 9.04446 2.07422e-19)
(23.3532 18.7619 -2.31171e-18)
(14.367 24.1406 8.78447e-18)
(8.87816 25.5781 2.65007e-18)
(6.17767 23.7228 -9.68764e-18)
(5.66603 19.3817 -2.5993e-19)
(6.64817 13.5142 1.38246e-17)
(8.41511 7.05531 -1.40409e-17)
(10.4197 0.637883 1.45699e-17)
(12.3696 -5.47237 -1.48188e-17)
(13.9961 -11.213 -1.56e-17)
(14.7546 -16.3484 1.58642e-17)
(13.8271 -20.2746 2.08063e-19)
(10.6226 -22.2265 0)
(5.44079 -21.8076 1.32625e-17)
(-0.387711 -19.3365 -1.3566e-17)
(-5.18869 -15.6387 1.68046e-19)
(-7.82608 -11.583 -8.09828e-18)
(-8.02695 -7.85755 8.06413e-18)
(-6.12762 -4.97777 2.76523e-19)
(-2.6057 -3.23639 0)
(1.88482 -2.55482 -8.09759e-20)
(6.57268 -2.64165 -2.32436e-20)
(10.7355 -3.1024 -6.50583e-18)
(13.9021 -3.59386 6.6538e-18)
(15.9209 -3.8933 9.77034e-18)
(16.8683 -3.9238 -9.91341e-18)
(16.9222 -3.69246 2.03583e-20)
(16.27 -3.22976 -9.87297e-18)
(15.0563 -2.56806 1.87822e-17)
(13.4073 -1.72941 -9.04667e-18)
(11.4474 -0.757365 -6.97655e-18)
(9.32217 0.260133 7.15647e-18)
(7.2205 1.21057 -1.96176e-20)
(5.35026 1.98252 -1.011e-19)
(3.88321 2.49399 1.14688e-19)
(2.91422 2.7066 -3.34927e-18)
(2.44499 2.6353 5.24016e-19)
(2.39683 2.33146 2.93727e-18)
(2.63976 1.86036 -2.57062e-18)
(3.04081 1.30184 2.39301e-18)
(3.49648 0.736834 0)
(3.93736 0.224316 2.12191e-18)
(4.32299 -0.203228 -2.13421e-18)
(4.63497 -0.532143 1.71301e-18)
(4.8691 -0.761745 -1.85176e-19)
(5.0293 -0.900356 -5.78155e-20)
(5.12396 -0.961906 -5.59314e-20)
(5.1639 -0.963166 -5.39358e-20)
(5.16096 -0.921576 -1.55105e-18)
(5.12706 -0.853646 1.06496e-19)
(5.07344 -0.773914 0)
(5.01024 -0.694358 -1.48924e-18)
(4.94618 -0.624138 1.12907e-18)
(4.88857 -0.569594 0)
(4.84321 -0.534409 -1.29238e-18)
(4.81438 -0.519933 1.00465e-18)
(4.80489 -0.525636 0)
(4.81592 -0.549632 -1.20526e-19)
(4.84704 -0.589126 0)
(4.89604 -0.6406 -1.73155e-18)
(4.9589 -0.699729 3.71224e-18)
(5.02986 -0.761189 -1.72988e-18)
(5.10189 -0.818696 2.11907e-19)
(5.16749 -0.865467 2.01573e-19)
(5.21972 -0.895077 -1.45631e-18)
(5.25315 -0.9025 1.23634e-18)
(5.26462 -0.884982 -1.58804e-19)
(5.25363 -0.842431 -1.51542e-19)
(5.2222 -0.777182 3.01573e-19)
(5.1744 -0.693264 1.49313e-19)
(5.11546 -0.595443 1.22321e-18)
(5.0512 -0.488335 -1.5634e-20)
(4.98748 -0.376979 -1.13019e-18)
(4.93001 -0.270121 -2.35012e-19)
(16.4021 -7.26923 0)
(44.1259 -23.3141 -1.84619e-19)
(66.1875 -35.9522 -2.31398e-19)
(74.5656 -46.7956 -2.94887e-17)
(69.9634 -50.0843 6.294e-17)
(55.2783 -48.0259 -6.96569e-17)
(34.9475 -42.2914 3.67022e-17)
(12.9999 -34.9272 0)
(-6.97146 -27.7909 2.72344e-19)
(-21.7383 -22.2088 -4.4437e-17)
(-29.1434 -18.7838 4.56138e-17)
(-29.3078 -16.9966 4.35707e-17)
(-24.8571 -15.4421 -8.65164e-17)
(-19.3334 -12.9502 3.04582e-18)
(-15.2171 -9.39803 3.73618e-18)
(-13.0877 -5.53851 3.66503e-17)
(-11.6667 -2.38611 1.64781e-19)
(-8.62872 -0.67324 -2.77149e-17)
(-2.60444 -0.695887 2.80684e-17)
(6.33489 -2.0647 8.56743e-20)
(16.8721 -3.975 1.19702e-19)
(26.7135 -5.2732 5.52852e-20)
(33.1354 -4.83151 -1.77242e-17)
(34.4229 -2.41639 3.84508e-18)
(30.9586 1.20624 1.44866e-17)
(25.0309 4.8043 7.45516e-20)
(19.1191 7.44454 -4.83172e-18)
(14.6693 8.74625 7.76258e-18)
(11.9382 8.78198 -4.12995e-18)
(10.4019 7.94739 1.31132e-18)
(9.35088 6.70965 0)
(8.3025 5.41885 4.66569e-19)
(7.0903 4.24868 -1.21514e-18)
(5.75299 3.23437 6.6775e-19)
(4.4 2.35131 1.39762e-19)
(3.14353 1.57652 -1.31617e-19)
(2.05718 0.913886 -1.31953e-19)
(1.18076 0.382806 0)
(0.538455 -0.00426602 -8.02758e-20)
(0.147106 -0.254103 -1.52001e-18)
(0.00926668 -0.394582 1.66498e-18)
(0.114483 -0.46651 -4.67666e-20)
(0.43424 -0.513267 4.92556e-20)
(0.929842 -0.561824 0)
(1.557 -0.616923 0)
(2.26369 -0.678939 1.7533e-18)
(2.99669 -0.747981 -1.95418e-18)
(3.71 -0.815904 -1.19863e-19)
(4.36717 -0.866758 -1.71118e-18)
(4.94062 -0.884537 3.4459e-18)
(5.4122 -0.857874 -1.54655e-18)
(5.77388 -0.781472 0)
(6.0271 -0.65602 1.53041e-18)
(6.18098 -0.487136 -1.43298e-18)
(6.24959 -0.28392 0)
(6.24938 -0.0575922 1.34235e-18)
(6.19705 0.179596 -1.24189e-18)
(6.10817 0.415155 1.14789e-18)
(5.99656 0.636936 -1.00253e-18)
(5.87405 0.833584 0)
(5.75065 0.994955 2.55995e-19)
(5.63473 1.11253 1.31107e-19)
(5.53318 1.17985 -9.27701e-19)
(5.45148 1.19302 1.41308e-19)
(5.39352 1.15124 8.7216e-19)
(5.36124 1.05729 0)
(5.35418 0.917883 1.05271e-19)
(5.36919 0.743629 0)
(5.40045 0.548453 0)
(5.43998 0.34828 -1.3672e-18)
(5.47873 0.159139 1.33322e-18)
(5.508 -0.00498132 1.10254e-18)
(5.52084 -0.133983 1.38266e-19)
(5.51324 -0.22271 -1.01257e-18)
(5.48466 -0.270943 -1.24304e-18)
(5.43778 -0.282431 1.06641e-18)
(5.37756 -0.263302 -1.32183e-19)
(5.31014 -0.220352 -9.70493e-19)
(5.24179 -0.16065 2.10607e-18)
(5.178 -0.0938998 -6.78619e-19)
(2.78063 0.0726046 4.72148e-17)
(-3.76065 5.55578 -3.51667e-17)
(-16.1585 10.6807 -3.18315e-17)
(-23.2444 15.4376 3.25554e-17)
(-26.1898 17.6974 2.37394e-19)
(-28.7249 20.9406 2.3837e-19)
(-32.5705 25.8652 0)
(-37.1588 32.2944 1.63629e-17)
(-39.2127 38.7202 -1.64832e-17)
(-33.3057 42.3407 0)
(-15.7151 40.8273 -1.89768e-18)
(10.2245 35.1295 -2.12724e-19)
(34.4061 29.3613 -2.94426e-18)
(47.9074 26.8008 1.38468e-17)
(49.189 27.7084 -8.17254e-18)
(42.1447 30.9815 1.96447e-19)
(31.7795 35.062 -5.29909e-19)
(22.3209 38.0601 0)
(15.59 38.7242 -9.41014e-18)
(11.0416 37.1259 9.69622e-18)
(7.0515 33.8812 -3.04643e-19)
(2.4141 29.5878 -7.34853e-18)
(-2.90781 24.5609 7.09552e-18)
(-7.87961 18.9637 -5.87147e-18)
(-11.2964 13.1552 5.90942e-18)
(-12.5096 7.65818 -7.49596e-20)
(-11.6546 2.90738 -3.28115e-18)
(-9.30161 -0.911588 7.12676e-19)
(-6.03793 -3.80091 4.72099e-18)
(-2.45763 -5.78157 -4.72553e-19)
(0.852041 -6.88695 -1.62896e-18)
(3.44035 -7.20235 -9.17312e-19)
(5.10971 -6.8681 9.22375e-19)
(5.90394 -6.05269 0)
(6.00582 -4.93188 -1.06383e-20)
(5.63835 -3.66845 1.60242e-21)
(5.01274 -2.39813 0)
(4.30998 -1.22612 5.07498e-19)
(3.6701 -0.225629 -5.41183e-19)
(3.18909 0.557259 -3.79683e-20)
(2.91568 1.10318 0)
(2.85862 1.41039 4.65754e-20)
(2.99798 1.49728 1.30703e-18)
(3.29549 1.39884 -1.3019e-18)
(3.709 1.1608 0)
(4.19916 0.835047 -1.27336e-18)
(4.72842 0.470434 1.52591e-18)
(5.26029 0.108674 0)
(5.76004 -0.217731 0)
(6.19796 -0.485176 -9.51007e-20)
(6.55273 -0.679178 -9.17424e-20)
(6.81355 -0.79345 0)
(6.97992 -0.828227 1.12463e-18)
(7.05908 -0.788324 -1.19832e-18)
(7.06261 -0.681446 -1.11172e-18)
(7.00343 -0.517065 9.12651e-20)
(6.89401 -0.305841 2.07703e-18)
(6.74554 -0.0593664 -1.99364e-18)
(6.56789 0.209942 -1.05428e-19)
(6.36992 0.488959 8.30617e-19)
(6.15991 0.764004 -1.19151e-19)
(5.94603 1.0211 0)
(5.73666 1.24634 0)
(5.54057 1.42648 7.75823e-19)
(5.36697 1.54979 -8.45881e-19)
(5.22496 1.60719 0)
(5.12259 1.59381 7.84451e-20)
(5.06535 1.51052 0)
(5.05443 1.36513 6.218e-19)
(5.0854 1.17247 -6.06916e-19)
(5.14798 0.952798 1.3281e-19)
(5.2275 0.728626 1.24959e-18)
(5.30766 0.520784 -1.07233e-18)
(5.37404 0.345063 1.20159e-19)
(5.41704 0.210395 0)
(5.43322 0.118925 0)
(5.42477 0.0675732 0)
(5.39752 0.0503477 -1.00262e-18)
(5.35886 0.0598893 -1.11692e-19)
(5.31536 0.0868469 1.69714e-18)
(3.04399 -3.56718 -5.89357e-17)
(11.8569 -8.62325 -8.70132e-17)
(21.9416 -12.7675 8.88662e-17)
(33.4209 -15.8275 -8.66896e-17)
(46.0396 -17.9662 8.87613e-17)
(56.8584 -19.915 2.57283e-19)
(63.877 -21.5879 2.56628e-19)
(66.2812 -22.6786 0)
(64.1965 -22.8607 -2.38242e-19)
(58.3556 -22.0741 0)
(49.8406 -20.8387 2.21949e-19)
(39.8827 -20.0093 5.83603e-17)
(29.6039 -20.2546 -5.93427e-17)
(19.8916 -21.6318 -4.85325e-17)
(11.2583 -23.5762 4.92186e-17)
(3.29435 -25.1159 -3.70235e-17)
(-5.36019 -24.9868 3.87162e-17)
(-15.3259 -22.4498 0)
(-25.4527 -18.3726 0)
(-34.0621 -14.315 0)
(-40.2307 -11.0517 1.34409e-17)
(-43.7902 -8.59708 -2.43282e-17)
(-44.8138 -6.797 2.4836e-18)
(-43.2635 -5.61188 1.55046e-17)
(-39.0253 -5.13603 -6.9078e-18)
(-32.2418 -5.47415 0)
(-23.5877 -6.57245 -1.16601e-20)
(-14.1913 -8.15757 0)
(-5.33645 -9.82122 5.72017e-19)
(1.88626 -11.1818 -6.27077e-19)
(6.93247 -11.9992 -9.91302e-20)
(9.90828 -12.2185 0)
(11.2937 -11.9196 1.03964e-18)
(11.5905 -11.2164 -2.29615e-18)
(11.1675 -10.2146 1.25392e-18)
(10.2762 -9.00789 -1.28022e-18)
(9.10194 -7.6779 2.59324e-18)
(7.79236 -6.29308 -1.31203e-18)
(6.46631 -4.91726 0)
(5.21995 -3.61328 0)
(4.13441 -2.43122 0)
(3.27652 -1.41411 1.17356e-18)
(2.69374 -0.591385 -3.43769e-18)
(2.40981 0.0243459 2.20832e-18)
(2.41816 0.432447 0)
(2.68221 0.643951 -1.77336e-18)
(3.1409 0.680359 1.71964e-18)
(3.71883 0.573326 1.41159e-18)
(4.33876 0.36266 -1.9254e-19)
(4.93432 0.0897732 -1.16434e-19)
(5.45919 -0.207249 -9.82188e-20)
(5.88936 -0.496968 -1.03946e-18)
(6.21899 -0.755706 0)
(6.45306 -0.967034 0)
(6.60079 -1.12059 -7.58012e-19)
(6.67172 -1.21093 7.65821e-19)
(6.67433 -1.23663 0)
(6.61615 -1.19971 0)
(6.50433 -1.10505 3.55305e-20)
(6.34619 -0.960019 1.01089e-19)
(6.14961 -0.773946 0)
(5.9234 -0.55782 0)
(5.6776 -0.323959 -6.86896e-20)
(5.42387 -0.0857325 -6.74477e-20)
(5.17572 0.142791 6.93736e-19)
(4.94861 0.347438 -1.18189e-18)
(4.75907 0.514912 -6.83041e-20)
(4.62319 0.634133 1.09155e-18)
(4.55375 0.698294 -1.10648e-18)
(4.55636 0.706813 1.00905e-18)
(4.62629 0.666291 -1.91315e-19)
(4.7478 0.589719 -4.72755e-19)
(4.89713 0.493819 9.18391e-19)
(5.04852 0.395456 -1.35498e-20)
(5.18071 0.30844 -1.74747e-18)
(5.28111 0.241673 9.50816e-19)
(5.34628 0.198952 0)
(5.37981 0.180117 2.03781e-19)
(5.38911 0.182464 0)
(5.38195 0.200584 -7.89464e-19)
(14.6845 -3.71201 0)
(57.4573 -13.4448 1.35351e-19)
(99.4028 -25.4003 -1.36707e-19)
(121.452 -29.8496 -2.30218e-17)
(117.336 -28.6697 4.38375e-17)
(94.7347 -22.8584 -2.15369e-17)
(64.5189 -15.8173 -2.61002e-19)
(37.1435 -10.4456 0)
(17.5631 -8.00586 0)
(5.46169 -8.2602 0)
(-1.30029 -10.3774 -2.2708e-19)
(-4.56749 -13.5976 -4.26973e-19)
(-5.56583 -17.4006 0)
(-5.05118 -21.4864 1.90398e-19)
(-3.52854 -25.716 6.98993e-19)
(-1.46249 -29.986 1.77793e-18)
(0.559079 -34.0607 -2.35568e-18)
(1.86997 -37.5402 -2.90552e-19)
(2.02242 -40.0067 0)
(0.969512 -41.1842 2.54704e-19)
(-0.906681 -40.9265 1.19706e-19)
(-2.88722 -39.2055 -1.63798e-19)
(-4.15187 -36.1344 5.19237e-19)
(-4.11438 -32.047 -2.5631e-19)
(-2.75803 -27.5375 7.78683e-20)
(-0.575322 -23.2347 1.25443e-19)
(1.94412 -19.527 -2.76525e-18)
(4.52357 -16.5821 2.41592e-18)
(7.10879 -14.4451 1.5874e-19)
(9.6994 -13.0406 6.70369e-20)
(12.1892 -12.2001 8.22605e-20)