/*--------------------------------*- C++ -*----------------------------------*\
| =========                 |                                                 |
| \\      /  F ield         | OpenFOAM: The Open Source CFD Toolbox           |
|  \\    /   O peration     | Version:  2012                                  |
|   \\  /    A nd           | Website:  www.openfoam.com                      |
|    \\/     M anipulation  |                                                 |
\*---------------------------------------------------------------------------*/
FoamFile
{
    version     2.0;
    format      ascii;
    class       volScalarField;
    location    "0.56";
    object      p;
}
// * * * * * * * * * * * * * * * * * * * * * * * * * * * * * * * * * * * * * //

dimensions      [0 2 -2 0 0 0 0];


internalField   nonuniform List<scalar> 
42400
(
8606.12
8337.76
7985.22
7503.33
6836.26
6052.3
5205
4342.63
3502.71
2712.42
1990.99
1350.59
797.176
332.878
-42.8147
-333.046
-543.876
-683.68
-762.053
-788.561
-772.135
-720.866
-642.275
-543.528
-431.468
-314.634
-202.926
-105.693
-29.545
23.222
54.2097
67.371
67.4236
58.8052
45.1873
29.3455
13.2156
-1.94733
-15.3849
-26.6972
-35.7277
-42.4836
-47.0678
-49.6488
-50.4478
-49.7271
-47.7822
-44.9294
-41.4907
-37.7756
-34.0622
-30.5779
-27.4856
-24.8751
-22.763
-21.1
-19.7885
-18.7087
-17.7482
-16.8234
-15.8878
-14.925
-13.934
-12.9162
-11.8696
-10.7913
-9.68498
-8.56444
-7.45273
-6.37647
-5.35895
-4.41539
-3.55135
-2.76412
-2.04561
-1.38543
-0.77298
-0.198054
0.341057
0.802217
-8263.12
-7853.79
-7298.84
-6641.47
-5869.9
-5053.39
-4227.06
-3427.6
-2686.59
-2025.77
-1456.93
-983.758
-603.727
-309.151
-90.3924
61.3221
152.859
189.43
175.688
118.574
31.9615
-63.7352
-149.31
-214.109
-256.364
-278.132
-284.448
-280.331
-269.811
-255.466
-238.821
-221.025
-203.242
-186.639
-172.161
-160.344
-151.263
-144.581
-139.661
-135.694
-131.902
-127.809
-122.963
-116.91
-109.454
-100.629
-90.6606
-79.9365
-68.9607
-58.2848
-48.4306
-39.8095
-32.67
-27.0832
-22.9615
-20.0953
-18.1996
-16.9642
-16.1067
-15.4127
-14.7543
-14.0818
-13.3867
-12.663
-11.8897
-11.0401
-10.1002
-9.08149
-8.01841
-6.95516
-5.93154
-4.97356
-4.09098
-3.28047
-2.53111
-1.8297
-1.16436
-0.526568
0.0837647
0.642185
2057.74
1992.41
1932.72
1895.53
1875.28
1878.61
1889.05
1889.63
1867.51
1812.18
1715.95
1572.62
1377.19
1128.04
830.388
496.879
145.327
-203.614
-529.537
-812.527
-1021.68
-1112.78
-1068.53
-932.707
-774.924
-637.389
-528.07
-443.478
-380.007
-334.847
-304.983
-287.042
-277.631
-273.656
-272.52
-272.206
-271.273
-268.802
-264.295
-257.307
-247.287
-234.431
-219.307
-202.209
-183.405
-163.355
-142.67
-122.053
-102.231
-83.8854
-67.5618
-53.619
-42.2144
-33.3273
-26.7835
-22.2565
-19.2744
-17.2866
-15.8111
-14.5326
-13.3322
-12.2241
-11.2683
-10.496
-9.87658
-9.31944
-8.74115
-8.09221
-7.36602
-6.58861
-5.79692
-5.02073
-4.27497
-3.56106
-2.87257
-2.20116
-1.54045
-0.88717
-0.24114
0.37109
-4097.31
-4023.13
-3950.74
-3875.73
-3777.1
-3631.23
-3425.55
-3164.84
-2860.71
-2521.03
-2151.26
-1758.5
-1354.38
-955.838
-584.136
-261.962
-9.15013
162.154
250.8
266.827
229.541
162.522
83.6396
-0.140637
-86.0097
-168.497
-240.372
-296.394
-334.859
-356.646
-364.02
-359.831
-347.018
-328.331
-306.166
-282.467
-258.7
-235.982
-215.231
-196.818
-180.935
-167.019
-154.391
-142.844
-132.269
-122.67
-114.166
-106.839
-100.57
-94.9259
-89.1917
-82.5964
-74.6902
-65.6437
-56.186
-47.1764
-39.1909
-32.3596
-26.5113
-21.4045
-17.1262
-13.7784
-11.3502
-9.69581
-8.82204
-8.24726
-7.78289
-7.31981
-6.80114
-6.22399
-5.6121
-4.98995
-4.37095
-3.75732
-3.14495
-2.52861
-1.90513
-1.27319
-0.633656
-0.0270544
719.713
551.564
332.11
81.3749
-229.229
-524.48
-768.332
-963.496
-1137.95
-1319.63
-1518.64
-1728.66
-1933.2
-2110.15
-2235.96
-2291.07
-2265.07
-2160.05
-1991
-1782.22
-1560.57
-1348.58
-1159.7
-997.789
-860.683
-744.709
-646.738
-564.165
-494.744
-436.413
-387.233
-345.415
-309.282
-277.398
-248.383
-221.008
-194.7
-169.856
-147.524
-129.347
-116.542
-109.034
-105.649
-104.773
-105.05
-105.728
-106.521
-107.272
-107.675
-107.176
-105.077
-100.801
-94.2367
-85.8962
-76.6867
-67.2295
-58.1835
-49.5516
-41.2832
-33.7258
-27.1163
-21.6577
-17.4425
-14.3168
-11.9355
-10.2536
-9.0096
-8.00345
-7.13494
-6.36243
-5.669
-5.04231
-4.46658
-3.92301
-3.39317
-2.8621
-2.31947
-1.75799
-1.17679
-0.623078
1108.06
1409.78
1777.01
2079.15
2336.11
2544.31
2704.07
2791.63
2799.66
2739.61
2628.94
2484.78
2319.77
2138.48
1945.27
1748.5
1557.71
1381.12
1224.81
1090.62
977.676
883.021
802.413
731.203
665.049
600.295
533.62
462.991
387.472
307.264
223.993
140.671
61.2019
-10.1353
-69.5089
-114.28
-143.026
-156.219
-156.663
-147.714
-133.744
-118.733
-104.387
-91.9133
-81.5627
-73.7069
-68.4469
-65.3491
-63.4779
-61.6453
-58.7797
-54.2742
-48.2174
-41.3029
-34.4303
-28.5277
-23.7089
-19.9041
-16.8927
-14.4804
-12.5383
-10.9898
-9.77119
-8.88305
-8.12133
-7.43989
-6.81376
-6.23485
-5.71212
-5.25592
-4.86595
-4.52871
-4.22215
-3.92217
-3.6076
-3.26241
-2.87563
-2.43922
-1.95542
-1.47202
1795.44
1735.11
1642.78
1517.95
1367.1
1223.34
1104.88
1021.46
979.074
974.425
982.438
955.043
853.876
694.708
523.298
346.79
137.297
-100.409
-325.083
-499.094
-611.478
-668.646
-680.73
-657.224
-606.681
-536.819
-454.358
-365.776
-276.48
-190.841
-112.321
-43.0496
16.194
65.53
105.702
137.63
162.689
182.544
198.328
209.309
214.242
212.48
204.217
191.024
174.474
156.184
136.893
117.424
98.3397
80.3554
64.1588
50.1885
38.5783
29.1975
21.734
15.8251
11.1287
7.38161
4.39813
2.03967
0.205327
-1.1838
-2.19623
-2.89773
-3.34739
-3.60906
-3.74655
-3.8167
-3.86441
-3.91716
-3.98207
-4.04909
-4.09845
-4.10822
-4.05913
-3.93649
-3.72978
-3.43147
-3.04799
-2.62196
-6493.37
-6226.37
-5841.92
-5354.35
-4807.98
-4283.64
-3807.85
-3374.25
-2980.51
-2639.03
-2355.14
-2103.85
-1839.37
-1535.25
-1216.61
-934.468
-718.649
-574.716
-494.136
-463.098
-465.942
-487.575
-515.423
-540.335
-556.515
-560.629
-551.105
-527.747
-491.721
-445.429
-391.727
-333.503
-273.476
-214.089
-157.44
-105.271
-58.8879
-19.133
13.5204
38.7245
56.0608
65.2596
66.6283
61.2108
51.3282
39.2067
27.4974
17.3585
9.87608
5.43432
3.67217
3.78919
4.86179
6.0908
6.94088
7.17156
6.78092
5.9134
4.76883
3.53663
2.35905
1.31934
0.446146
-0.272739
-0.873573
-1.39928
-1.88679
-2.3599
-2.82855
-3.29128
-3.73773
-4.15081
-4.50943
-4.79159
-4.97709
-5.04923
-4.99486
-4.80503
-4.48949
-4.08204
9265.79
9019.95
8682.69
8183.59
7418.11
6498.05
5562.26
4701.08
3913.91
3173.75
2486.29
1881.12
1395.96
1058.63
862.115
759.857
695.245
630.68
553.074
465.422
375.78
291.074
215.921
152.759
102.392
64.6204
38.5837
22.2055
12.1428
4.65098
-3.17824
-12.5863
-23.2414
-34.0326
-43.669
-51.1178
-55.8256
-57.6935
-56.9542
-54.045
-49.5042
-43.8719
-37.6009
-31.043
-24.4
-17.7566
-11.5781
-5.25229
0.788398
5.89987
10.053
13.1655
15.1549
16.0419
15.9541
15.1026
13.7352
12.0861
10.3415
8.62497
6.99838
5.47643
4.04714
2.69367
1.40807
0.195039
-0.934931
-1.97475
-2.92458
-3.78831
-4.567
-5.25453
-5.83778
-6.29954
-6.62184
-6.78855
-6.78635
-6.60718
-6.26495
-5.78475
-1878.34
-1863.61
-1877.66
-1946.74
-2115.72
-2332.48
-2521.97
-2623.13
-2632.08
-2582.13
-2500.17
-2394.72
-2272.1
-2142.81
-2012.5
-1876.1
-1724.07
-1552.61
-1367.57
-1179.81
-1000.66
-841.011
-710.03
-612.267
-545.13
-499.885
-462.865
-422.445
-374.051
-320.316
-267.527
-221.151
-183.227
-152.696
-127.265
-104.807
-83.886
-63.7671
-44.2384
-25.4243
-7.66018
8.5888
22.7968
34.45
43.1522
48.7123
51.1522
50.3973
47.004
41.8274
35.5139
28.9698
22.7666
17.2182
12.5108
8.70591
5.7595
3.55918
1.95669
0.798781
-0.0558085
-0.728204
-1.31539
-1.88385
-2.47537
-3.11169
-3.79713
-4.52207
-5.26743
-6.00852
-6.71724
-7.36348
-7.91651
-8.34663
-8.62671
-8.73366
-8.64929
-8.36322
-7.88358
-7.23994
-9841.47
-9495.14
-9095.37
-8688.58
-8253.64
-7763.66
-7155.97
-6387.01
-5464.06
-4467.63
-3533.2
-2784.41
-2268.05
-1955.22
-1782.79
-1690.02
-1630.62
-1572.37
-1497.05
-1402.41
-1299.23
-1200.34
-1110.97
-1028.77
-950.299
-874.818
-805.569
-745.409
-694.577
-650.761
-610.682
-571.021
-529.336
-484.567
-436.951
-387.601
-338.042
-289.842
-244.361
-202.63
-165.314
-132.758
-105.051
-82.085
-63.6144
-49.2739
-38.601
-30.9353
-24.9411
-20.1114
-16.143
-13.0714
-10.7204
-8.90332
-7.49869
-6.4233
-5.61205
-5.01263
-4.58931
-4.32121
-4.19403
-4.19686
-4.32137
-4.56274
-4.91412
-5.36479
-5.8992
-6.49641
-7.13047
-7.7711
-8.38476
-8.93589
-9.38863
-9.70851
-9.86437
-9.83005
-9.58554
-9.12213
-8.42612
-7.57414
16004.8
15714.6
15340.7
14758.4
13872.1
12733.2
11414.3
9981.02
8469.48
6919.85
5415.44
4058.13
2894.85
1897.93
1021.46
256.001
-369.343
-815.034
-1064.39
-1143.96
-1114.33
-1036.76
-947.437
-858.81
-773.301
-690.878
-611.246
-535.092
-464.45
-401.657
-348.064
-303.445
-266.485
-235.622
-209.495
-187.039
-167.45
-150.151
-134.737
-120.934
-108.535
-97.3378
-87.2011
-77.9308
-69.3518
-61.3286
-53.7326
-46.5027
-40.0638
-34.378
-29.4098
-25.1653
-21.6228
-18.7134
-16.3361
-14.3778
-12.7382
-11.3489
-10.174
-9.19197
-8.39323
-7.77467
-7.33279
-7.0627
-6.95539
-6.99678
-7.16676
-7.43898
-7.7814
-8.15747
-8.52739
-8.84968
-9.08292
-9.18767
-9.12836
-8.87583
-8.40588
-7.71659
-6.75229
-5.67793
-4884.04
-4590.76
-4142.45
-3538.73
-2792.15
-2000.66
-1229.29
-532.169
62.0475
586.06
1127.64
1745.28
2372.88
2856.31
3092.55
3095.22
2933.24
2667.29
2342.33
1994.85
1650.94
1327.11
1035.25
782.23
569.148
392.98
249.099
133.061
41.3186
-28.9482
-80.2999
-115.38
-136.966
-147.837
-150.604
-147.55
-140.603
-131.351
-121.038
-110.563
-100.556
-91.2541
-82.8937
-75.4833
-68.9194
-63.0464
-57.6528
-52.5977
-47.8392
-43.2299
-38.7961
-34.5771
-30.5683
-26.7612
-23.2313
-20.0767
-17.2963
-14.8688
-12.7686
-10.9736
-9.46407
-8.22325
-7.23626
-6.48771
-5.96038
-5.63406
-5.4844
-5.48197
-5.59195
-5.77413
-5.98346
-6.17114
-6.28616
-6.27758
-6.09686
-5.70382
-5.05963
-4.16765
-2.94894
-1.61185
-6344.28
-6318.45
-6319.32
-6329.36
-6315.64
-6248.04
-6104.82
-5874.88
-5558.63
-5166.62
-4714.16
-4221.54
-3706
-3179.5
-2653.9
-2147.01
-1678.77
-1263.8
-909.051
-615.15
-379.999
-198.963
-65.7781
26.7059
85.6128
117.631
128.732
124.094
108.203
84.9484
57.6114
28.85
0.719435
-25.2775
-48.0877
-66.992
-81.5401
-91.5406
-97.0747
-98.4717
-96.262
-91.1125
-83.7657
-75.0388
-65.7437
-56.6024
-48.2205
-40.9535
-34.862
-29.881
-25.8551
-22.5789
-19.8567
-17.594
-15.5839
-13.6009
-11.6468
-9.75056
-7.94585
-6.27117
-4.76378
-3.45734
-2.37988
-1.55159
-0.983051
-0.674296
-0.614418
-0.781145
-1.14025
-1.64498
-2.23596
-2.8418
-3.38107
-3.76599
-3.90757
-3.7255
-3.15075
-2.15593
-0.715299
1.0667
489.885
366.973
215.241
47.403
-177.429
-438.249
-718.049
-991.901
-1238.15
-1444
-1604.12
-1717.23
-1783.15
-1802.44
-1775.56
-1704.47
-1594.34
-1453.39
-1291.48
-1118.62
-944.2
-776.625
-622.719
-487.076
-371.658
-276.586
-200.764
-142.208
-98.5174
-67.2975
-46.2622
-33.3214
-26.5686
-24.311
-25.2731
-28.3284
-32.5074
-37.043
-41.3484
-45.0001
-47.7205
-49.3615
-49.8869
-49.3536
-47.8854
-45.6419
-42.7914
-39.4939
-35.8837
-32.0703
-28.1552
-24.1478
-20.0016
-16.0025
-12.1946
-8.66965
-5.44247
-2.53485
0.0251043
2.2094
3.99351
5.35986
6.29792
6.80402
6.88136
6.54079
5.80237
4.698
3.27506
1.60025
-0.237034
-2.12297
-3.92095
-5.47587
-6.62693
-7.21596
-7.12383
-6.25212
-4.64562
-2.26415
1445.08
1749.78
2148.54
2504.52
2816.85
3047.15
3238.27
3410.01
3539.99
3591.5
3544.16
3401.33
3180.07
2899.62
2577.38
2229.37
1871.67
1518.56
1181.5
869.248
588.651
345.151
141.549
-21.9077
-146.89
-236.564
-295.254
-327.955
-339.799
-335.813
-320.641
-298.345
-272.14
-244.62
-217.393
-191.492
-167.527
-145.773
-126.295
-109.03
-93.8325
-80.5136
-68.8535
-58.6238
-49.5908
-41.4822
-34.0379
-27.2438
-21.1905
-15.7079
-10.7005
-6.24929
-2.45704
1.01264
4.19178
7.09406
9.72673
12.0693
14.075
15.6845
16.8425
17.5076
17.6544
17.2704
16.3526
14.9066
12.9485
10.5098
7.64342
4.43085
0.98833
-2.5296
-5.93097
-8.99314
-11.4778
-13.1497
-13.8136
-13.3192
-11.6773
-8.837
7709.53
7520.7
7278.78
6954.49
6532.48
6051.99
5525.5
4948.03
4313.43
3626.63
2908.26
2187.87
1493.12
845.953
264.6
-231.005
-618
-878.53
-1012.28
-1041.62
-1001.52
-923.8
-830.22
-732.439
-636.323
-544.967
-460.135
-382.797
-313.352
-251.867
-198.248
-152.105
-113.339
-81.3103
-55.7007
-36.0277
-21.7634
-12.3851
-7.35479
-6.01168
-7.3433
-10.3735
-14.2128
-18.1251
-21.4862
-23.7674
-24.609
-23.7838
-21.3597
-17.7853
-13.4124
-8.504
-3.27523
2.1569
7.72153
13.2897
18.6112
23.3591
27.25
30.1026
31.8529
32.5334
32.2316
31.0525
29.0987
26.4647
23.2396
19.5125
15.3788
10.9479
6.35141
1.75032
-2.66109
-6.65759
-9.99355
-12.4236
-13.7276
-13.7508
-12.4283
-9.81919
-7812.74
-7536.08
-7202.14
-6823.39
-6365.45
-5864.5
-5346.37
-4848.2
-4395.19
-3982.62
-3580.54
-3157.75
-2703.72
-2229.34
-1752.9
-1287.46
-839.718
-413.983
-17.611
336.527
632.709
857.552
1006.11
1084.39
1105.87
1085.01
1033.42
959.565
870.419
772.341
670.773
569.796
472.412
380.752
296.312
220.151
152.945
95.046
46.6241
7.74102
-21.9124
-42.6835
-54.5901
-58.1964
-54.4816
-44.5896
-29.8062
-11.5871
8.4537
28.715
47.7735
64.45
77.8049
87.5109
93.3117
95.5219
95.0707
92.1888
87.359
81.2218
74.3591
67.2431
60.2185
53.4981
47.1771
41.2613
35.7014
30.4237
25.3574
20.4543
15.7042
11.1436
6.85921
2.98361
-0.317414
-2.86513
-4.49477
-5.08451
-4.58049
-3.06077
978.677
1180.61
1420.69
1650.45
1912.69
2144.86
2279.55
2292.11
2203.51
2028.1
1777.88
1482.98
1174.4
871.401
585.755
326.825
102.384
-82.1287
-224.737
-328.187
-398.579
-443.174
-468.174
-478.915
-480.207
-474.284
-462.255
-444.857
-422.619
-396.129
-366.841
-335.97
-305.619
-277.236
-251.553
-228.778
-208.783
-191.089
-174.74
-158.873
-142.693
-125.41
-106.873
-87.0659
-66.1897
-44.66
-23.0309
-1.92124
18.0461
36.2732
52.184
65.1893
74.8297
81.1011
84.8766
86.47
85.4801
82.4756
78.1569
73.113
67.785
62.4606
57.3022
52.3845
47.7259
43.3111
39.1047
35.0635
31.1473
27.3296
23.6068
20.0055
16.5849
13.4336
10.658
8.37513
6.68187
5.64081
5.26787
5.65341
4473.45
4219.65
3851.05
3350.85
2673.5
1912.04
1107.69
294.876
-474.998
-1136.38
-1629.79
-1927.09
-2048.04
-2050.52
-1998.24
-1933.06
-1869.38
-1805.88
-1738.41
-1664.04
-1580.28
-1485.27
-1378.36
-1260.46
-1134.3
-1004.48
-876.69
-756.176
-646.621
-549.86
-466.064
-394.209
-332.664
-279.726
-234
-194.432
-160.101
-130.066
-103.626
-80.1536
-59.136
-40.1027
-22.7228
-6.77255
7.87586
21.2703
33.3788
44.1045
53.5046
61.533
68.1083
73.1672
76.6442
78.5925
79.2161
78.6665
77.0835
74.6443
71.5465
67.9864
64.1434
60.1688
56.1806
52.2624
48.4652
44.8131
41.3092
37.9436
34.701
31.5689
28.5446
25.6404
22.8852
20.3212
18.0076
15.9997
14.3457
13.0765
12.1985
11.6964
11768.5
11579.9
11349.5
11036
10563.4
9973.3
9293.39
8560.1
7806.91
7056.54
6323.51
5619.37
4958.24
4356.59
3829.89
3387.57
3028.31
2742.41
2515.82
2332.95
2179.97
2045.44
1920.02
1795.99
1667.37
1530.76
1386.73
1238.93
1094.03
957.799
833.312
721.375
621.411
532.382
453.333
383.536
322.408
269.395
223.902
185.28
152.842
125.878
103.687
85.5834
70.8936
58.9894
49.3287
41.4586
35.0181
29.7218
25.3337
21.66
18.544
15.8635
13.5173
11.4042
9.50173
7.76658
6.16469
4.67438
3.27697
1.96064
0.717398
-0.458032
-1.56879
-2.61623
-3.60017
-4.51895
-5.36949
-6.14741
-6.84714
-7.46222
-7.98555
-8.40987
-8.72843
-8.93603
-9.03029
-9.02012
-8.89763
-8.67105
-334.225
-206.687
-35.5332
175.848
414.897
656.526
879.111
1065.83
1208.04
1307.45
1374.78
1427.65
1485.72
1560.74
1651.36
1741.97
1809.43
1834.8
1811.7
1744.66
1642.64
1515.39
1371.86
1218.76
1060.53
900.489
742.749
593.976
462.813
355.58
273.19
212.272
168.119
136.293
113.541
97.4782
86.1724
78.065
71.976
67.1194
63.2393
59.8367
56.3657
52.7374
48.9204
44.9656
41.0008
37.1889
33.657
30.4529
27.5316
24.8365
22.3205
19.9451
17.706
15.6322
13.6882
11.8686
10.1671
8.57495
7.08355
5.68574
4.37559
3.14834
2.00025
0.928605
-0.0683124
-0.991242
-1.84
-2.61355
-3.3102
-3.9278
-4.46403
-4.91668
-5.28402
-5.56511
-5.75984
-5.87936
-5.92159
-5.91265
-4835.57
-4851.12
-4860.27
-4825.84
-4758.52
-4659.55
-4548.25
-4433.43
-4307.8
-4158.88
-3978.66
-3767.42
-3535.29
-3297.68
-3069.01
-2855.54
-2654.3
-2459.37
-2267.27
-2077.63
-1890.23
-1703.91
-1517.78
-1331.88
-1147.23
-965.512
-789.132
-621.331
-465.753
-325.383
-202.075
-97.2179
-13.1185
48.1892
87.2554
107.25
113.533
111.096
103.846
94.4895
84.3408
74.4086
66.0228
59.4807
54.3688
50.1838
46.485
42.9681
39.4664
35.9143
32.3487
28.8573
25.5485
22.5132
19.7867
17.3622
15.2103
13.2947
11.5795
10.0317
8.62304
7.3303
6.13554
5.02546
3.99073
3.02522
2.12525
1.28896
0.515666
-0.194501
-0.840922
-1.42278
-1.93936
-2.39034
-2.776
-3.0971
-3.3539
-3.55737
-3.70933
-3.8505
-307.102
-270.889
-215.762
-156.27
-111.265
-94.595
-79.3973
-20.4336
101.256
261.698
412.171
504.186
508.33
424.229
275.886
94.5956
-92.2792
-262.063
-398.392
-493.594
-547.422
-564.211
-550.305
-511.944
-455.764
-388.858
-317.817
-249.562
-191.078
-146.506
-115.342
-94.346
-79.9729
-69.7202
-62.9807
-59.1904
-58.3735
-59.4393
-60.6817
-60.6219
-58.2997
-53.2842
-46.0259
-37.3294
-28.1084
-19.1724
-11.1477
-4.37678
0.947368
4.95404
7.82554
9.76214
10.9533
11.563
11.7269
11.5542
11.133
10.5334
9.81153
9.01158
8.16797
7.30685
6.44768
5.60462
4.78777
4.00427
3.25915
2.55602
1.89747
1.28537
0.721025
0.205272
-0.261509
-0.679521
-1.04973
-1.37343
-1.65058
-1.89084
-2.09863
-2.32515
10167.8
10079.8
9939.09
9676.46
9276.84
8775.7
8215.28
7619.88
6977.9
6248.36
5400.94
4468.69
3559.31
2785.61
2183.98
1718.77
1345.39
1040.28
792.22
592.444
433.306
309.718
218.245
153.779
110.269
81.608
61.8727
45.7863
29.3847
10.8293
-9.60356
-30.1359
-48.6025
-63.374
-74.6851
-83.0135
-88.544
-91.3668
-91.4934
-88.9932
-84.0872
-77.1531
-68.7064
-59.2764
-49.1745
-39.1079
-29.5827
-21.0026
-13.6542
-7.67221
-3.03846
0.389729
2.82504
4.49243
5.58805
6.26315
6.62671
6.75573
6.70553
6.51735
6.22329
5.84925
5.41669
4.94373
4.44572
3.93565
3.42437
2.92086
2.43244
1.96492
1.52267
1.10886
0.725528
0.373669
0.0530931
-0.236948
-0.495536
-0.730149
-0.94694
-1.2043
-10216.7
-9522.43
-8599.54
-7610.88
-6564.01
-5570.83
-4636.37
-3762.4
-2956.91
-2228.55
-1582.04
-1019.46
-544.034
-161.662
126.216
326.751
451.372
510.86
516.01
478.266
409.45
321.872
225.477
125.813
26.0309
-72.4843
-168.263
-257.118
-333.012
-389.454
-421.26
-426.444
-406.741
-367.546
-316.497
-262.846
-213.568
-171.569
-137.117
-109.204
-86.6277
-68.3437
-53.4549
-41.3146
-31.5972
-23.6283
-17.0723
-11.6762
-7.26886
-3.71761
-0.90799
1.26528
2.9008
4.08911
4.91082
5.43587
5.72382
5.82478
5.78047
5.6253
5.38739
5.08948
4.7499
4.38329
4.00142
3.61366
3.22749
2.84883
2.48234
2.13161
1.79926
1.48708
1.19604
0.926284
0.67703
0.447125
0.237473
0.0425088
-0.145581
-0.390413
-463.774
-713.025
-1015.83
-1335.05
-1674.56
-2018.33
-2368.68
-2720.6
-3060.87
-3372.64
-3639.72
-3850.66
-4000.26
-4088.29
-4118.15
-4093.14
-4013.44
-3877.05
-3682.84
-3435.1
-3142.18
-2813.2
-2460.05
-2096.65
-1738.57
-1401.99
-1100.57
-844.064
-636.211
-475.233
-355.662
-270.087
-210.382
-168.65
-137.823
-113.967
-94.042
-76.8038
-61.6271
-48.3539
-36.881
-27.1909
-19.2137
-12.8037
-7.77108
-3.89764
-0.950171
1.23808
2.82831
3.95335
4.71864
5.20732
5.48435
5.60028
5.59428
5.49667
5.33093
5.11536
4.8643
4.58907
4.29872
4.00049
3.7002
3.40247
3.11103
2.82878
2.55803
2.30051
2.05743
1.82952
1.61713
1.42022
1.23837
1.07059
0.91524
0.770463
0.636809
0.510603
0.382714
0.186039
-4515.92
-4100.55
-3510.6
-2791.91
-1935.72
-1056.75
-220.662
519.452
1131.72
1604
1936.03
2135.62
2217.5
2202.15
2113.69
1977.6
1817.45
1650.69
1486.54
1328.82
1178.06
1033.96
896.624
767.128
647.44
539.997
446.937
369.357
306.827
257.545
218.995
188.731
164.989
146.782
133.246
123.224
115.038
106.982
98.2383
88.7767
78.7793
68.6643
58.889
49.8105
41.6555
34.527
28.4323
23.3145
19.0788
15.6124
12.7997
10.5315
8.70974
7.24972
6.07984
5.14084
4.38451
3.77213
3.27302
2.86308
2.5236
2.24016
2.00169
1.79973
1.62781
1.48095
1.35534
1.248
1.15647
1.0787
1.01281
0.957076
0.909791
0.869119
0.832759
0.798279
0.765821
0.733732
0.692507
0.574087
12240.3
11927.8
11522.1
10979.1
10216.9
9341.84
8435.47
7565.47
6774.37
6079.18
5479.33
4962.31
4509.99
4105.76
3740.2
3410.97
3116.37
2849.23
2597.44
2349.76
2101.58
1854.26
1615.37
1394.43
1198.81
1031.06
889.312
769.598
667.713
580.045
503.72
436.554
376.986
324.007
276.973
235.46
199.119
167.523
140.258
116.856
96.8261
79.7054
65.0907
52.6533
42.1269
33.2896
25.9486
19.9266
15.0545
11.1691
8.11481
5.74708
3.93556
2.5667
1.54484
0.791935
0.24609
-0.140718
-0.405198
-0.575263
-0.672209
-0.71244
-0.708737
-0.671163
-0.60771
-0.524758
-0.427438
-0.319904
-0.205535
-0.0871083
0.0330329
0.15282
0.270354
0.383777
0.490938
0.589528
0.679705
0.761997
0.827782
0.811572
2323.44
2159.24
1918.88
1617.13
1237.34
875.436
569.225
330.099
160.028
58.2801
20.5368
35.0366
84.1304
150.381
221.351
290.957
358.544
426.768
498.613
576.305
658.249
738.112
805.185
848.028
858.83
836.669
786.748
717.419
637.304
553.537
471.234
393.934
323.359
260.436
205.537
158.615
119.313
87.0999
61.2445
40.9927
25.6548
14.3282
6.11786
0.351748
-3.54987
-6.07459
-7.61255
-8.46396
-8.85124
-8.93311
-8.81877
-8.58091
-8.26662
-7.90585
-7.51746
-7.11312
-6.69996
-6.28221
-5.86243
-5.4423
-5.02317
-4.60635
-4.19323
-3.78526
-3.38393
-2.99069
-2.60701
-2.23427
-1.87374
-1.52659
-1.19388
-0.876604
-0.575763
-0.29242
-0.0279591
0.215999
0.440032
0.646931
0.830379
0.931708
-14012
-13380.1
-12553.8
-11548.6
-10283.9
-8839.36
-7310.5
-5835.08
-4525.22
-3428.13
-2545.05
-1866.57
-1382.95
-1075.56
-914.61
-863.757
-883.522
-934.857
-982.329
-999.636
-973.842
-907.889
-817.651
-724.02
-643.436
-582.412
-538.458
-504.75
-474.587
-443.581
-409.954
-374.479
-338.214
-302.101
-266.889
-233.217
-201.693
-172.878
-147.17
-124.751
-105.684
-89.6865
-76.3146
-65.2267
-56.0728
-48.5229
-42.2859
-37.1139
-32.8
-29.1741
-26.0979
-23.4609
-21.1762
-19.1758
-17.4068
-15.8275
-14.405
-13.1129
-11.93
-10.8391
-9.82663
-8.88196
-7.99664
-7.16416
-6.37951
-5.6388
-4.93908
-4.27804
-3.65392
-3.06533
-2.51124
-1.9909
-1.50371
-1.04936
-0.627988
-0.240225
0.114957
0.442124
0.738055
0.95831
8664.26
8330.36
7894.47
7325.05
6567.98
5716.63
4825.5
3932.42
3056.53
2205.83
1389.63
619
-96.2461
-747.597
-1325.06
-1816.76
-2211.49
-2501.51
-2685.24
-2768.65
-2764.45
-2689.88
-2563.53
-2401.79
-2216.58
-2015.13
-1801.89
-1580.7
-1356.99
-1139.17
-937.454
-759.942
-610.658
-489.485
-393.284
-317.744
-258.683
-212.412
-176.041
-147.331
-124.523
-106.263
-91.5237
-79.5051
-69.5981
-61.3432
-54.3941
-48.4889
-43.4276
-39.0563
-35.2537
-31.9227
-28.9839
-26.3722
-24.0333
-21.9226
-20.0035
-18.246
-16.6261
-15.1248
-13.7269
-12.4204
-11.196
-10.0461
-8.96475
-7.94729
-6.98979
-6.08907
-5.24245
-4.44769
-3.70291
-3.00655
-2.35731
-1.75417
-1.19658
-0.684771
-0.218138
0.208251
0.593901
0.897249
-1288.71
-1265.34
-1238.76
-1234.09
-1254.05
-1300.06
-1363.68
-1447.67
-1556.75
-1685.49
-1816.96
-1926.92
-1988.4
-1979.12
-1890.11
-1730.01
-1521.93
-1294.98
-1076.25
-885.44
-733.055
-620.905
-544.591
-496.314
-466.74
-447.183
-431.143
-413.881
-392.999
-368.596
-341.944
-314.531
-287.268
-260.403
-234.052
-208.535
-184.375
-162.233
-142.539
-125.445
-110.866
-98.5142
-88.0307
-79.0678
-71.3307
-64.5882
-58.6634
-53.4197
-48.7496
-44.5665
-40.7993
-37.3886
-34.285
-31.4471
-28.8403
-26.4358
-24.2094
-22.1411
-20.214
-18.4139
-16.729
-15.1491
-13.666
-12.2726
-10.9627
-9.73147
-8.57447
-7.48803
-6.46897
-5.51451
-4.62217
-3.78977
-3.01541
-2.29749
-1.6349
-1.02729
-0.473829
0.0303153
0.484349
0.844837
-8821.77
-8325.15
-7712.96
-7073.39
-6371.19
-5658.05
-4905.43
-4071.35
-3122.26
-2046.21
-866.821
349.533
1492.02
2431.98
3073.51
3398.68
3465.51
3360.92
3158.11
2904.13
2627.72
2347.18
2076.56
1826.39
1600.51
1392.7
1193.46
1000.95
821.373
660.797
520.905
401.028
299.962
216.29
148.201
93.8461
51.5726
19.7087
-3.46495
-19.73
-30.6681
-37.7169
-41.9742
-44.2461
-45.1155
-45.0003
-44.1989
-42.9244
-41.3293
-39.5222
-37.581
-35.5622
-33.5066
-31.4448
-29.3993
-27.3871
-25.421
-23.5106
-21.663
-19.8833
-18.1751
-16.5406
-14.9809
-13.4966
-12.0874
-10.7526
-9.49142
-8.30245
-7.1843
-6.13543
-5.15423
-4.23905
-3.38818
-2.59995
-1.87311
-1.20729
-0.60125
-0.0479796
0.452755
0.834976
12516.1
12299.1
12013.2
11589.4
11000.6
10298
9531.09
8752.44
7998.45
7273.84
6557.41
5818.75
5041.39
4237.23
3445.01
2713.43
2079.05
1552.34
1121.65
767.612
472.335
221.712
4.93194
-174.568
-292.237
-329.016
-302.724
-250.152
-192.658
-137.148
-90.0951
-55.8739
-34.9634
-24.9477
-22.0428
-23.7031
-27.7912
-32.6454
-37.4449
-41.6295
-44.9265
-47.2682
-48.6893
-49.27
-49.1121
-48.3313
-47.0499
-45.3885
-43.4571
-41.3499
-39.1425
-36.8931
-34.6439
-32.4245
-30.2542
-28.1452
-26.1046
-24.1362
-22.2419
-20.4224
-18.6778
-17.0079
-15.4123
-13.8907
-12.4427
-11.0681
-9.76636
-8.53707
-7.37955
-6.29299
-5.27638
-4.32855
-3.44805
-2.63316
-1.88219
-1.19713
-0.570925
0.00249969
0.526084
0.928974
-6599.97
-6499.64
-6334.07
-6063.24
-5685.49
-5218.79
-4682.41
-4101.14
-3511.69
-2960.24
-2484.88
-2101.64
-1806.85
-1586.06
-1421.07
-1289.78
-1162.24
-1015.68
-848.222
-674.034
-510.129
-368.819
-256.61
-176.058
-122.959
-87.1837
-63.8076
-56.1505
-63.7894
-76.7349
-83.9375
-83.7446
-79.6967
-74.6035
-69.82
-65.081
-60.4406
-56.2712
-52.6408
-49.6657
-47.3458
-45.5774
-44.2146
-43.1083
-42.1283
-41.1719
-40.1662
-39.0658
-37.8482
-36.5088
-35.055
-33.5022
-31.87
-30.1802
-28.4542
-26.7099
-24.9635
-23.2291
-21.5182
-19.8408
-18.2047
-16.6165
-15.0816
-13.6042
-12.1878
-10.8351
-9.54844
-8.32937
-7.17905
-6.0981
-5.08656
-4.14396
-3.26938
-2.46192
-1.71948
-1.04137
-0.425777
0.134359
0.6428
1.0425
-3294.77
-3217.36
-3133.03
-3058.86
-2992.58
-2931.33
-2847.4
-2722.42
-2574.53
-2447.76
-2371.64
-2339.16
-2325.9
-2324.71
-2359.05
-2434.59
-2486.87
-2441.37
-2306.48
-2133.09
-1943.15
-1738.77
-1527.8
-1322.03
-1131.08
-960.927
-814.124
-690.27
-586.173
-497.583
-422.145
-358.993
-306.576
-262.651
-225.268
-193.141
-165.5
-141.847
-121.792
-104.97
-91.0067
-79.5225
-70.1402
-62.4994
-56.2731
-51.1711
-46.9473
-43.3976
-40.3562
-37.6911
-35.3039
-33.1176
-31.0739
-29.157
-27.3558
-25.612
-23.9121
-22.2506
-20.625
-19.0353
-17.4835
-15.9726
-14.5062
-13.0883
-11.7228
-10.4134
-9.16366
-7.97656
-6.8546
-5.79959
-4.81258
-3.89377
-3.04267
-2.25813
-1.53877
-0.883457
-0.291046
0.241928
0.713072
1.08685
4200.68
4064.21
3888.85
3623.37
3192.43
2618.56
1984.99
1390.56
884.551
452.299
59.0657
-303.976
-621.285
-878.219
-1064.46
-1169.42
-1197.14
-1171.13
-1111.36
-1026.03
-921.802
-807.635
-692.765
-584.072
-485.61
-399.248
-325.537
-264.075
-213.713
-173.174
-141.452
-117.459
-99.78
-86.9683
-77.7823
-71.2239
-66.4988
-62.9835
-60.2051
-57.8251
-55.6181
-53.4491
-51.2531
-49.0136
-46.7397
-44.4556
-42.1864
-39.9608
-37.7991
-35.716
-33.7176
-31.807
-29.983
-28.2135
-26.4715
-24.7864
-23.1507
-21.5564
-19.9988
-18.4755
-16.9865
-15.5332
-14.1182
-12.7451
-11.4178
-10.1408
-8.91843
-7.75526
-6.65522
-5.62146
-4.65599
-3.75956
-2.93174
-2.17082
-1.47474
-0.841359
-0.268822
0.245338
0.695753
1.06037
-3572.89
-2961.15
-2228.6
-1646.82
-1163.13
-760.328
-378.394
-16.1006
308.117
575.401
777.921
921.913
1019.43
1080.54
1112.21
1120.62
1111.12
1086.38
1047.4
995.441
932.99
862.876
787.747
710.625
634.722
562.631
495.663
433.664
375.776
321.235
269.753
221.574
177.274
137.44
102.48
72.5386
47.4911
26.9988
10.5851
-2.28609
-12.1524
-19.5157
-24.8197
-28.4374
-30.7002
-31.9908
-32.4544
-32.2884
-31.6674
-30.7333
-29.6
-28.3536
-27.0539
-25.7363
-24.4179
-23.1047
-21.7952
-20.4856
-19.1727
-17.8558
-16.5373
-15.2215
-13.9145
-12.6228
-11.3535
-10.1145
-8.91426
-7.7616
-6.66517
-5.63233
-4.66835
-3.77594
-2.95492
-2.20289
-1.51581
-0.888922
-0.317389
0.205468
0.682739
1.08718
2213.92
2228.77
2255.13
2294.53
2339.81
2409.91
2508.12
2621.35
2730.74
2817.91
2869.88
2880.5
2849.5
2779.42
2674.83
2541.79
2387.73
2220.66
2048.3
1876.82
1709.4
1545.62
1382.51
1217.1
1048.4
879.045
715.448
565.393
435.213
328.06
243.693
179.351
131.098
94.9649
67.5867
46.3809
29.5008
15.7037
4.20377
-5.45111
-13.4972
-20.0501
-25.1855
-28.9908
-31.5603
-32.9176
-33.3173
-32.9483
-32.0075
-30.6914
-29.1783
-27.6137
-26.1003
-24.694
-23.4075
-22.2203
-21.0942
-19.9885
-18.872
-17.7276
-16.5515
-15.349
-14.1289
-12.9003
-11.6715
-10.451
-9.24898
-8.07845
-6.95384
-5.88903
-4.89472
-3.97693
-3.13642
-2.36931
-1.66841
-1.02474
-0.428417
0.133717
0.674209
1.15498
-8.12086
-7.1337
-6.24348
-5.57463
-5.16526
-4.96105
-4.92085
-5.00865
-5.19104
-5.43145
-5.69198
-5.93687
-6.13537
-6.26329
-6.30246
-6.24034
-6.06949
-5.7904
-5.41872
-4.9636
-4.438
-3.86749
-3.25751
-2.63466
-2.01128
-1.41198
-0.850411
-0.33606
0.126981
0.538655
0.90179
1.22111
1.50239
1.75163
1.97457
2.17637
2.36145
2.53331
2.69449
2.84663
2.99049
3.12603
3.25241
3.36815
3.47132
3.55963
3.63062
3.68175
3.71061
3.71496
3.6928
3.6425
3.56283
3.45304
3.31314
3.14419
2.94883
2.73144
2.49813
2.25637
2.01422
1.77917
1.55697
1.35061
1.15948
0.979036
0.800596
0.61187
0.398252
0.14495
-0.160681
-0.527581
-0.960807
-1.46244
-2.03282
-2.67129
-3.37619
-4.14403
-4.96796
-5.83606
-6.73008
-7.62502
-8.48998
-9.28972
-9.98676
-10.5438
-10.9268
-11.1086
-11.0728
-10.817
-10.356
-9.72194
-8.96165
-8.13118
-7.28717
-6.47854
-5.74103
-5.09578
-4.55142
-4.10778
-3.75977
-3.50043
-3.32291
-3.22156
-3.19254
-3.23395
-3.34577
-3.52926
-3.78603
-4.117
-4.52165
-4.99781
-5.54196
-6.14965
-6.816
-7.53578
-8.30328
-9.11191
-9.95384
-10.8197
-11.6985
-12.5775
-13.4428
-14.2794
-15.0712
-15.8024
-16.4569
-17.0198
-17.4774
-17.8184
-18.0343
-18.1198
-18.0733
-17.8977
-17.6013
-17.1949
-16.6919
-16.1075
-15.4582
-14.7605
-14.0304
-13.2818
-12.5271
-11.7759
-11.0354
-10.3109
-9.60586
-8.92244
-8.26213
-7.62606
-7.01526
-6.43077
-5.87366
-5.34493
-4.84536
-4.37544
-3.93521
-3.52427
-3.1418
-2.78662
-2.45728
-2.15222
-1.86981
-1.60849
-1.36678
-1.14336
-0.937038
-0.74674
-0.571499
-0.410418
-0.262662
-0.127444
-0.00403186
0.108257
0.210053
0.301931
0.384413
0.457964
0.522991
0.579843
0.628812
0.670128
0.703962
0.730424
0.749569
0.761405
0.765902
0.763001
0.7526
0.734575
0.708712
0.674845
0.632566
0.581873
0.52184
0.453415
0.373649
0.287429
0.183487