/*--------------------------------*- C++ -*----------------------------------*\
| =========                 |                                                 |
| \\      /  F ield         | OpenFOAM: The Open Source CFD Toolbox           |
|  \\    /   O peration     | Version:  2012                                  |
|   \\  /    A nd           | Website:  www.openfoam.com                      |
|    \\/     M anipulation  |                                                 |
\*---------------------------------------------------------------------------*/
FoamFile
{
    version     2.0;
    format      ascii;
    class       surfaceScalarField;
    location    "0.56";
    object      phi;
}
// * * * * * * * * * * * * * * * * * * * * * * * * * * * * * * * * * * * * * //

dimensions      [0 3 -1 0 0 0 0];
oriented        oriented;


internalField   nonuniform List<scalar> 
84340
(
-0.000562252
0.000523935
3.83169e-05
-0.00141417
0.000964898
-0.000112984
-0.00205105
0.00101924
-0.000382356
-0.00240784
0.000969549
-0.000612754
-0.00258024
0.000900157
-0.000727761
-0.00265997
0.000797028
-0.000717297
-0.00270257
0.000660244
-0.000617639
-0.00272571
0.000497322
-0.000474189
-0.00272451
0.000318497
-0.000319696
-0.00268633
0.00013534
-0.000173518
-0.00259854
-4.0038e-05
-4.77554e-05
-0.00244983
-0.000196654
4.79444e-05
-0.00223804
-0.000327673
0.000115889
-0.00196782
-0.000424339
0.000154117
-0.0016501
-0.00048385
0.000166123
-0.00130191
-0.000505876
0.00015769
-0.000944826
-0.000491279
0.000134194
-0.000600743
-0.000442101
9.80178e-05
-0.000292189
-0.000360666
5.21115e-05
-3.28212e-05
-0.000257016
-2.35157e-06
0.000176378
-0.000142482
-6.67167e-05
0.000341182
-2.31628e-05
-0.000141642
0.00046132
0.000106691
-0.000226828
0.000519732
0.00025665
-0.000315062
0.000512316
0.000406697
-0.000399281
0.000442238
0.000543562
-0.000473485
0.000316558
0.000651667
-0.000525986
0.000146946
0.000721713
-0.000552101
-5.21989e-05
0.000753638
-0.000554494
-0.000266632
0.000754569
-0.000540137
-0.000484492
0.000734055
-0.000516195
-0.000696967
0.000700083
-0.000487607
-0.000897668
0.000657574
-0.000456872
-0.00108173
0.000608848
-0.000424788
-0.00124527
0.00055469
-0.000391151
-0.00138516
0.000495303
-0.000355415
-0.00149904
0.000430836
-0.000316951
-0.00158542
0.000361664
-0.00027528
-0.00164372
0.000288554
-0.000230258
-0.00167294
0.000211729
-0.000182509
-0.00167419
0.000132599
-0.000131347
-0.00164917
5.40324e-05
-7.90588e-05
-0.00159869
-2.38829e-05
-2.6593e-05
-0.00152455
-9.87079e-05
2.45709e-05
-0.00142899
-0.000168265
7.26985e-05
-0.00131474
-0.000230244
0.000115998
-0.00118523
-0.000282302
0.000152794
-0.0010446
-0.00032229
0.000181654
-0.000897687
-0.000348548
0.000201637
-0.000749974
-0.000360231
0.000212518
-0.000607245
-0.000357681
0.000214953
-0.000475151
-0.000342631
0.000210537
-0.000358618
-0.000318201
0.000201668
-0.000261241
-0.000288568
0.00019119
-0.00018476
-0.000258345
0.000181865
-0.000128778
-0.000231799
0.000175817
-9.08548e-05
-0.000212093
0.00017417
-6.70531e-05
-0.000200803
0.000177001
-5.27912e-05
-0.000197864
0.000183602
-4.37233e-05
-0.000201971
0.000192903
-3.63208e-05
-0.000211266
0.000203864
-2.79687e-05
-0.000224071
0.000215719
-1.66478e-05
-0.000239358
0.000228037
-5.02965e-07
-0.000256751
0.000240606
2.2351e-05
-0.000276095
0.000253241
5.36434e-05
-0.000296911
0.000265618
9.45034e-05
-0.00031808
0.00027722
0.000145077
-0.000337999
0.000287426
0.000204454
-0.000355077
0.0002957
0.000270941
-0.000368261
0.000301774
0.000342527
-0.000377348
0.000305761
0.000417363
-0.000382991
0.000308155
0.0004941
-0.000386485
0.000309747
0.000572062
-0.000389459
0.000311497
0.000651254
-0.000393587
0.000314395
0.000732297
-0.000400388
0.000319345
0.000816338
-0.000411108
0.000327067
0.000905065
-0.000426682
0.000337956
0.001001
-0.000447795
0.000351861
-0.000475293
0.000367702
0.00110859
0.00058131
-5.73753e-05
0.00146838
7.78237e-05
0.0023411
0.000146518
0.0031734
0.000137251
0.00394372
0.000129844
0.00461568
0.000125065
0.00515333
0.000122593
0.00552924
0.000121411
0.00572653
0.000121206
0.00573905
0.000122821
0.00557167
0.000127346
0.00523818
0.00013683
0.00475503
0.000155478
0.0041484
0.000182294
0.00344638
0.000218171
0.00267146
0.000269042
0.0018442
0.000335985
0.000983806
0.000418291
0.000112183
0.000510957
-0.000744483
0.00059965
-0.00154104
0.000654076
-0.00220603
0.000641828
-0.00267317
0.000573832
-0.00292685
0.000510328
-0.00301747
0.000497313
-0.00299349
0.000519589
-0.00290637
0.000564545
-0.00278665
0.000601991
-0.00265389
0.000620882
-0.00252033
0.000621009
-0.00239277
0.000606491
-0.00227442
0.000581733
-0.00216634
0.000549494
-0.00206844
0.000510946
-0.00197984
0.000466095
-0.00189901
0.000414472
-0.00182387
0.000355697
-0.00175191
0.0002897
-0.00168011
0.000216759
-0.00160555
0.000137162
-0.00152272
4.97741e-05
-0.00143313
-3.55601e-05
-0.0013351
-0.000121908
-0.001225
-0.000208807
-0.00110107
-0.000292198
-0.000962677
-0.000368639
-0.000810301
-0.000434677
-0.000645588
-0.000487003
-0.00047135
-0.000522786
-0.000291484
-0.000540098
-0.000110858
-0.000538308
6.50515e-05
-0.000518541
0.000230422
-0.000483572
0.000379156
-0.000437302
0.00050507
-0.00038426
0.000602624
-0.000329353
0.000668181
-0.000277651
0.000701309
-0.000233931
0.00070519
-0.000201745
0.000685912
-0.000182693
0.000650839
-0.000176193
0.000607034
-0.000180266
0.000560673
-0.000192998
0.000517312
-0.000213389
0.000482143
-0.000240926
0.000459588
-0.000274356
0.000452501
-0.000310993
0.000461545
-0.000347043
0.000485312
-0.000378845
0.000521055
-0.000404005
0.000565624
-0.000421917
0.000616259
-0.000433626
0.000671057
-0.000441284
0.000729088
-0.000447491
0.000790265
-0.000454764
0.000855083
-0.000465207
0.000924353
-0.000480378
0.000998974
-0.000501303
0.00107974
-0.000528559
-0.000562043
0.00116649
-0.000233785
0.000176409
-0.00051348
0.000357519
-0.000837511
0.000470549
-0.00126818
0.000567921
-0.00178687
0.000648533
-0.00236956
0.000707752
-0.00299014
0.000743172
-0.00362064
0.000751913
-0.00423011
0.000730676
-0.00478892
0.000681631
-0.00527306
0.000611487
-0.0056617
0.000525469
-0.00593751
0.00043129
-0.00609936
0.000344145
-0.00616097
0.000279779
-0.00614221
0.000250279
-0.00606399
0.000257765
-0.00593746
0.000291763
-0.00576149
0.000334991
-0.00552748
0.000365632
-0.00522661
0.000353209
-0.00485944
0.000274664
-0.00444219
0.000156573
-0.00399909
6.72349e-05
-0.00355027
4.84926e-05
-0.00312123
9.05493e-05
-0.00271827
0.000161581
-0.00235362
0.000237343
-0.00203735
0.000304614
-0.00177333
0.000356983
-0.00155864
0.000391809
-0.00138533
0.000408414
-0.00124302
0.000407193
-0.00112122
0.000389139
-0.00101068
0.000355559
-0.000904115
0.000307905
-0.000796326
0.000247908
-0.00068388
0.000177254
-0.000566639
9.95172e-05
-0.000445037
1.55606e-05
-0.000309934
-8.53296e-05
-0.000152745
-0.000192749
2.03221e-05
-0.000294976
0.000204599
-0.000393085
0.000396309
-0.000483907
0.000591251
-0.000563581
0.000784604
-0.00062803
0.000970939
-0.000673339
0.00114453
-0.00069638
0.00130006
-0.000695627
0.00143378
-0.000672028
0.00154473
-0.000629491
0.00163486
-0.000573699
0.00170736
-0.000509804
0.00176379
-0.000440682
0.0018018
-0.000367371
0.00181536
-0.000291205
0.00179732
-0.000215897
0.00174284
-0.00014726
0.0016522
-9.20519e-05
0.00153143
-5.54305e-05
0.00139172
-4.05527e-05
0.00124706
-4.83396e-05
0.00111095
-7.72782e-05
0.000993385
-0.000123359
0.000900483
-0.000181454
0.000833769
-0.00024428
0.000791176
-0.00030445
0.000768571
-0.000356242
0.000761224
-0.000396658
0.000764937
-0.00042563
0.000776729
-0.000445418
0.000795025
-0.000459581
0.000819468
-0.000471934
0.000850498
-0.000485794
0.000888894
-0.000503603
0.000935386
-0.000526869
0.000990389
-0.000556307
0.00105382
-0.000591994
-0.000633347
0.00112513
0.000200869
-2.44596e-05
0.000453899
0.000104489
0.0006158
0.000308647
0.000712674
0.000471048
0.000805439
0.000555768
0.000950093
0.000563099
0.00118402
0.000509243
0.00151614
0.000419795
0.00192439
0.000322428
0.00237311
0.000232904
0.00282194
0.000162662
0.00323025
0.000117156
0.00355822
0.000103326
0.00377254
0.000129815
0.00385072
0.000201602
0.00378649
0.000314506
0.00359196
0.000452301
0.0032947
0.000589027
0.00293211
0.00069758
0.00254029
0.000757446
0.00213535
0.00075815
0.00170685
0.000703168
0.00125057
0.000612854
0.000803143
0.000514658
0.000423918
0.000427718
0.000154592
0.000359875
3.35552e-06
0.000312818
-4.45335e-05
0.000285232
-1.3295e-05
0.000273376
7.23073e-05
0.000271381
0.000190674
0.000273443
0.000324868
0.00027422
0.000463287
0.000268774
0.000599646
0.000252781
0.000732793
0.000222411
0.000866024
0.000174674
0.00100483
0.000109097
0.00116053
2.1562e-05
0.0013358
-7.57578e-05
0.00153459
-0.000183225
0.00174701
-0.000297756
0.00196451
-0.000410245
0.00218447
-0.000514931
0.00239994
-0.00060856
0.00260488
-0.000688843
0.00279421
-0.000752916
0.00296274
-0.000796561
0.00310393
-0.000814528
0.0032091
-0.000801546
0.00326727
-0.000753797
0.00326669
-0.000671453
0.00319858
-0.000561379
0.00306259
-0.000437714
0.00287033
-0.000317543
0.00264313
-0.000213484
0.00240541
-0.000129652
0.00217863
-6.44248e-05
0.00196487
-2.13675e-06
0.00176398
5.36286e-05
0.00157874
9.31912e-05
0.00141046
0.000112852
0.00126223
0.000107672
0.00113828
7.56119e-05
0.00104485
1.61582e-05
0.00097135
-4.98615e-05
0.000919861
-0.000129965
0.000885434
-0.000209853
0.000862413
-0.000281429
0.00084594
-0.000339769
0.000832745
-0.000383462
0.000821411
-0.000414296
0.000812233
-0.000436241
0.000806756
-0.000454103
0.000807139
-0.000472316
0.000815541
-0.000494196
0.000833662
-0.000521724
0.00086252
-0.000555727
0.000902425
-0.000596212
0.000953115
-0.000642684
-0.00069455
0.00101432
-0.000204966
0.000180506
-0.000629703
0.000529226
-0.00114237
0.000821311
-0.00163702
0.000965702
-0.00204378
0.000962527
-0.00236164
0.000880957
-0.0026181
0.000765701
-0.00285613
0.000657832
-0.0031051
0.00057139
-0.00339055
0.000518363
-0.00372592
0.000498032
-0.00411318
0.000504417
-0.0045371
0.000527244
-0.00495766
0.000550371
-0.00531335
0.000557295
-0.00553876
0.000539919
-0.00558716
0.000500693
-0.00544539
0.000447264
-0.00513478
0.000386966
-0.00470194
0.000324604
-0.00420678
0.000262993
-0.00370827
0.000204656
-0.00324743
0.000152013
-0.00283974
0.000106977
-0.00248337
7.13423e-05
-0.00217047
4.69782e-05
-0.00189292
3.52703e-05
-0.00164371
3.60137e-05
-0.00141789
4.75627e-05
-0.00121329
6.67777e-05
-0.00102906
8.92157e-05
-0.000863933
0.00010909
-0.000714186
0.000119027
-0.00057617
0.000114765
-0.000442606
8.88469e-05
-0.000299812
3.18796e-05
-0.00013127
-5.94448e-05
6.95655e-05
-0.000179273
0.00030709
-0.000313282
0.000567649
-0.000443785
0.000823623
-0.00055373
0.00104685
-0.000633472
0.00121713
-0.000685216
0.00132636
-0.000717787
0.0013766
-0.000739078
0.00137464
-0.000750958
0.00132845
-0.00075037
0.00124614
-0.000732221
0.00113611
-0.000691519
0.0010075
-0.00062518
0.000869273
-0.000533229
0.000728682
-0.000420788
0.000592237
-0.000301269
0.000465382
-0.000190687
0.000350513
-9.8615e-05
0.00025946
-3.85991e-05
0.000192138
2.89773e-06
0.000160314
2.96878e-05
0.000167986
4.59564e-05
0.000209897
5.12806e-05
0.000279593
4.3156e-05
0.000367829
1.94361e-05
0.00046275
-1.93091e-05
0.000554698
-7.57902e-05
0.000642613
-0.000137777
0.000714376
-0.000201729
0.000765719
-0.000261197
0.000795566
-0.000311276
0.000805628
-0.000349831
0.000799926
-0.00037776
0.000784024
-0.000398394
0.000764064
-0.000416281
0.000745793
-0.000435833
0.000733843
-0.000460367
0.000731401
-0.000491754
0.000740256
-0.000530579
0.00076109
-0.000576561
0.000793844
-0.000628966
0.000838104
-0.000686945
-0.000750134
0.000893689
0.000123076
5.74306e-05
0.000423794
0.000228508
0.000871216
0.00037389
0.00140749
0.000429425
0.00194682
0.000423205
0.00242342
0.000404353
0.00279506
0.000394065
0.00305783
0.000395053
0.00322605
0.000403177
0.00332453
0.000419879
0.00337633
0.000446235
0.00338881
0.00049193
0.0033653
0.00055076
0.00329689
0.000618779
0.00319102
0.000663168
0.00306933
0.000661606
0.00295095
0.000619069
0.00284088
0.000557339
0.00274603
0.000481819
0.00266086
0.000409766
0.00257893
0.000344926
0.00249442
0.000289161
0.00240304
0.000243401
0.00230193
0.000208082
0.00219005
0.000183227
0.00207517
0.000161854
0.00195765
0.000152792
0.0018387
0.000154961
0.00172134
0.000164919
0.00160868
0.000179444
0.00150305
0.000194848
0.00140557
0.000206566
0.00131547
0.000209128
0.00123365
0.000196581
0.00115907
0.00016343
0.00108427
0.000106679
0.00100157
2.32508e-05
0.000899491
-7.71898e-05
0.000756418
-0.00017021
0.000570471
-0.000257837
0.000353038
-0.000336297
0.000109844
-0.000390278
-0.000144288
-0.000431083
-0.000389195
-0.00047288
-0.000608511
-0.000519762
-0.000793997
-0.000565472
-0.000944815
-0.000599552
-0.00106235
-0.000614688
-0.00114556
-0.000608305
-0.00118943
-0.000581311
-0.00118635
-0.000536313
-0.00113007
-0.000477064
-0.00102252
-0.000408818
-0.000874922
-0.000338287
-0.000700997
-0.00027254
-0.000523551
-0.000216045
-0.000350542
-0.000170111
-0.00018499
-0.000135864
-2.4709e-05
-0.000114325
0.000132006
-0.000105434
0.000284589
-0.000109427
0.000429677
-0.000125651
0.000562729
-0.000152361
0.000673273
-0.000186334
0.000758398
-0.000222902
0.000814239
-0.000257569
0.000840018
-0.000286976
0.000838492
-0.000309749
0.000815599
-0.000326939
0.000779401
-0.000341561
0.000738497
-0.000357489
0.000700445
-0.00037823
0.000670741
-0.000406129
0.000652581
-0.000442207
0.000647261
-0.000486433
0.000654848
-0.000538166
0.000674813
-0.000596525
0.000706468
-0.000660622
0.000749245
-0.000729722
-0.00080382
0.000802932
-8.70908e-05
0.000144521
-8.45589e-05
0.000225976
-1.72689e-05
0.0003066
1.50797e-05
0.000397076
1.59944e-06
0.000436685
-1.00374e-05
0.00041599
4.50367e-05
0.000338991
0.000194216
0.000245874
0.000420933
0.000176459
0.000707978
0.000132835
0.00105093
0.00010328
0.00145437
8.84892e-05
0.00190887
9.62621e-05
0.00240834
0.000119315
0.00293904
0.000132464
0.0035148
8.58496e-05
0.00412188
1.19897e-05
0.0047596
-8.03885e-05
0.00541086
-0.000169438
0.00606139
-0.000240765
0.0066965
-0.000290176
0.00730456
-0.000318904
0.00787717
-0.000329214
0.00840798
-0.000322719
0.0088915
-0.000300297
0.00931605
-0.0002627
0.00967951
-0.000210663
0.00997925
-0.000144781
0.0102126
-6.84022e-05
0.0103762
1.58616e-05
0.0104664
0.000104569
0.0104793
0.00019366
0.0104096
0.000278824
0.0102505
0.000355749
0.00999344
0.000420471
0.00963019
0.000469928
0.00915076
0.000502676
0.00855471
0.000518864
0.00786385
0.000520654
0.00709765
0.000508354
0.00628283
0.000478529
0.00546585
0.000426699
0.00468597
0.000348801
0.00397815
0.000234934
0.00333656
0.000121834
0.00275663
1.44524e-05
0.00222749
-7.04132e-05
0.0017558
-0.000142995
0.00134686
-0.000199362
0.00100604
-0.000240493
0.000737496
-0.000267769
0.000542687
-0.000282255
0.000418981
-0.000285112
0.000358865
-0.000278171
0.000350454
-0.000264129
0.000380504
-0.000246095
0.000437679
-0.000227285
0.000512516
-0.000210701
0.000597001
-0.00019881
0.00068477
-0.000193204
0.000769769
-0.000194427
0.000845899
-0.000201782
0.000906917
-0.000213378
0.000947054
-0.000226472
0.000962415
-0.000238263
0.000951787
-0.000246942
0.000917444
-0.000252633
0.00086523
-0.000257536
0.000803462
-0.000265171
0.000741003
-0.000279102
0.00068534
-0.000301826
0.000641455
-0.000334343
0.000611723
-0.000376397
0.000596553
-0.000427036
0.000595246
-0.000485127
0.000606718
-0.000549638
0.000629913
-0.000619721
0.000663981
-0.000694689
0.000708291
-0.000774032
-0.000857923
0.000762394
0.0003622
-0.000217679
0.000736709
-0.000148532
0.000871083
0.000172225
0.000869816
0.000398343
0.000930554
0.000375947
0.00123741
0.000109137
0.00181312
-0.00023672
0.00252929
-0.000470301
0.00321772
-0.000511972
0.00379161
-0.000441053
0.00424138
-0.000346486
0.0045873
-0.000257432
0.00486122
-0.000177656
0.00510749
-0.000126956
0.0053254
-8.5451e-05
0.00547164
-6.03925e-05
0.00554852
-6.48882e-05
0.00554177
-7.36364e-05
0.00544745
-7.51216e-05
0.0052755
-6.88156e-05
0.0050418
-5.64697e-05
0.0047644
-4.15102e-05
0.00446154
-2.63448e-05
0.00415044
-1.16238e-05
0.00384702
3.12512e-06
0.00356518
1.91372e-05
0.00331638
3.81377e-05
0.00310865
6.29515e-05
0.00294356
9.66863e-05
0.00281862
0.000140796
0.00272829
0.000194903
0.00266532
0.000256632
0.00262165
0.000322489
0.00258895
0.000388451
0.00255924
0.000450185
0.00252541
0.000503753
0.00248211
0.000545976
0.00242627
0.000574702
0.00235822
0.000588707
0.00227922
0.000587352
0.00218795
0.000569797
0.00207987
0.000534786
0.00194676
0.000481908
0.00176792
0.000413771
0.00156075
0.000329012
0.00133358
0.000241615
0.0011268
0.000136374
0.000952894
3.09064e-05
0.000823271
-6.97384e-05
0.000742812
-0.000160035
0.000709641
-0.000234599
0.000716805
-0.000289419
0.000754461
-0.000322768
0.000811812
-0.000335522
0.000878558
-0.000330874
0.000946037
-0.000313574
0.00100768
-0.000288927
0.00105885
-0.000261873
0.00109637
-0.000236331
0.001118
-0.000214831
0.00112199
-0.000198417
0.00110706
-0.000186858
0.00107281
-0.00017913
0.00102041
-0.000174069
0.00095318
-0.000171032
0.000876648
-0.00017041
0.000797762
-0.000173747
0.000723562
-0.000183336
0.00065979
-0.000201399
0.000610012
-0.000229324
0.000575528
-0.000267342
0.000555937
-0.000314753
0.000549948
-0.000370409
0.000556044
-0.000433132
0.000572858
-0.00050194
0.000599301
-0.00057608
0.000634543
-0.000654963
0.00067794
-0.000738085
0.000728941
-0.000825033
-0.000915822
0.00078684
-0.000617875
0.000400197
-0.00162491
0.000858497
-0.00261541
0.00116273
-0.00353764
0.00132058
-0.00440834
0.00124665
-0.0052294
0.000930199
-0.00598053
0.000514406
-0.00662844
0.000177609
-0.00710633
-3.40814e-05
-0.0073828
-0.000164587
-0.00745755
-0.00027173
-0.00735004
-0.000364947
-0.00709415
-0.000433542
-0.00675138
-0.000469725
-0.00635959
-0.000477247
-0.00595235
-0.000467626
-0.00556948
-0.000447761
-0.00522234
-0.000420776
-0.00490538
-0.000392078
-0.00460432
-0.000369881
-0.00430364
-0.000357152
-0.00399012
-0.000355028
-0.0036546
-0.000361868
-0.00329081
-0.000375414
-0.0028941
-0.000393582
-0.00246065
-0.000414307
-0.00198826
-0.000434256
-0.00148124
-0.000444073
-0.000952408
-0.000432143
-0.00042302
-0.000388593
8.3381e-05
-0.000311498
0.000548541
-0.000208528
0.000962436
-9.14062e-05
0.00132262
2.82632e-05
0.00163275
0.000140063
0.00189937
0.000237131
0.00212955
0.000315796
0.00232944
0.000374806
0.00250362
0.000414532
0.00265483
0.000436138
0.00278376
0.000440873
0.00288887
0.000429671
0.00296768
0.000403101
0.0030198
0.00036165
0.00304206
0.000306754
0.00304259
0.000241086
0.00300807
0.000170896
0.00295115
8.78224e-05
0.00287868
2.73227e-06
0.0027841
-6.54572e-05
0.00266791
-0.000118409
0.00253273
-0.00015424
0.00238282
-0.000172861
0.00222338
-0.000176082
0.00205958
-0.000167068
0.00189579
-0.00014979
0.0017351
-0.000128234
0.00157913
-0.000105901
0.00142833
-8.55356e-05
0.00128248
-6.89846e-05
0.00114139
-5.73241e-05
0.00100554
-5.10055e-05
0.000876664
-5.02532e-05
0.000757916
-5.53204e-05
0.000653566
-6.66818e-05
0.000567993
-8.48367e-05
0.000504363
-0.000110118
0.000463665
-0.000142638
0.000444587
-0.000182322
0.000444188
-0.000228925
0.000458896
-0.000282049
0.000485337
-0.000341194
0.000520773
-0.000405844
0.000563169
-0.000475528
0.000611076
-0.000549847
0.000663463
-0.000628468
0.000719589
-0.00071109
0.00077892
-0.000797416
0.000841069
-0.000887182
-0.000980102
0.000905349
0.00020559
0.000194607
0.00072559
0.000338496
0.00152151
0.00036681
0.00249144
0.000350647
0.00340339
0.000334699
0.00402398
0.00030961
0.00429389
0.00024449
0.00432378
0.000147718
0.00425
3.96995e-05
0.00415433
-6.89192e-05
0.00405875
-0.000176151
0.00398819
-0.000294383
0.00396865
-0.000413998
0.00400147
-0.000502547
0.00406054
-0.000536322
0.00410679
-0.000513873
0.00410651
-0.000447483
0.00404532
-0.00035958
0.00393122
-0.000277978
0.00379308
-0.000231744
0.00367338
-0.000237454
0.00361313
-0.000294776
0.00363884
-0.000387573
0.0037497
-0.000486282
0.00392727
-0.000571147
0.00411556
-0.000602602
0.00425909
-0.00057778
0.00432094
-0.000505922
0.00429231
-0.000403519
0.00418904
-0.000285318
0.00403791
-0.000160374
0.00386425
-3.48609e-05
0.00368575
8.70889e-05
0.00351201
0.000202006
0.00334633
0.000305741
0.00318921
0.000394248
0.00304034
0.000464675
0.00289932
0.000515821
0.00276585
0.000548001
0.00263959
0.000562402
0.00251999
0.000560466
0.00240619
0.00054347
0.00229689
0.00051241
0.00219035
0.000468183
0.00208505
0.000412055
0.00198011
0.000346023
0.0018771
0.000273915
0.00176659
0.00019833
0.00164112
0.0001282
0.00150314
7.25268e-05
0.00135041
3.43216e-05
0.00119071
5.45401e-06
0.00103159
-1.37361e-05
0.000878896
-2.3392e-05
0.000737672
-2.58453e-05
0.000611648
-2.37653e-05
0.000502892
-1.94777e-05
0.000411781
-1.47902e-05
0.000338317
-1.20714e-05
0.000281389
-1.20578e-05
0.000239964
-1.58986e-05
0.0002132
-2.42414e-05
0.00020103
-3.80827e-05
0.000203151
-5.74415e-05
0.00021889
-8.24208e-05
0.000247312
-0.000113258
0.000287203
-0.000150009
0.000337132
-0.000192566
0.000395505
-0.000240695
0.000460655
-0.000294075
0.000530931
-0.000352326
0.000604786
-0.00041505
0.00068081
-0.000481867
0.000757723
-0.000552441
0.000834377
-0.000626501
0.000909769
-0.000703859
0.000983075
-0.000784396
0.00105373
-0.000868069
0.00112145
-0.000954906
-0.0010448
0.00118615
0.000757848
-0.000563241
0.00203165
-0.000935302
0.0034503
-0.00105184
0.0049461
-0.00114515
0.00643328
-0.00115248
0.00777641
-0.00103353
0.00883114
-0.000810235
0.00949415
-0.000515296
0.00975258
-0.000218723
0.00969249
-8.83076e-06
0.00948457
3.17657e-05
0.00927362
-8.34335e-05
0.00912827
-0.000268646
0.00902122
-0.000395499
0.00888646
-0.000401563
0.00865958
-0.00028699
0.00829656
-8.4463e-05
0.00778943
0.000147545
0.00717106
0.000340395
0.00650137
0.00043795
0.00583523
0.000428687
0.00519619
0.000344258
0.00457478
0.000233844
0.003947
0.000141493
0.00327714
9.87162e-05
0.00255472
0.000119818
0.00178321
0.000193726
0.000987817
0.000289473
0.000210815
0.000373483
-0.000501012
0.000426509
-0.00110665
0.000445268
-0.00158067
0.000439154
-0.00191528
0.000421696
-0.00211684
0.00040357
-0.00220101
0.00038991
-0.00218828
0.000381518
-0.00210076
0.00037716
-0.00195959
0.000374647
-0.0017837
0.000372117
-0.00158876
0.000367454
-0.00138681
0.00035852
-0.0011867
0.000343362
-0.000994629
0.000320337
-0.000814916
0.000288471
-0.000650752
0.000247892
-0.000504924
0.000200195
-0.000378178
0.000147169
-0.000277878
9.80293e-05
-0.000196365
4.66871e-05
-0.000131319
7.48108e-06
-7.84469e-05
-1.85507e-05
-4.01557e-05
-3.28371e-05
-1.63831e-05
-3.75086e-05
-4.27428e-06
-3.55009e-05
-7.42767e-08
-3.00455e-05
5.63907e-09
-2.38455e-05
-2.0881e-07
-1.92634e-05
2.95729e-06
-1.79562e-05
1.1909e-05
-2.1023e-05
2.89726e-05
-2.91215e-05
5.58465e-05
-4.27728e-05
9.33455e-05
-6.17408e-05
0.000141893
-8.66307e-05
0.000201713
-0.000117261
0.000272741
-0.00015345
0.000354409
-0.000194927
0.000445734
-0.000241334
0.0005454
-0.000292232
0.000651818
-0.000347113
0.00076317
-0.000405426
0.000877451
-0.000466607
0.00099251
-0.000530109
0.00110609
-0.000595448
0.0012159
-0.000662253
0.00131971
-0.000730305
0.00141545
-0.000799605
0.00150139
-0.000870332
0.00157638
-0.00094306
0.00163951
-0.00101803
-0.00109834
0.00169305
-0.000946255
0.000383014
-0.00233546
0.000453907
-0.00359465
0.000207346
-0.00477757
3.77608e-05
-0.00596958
3.95353e-05
-0.00716566
0.000162553
-0.0083245
0.000348606
-0.00936959
0.000529793
-0.0102016
0.000613256
-0.0107028
0.000492384
-0.0107925
0.000121505
-0.010517
-0.000358961
-0.0100625
-0.000723168
-0.00958211
-0.000875859
-0.00909577
-0.000887903
-0.00853857
-0.000844193
-0.00785954
-0.000763498
-0.00706561
-0.000646378
-0.00620483
-0.000520383
-0.00536756
-0.000399325
-0.00463073
-0.000308143
-0.00403898
-0.000247492
-0.00361816
-0.000186974
-0.00336579
-0.000110878
-0.00324803
-1.9047e-05
-0.00320684
7.86351e-05
-0.00318181
0.000168693
-0.00313154
0.000239199
-0.00304163
0.000283579
-0.00291691
0.000301787
-0.00277063
0.000298991
-0.00261435
0.000282866
-0.00245318
0.00026053
-0.00228677
0.000237158
-0.00211249
0.000215629
-0.00192789
0.000196923
-0.00173231
0.000181572
-0.0015272
0.000169546
-0.00131537
0.000160288
-0.00110076
0.000152841
-0.000888235
0.000145996
-0.000683163
0.00013829
-0.000491074
0.000128248
-0.000317256
0.000114653
-0.000166421
9.70568e-05
-4.24146e-05
7.61894e-05
5.10097e-05
5.3745e-05
0.000117338
3.17012e-05
0.000152263
1.17631e-05
0.000159693
5.11803e-08
0.000146679
-5.53668e-06
0.000121003
-7.16184e-06
8.99625e-05
-6.46803e-06
6.00971e-05
-5.63518e-06
3.66597e-05
-6.60746e-06
2.38876e-05
-1.10729e-05
2.49845e-05
-2.03602e-05
4.16439e-05
-3.46155e-05
7.50134e-05
-5.43924e-05
0.000125617
-7.97251e-05
0.00019337
-0.000110525
0.000278247
-0.000146618
0.000379387
-0.000187771
0.000495749
-0.000233622
0.000625991
-0.000283692
0.000768456
-0.000337392
0.00092116
-0.000394038
0.00108179
-0.000452863
0.00124771
-0.000513035
0.00141598
-0.000573693
0.00158336
-0.000633987
0.00174638
-0.000693129
0.00190139
-0.000750463
0.0020447
-0.000805555
0.00217263
-0.000858235
0.00228186
-0.000908841
0.00236935
-0.000957817
0.00243354
-0.00100725
0.00247159
-0.00105608
-0.00111606
0.00248931
0.000406366
-2.3352e-05
0.000952406
-9.21329e-05
0.00134554
-0.000185787
0.00161096
-0.000227663
0.00185626
-0.00020576
0.00221464
-0.000195832
0.00278375
-0.000220501
0.00358426
-0.000270716
0.00453564
-0.00033813
0.00547246
-0.000444436
0.00616883
-0.000574864
0.0064563
-0.000646431
0.00630603
-0.000572892
0.00582465
-0.000394478
0.00515188
-0.000215135
0.00440218
-9.44963e-05
0.00365141
-1.27243e-05
0.00293997
6.50553e-05
0.00228186
0.000137727
0.00168208
0.000200461
0.00113554
0.000238399
0.000630524
0.00025752
0.000176378
0.000267173
-0.000207585
0.000273085
-0.00050576
0.000279128
-0.00071264
0.000285515
-0.000833708
0.000289761
-0.000883646
0.000289137
-0.000881703
0.000281636
-0.000846864
0.000266948
-0.000794361
0.000246489
-0.000734147
0.000222652
-0.000671614
0.000197997
-0.000609162
0.000174706
-0.000547658
0.000154125
-0.000487619
0.000136885
-0.000429129
0.000123081
-0.000371884
0.000112301
-0.000315298
0.000103702
-0.00025858
9.61225e-05
-0.000200945
8.83606e-05
-0.000142245
7.95902e-05
-8.44171e-05
7.04198e-05
-3.07435e-05
6.09789e-05
1.48704e-05
5.14428e-05
4.84246e-05
4.2635e-05
6.8759e-05
3.34103e-05
7.71378e-05
2.3322e-05
7.39878e-05
1.49131e-05
6.56809e-05
8.35816e-06
5.71561e-05
2.98818e-06
5.24928e-05
-2.49861e-06
5.5645e-05
-9.62041e-06
7.11969e-05
-2.11873e-05
0.000102016
-3.74266e-05
0.000148262
-5.73182e-05
0.000210803
-8.29017e-05
0.000290856
-0.000114668
0.00038885
-0.000152386
0.000505248
-0.000196123
0.000640005
-0.000245282
0.000792596
-0.000299209
0.000961963
-0.000357137
0.00114655
-0.000418205
0.00134432
-0.000481464
0.00155282
-0.000545889
0.00176917
-0.000610386
0.00199011
-0.000673811
0.00221207
-0.000734986
0.00243111
-0.000792734
0.00264303
-0.000845914
0.0028434
-0.000893499
0.00302757
-0.00093463
0.00319082
-0.000968805
0.00332836
-0.000995774
0.00343587
-0.00101635
0.00350877
-0.00103072
0.0035451
-0.00104359
0.00353955
-0.00105054
-0.00107404
0.00349754
0.000125803
-0.000149155
0.000220492
-0.000186821
7.5979e-05
-4.12747e-05
-0.000261846
0.000110162
-0.000650528
0.000182922
-0.00101177
0.000165412
-0.0012988
6.65301e-05
-0.00148032
-8.91997e-05
-0.00155057
-0.000267874
-0.00156356
-0.000431453
-0.00158892
-0.000549503
-0.00162846
-0.000606891
-0.00159223
-0.000609123
-0.00140879
-0.000577921
-0.00109888
-0.000525036
-0.00074304
-0.00045034
-0.000399154
-0.00035661
-7.92335e-05
-0.000254866
0.000216553
-0.000158059
0.000491602
-7.45881e-05
0.000736764
-6.76363e-06
0.000947211
4.7073e-05
0.00112474
8.96459e-05
0.00127689
0.000120937
0.00141039
0.000145619
0.00153119
0.000164724
0.00164237
0.000178577
0.00174414
0.000187363
0.00183475
0.00019103
0.00191182
0.00018988
0.00197357
0.000184741
0.00201934
0.000176876
0.00204944
0.000167897
0.00206463
0.000159522
0.00206535
0.000153404
0.00205145
0.000150784
0.00202246
0.000152068
0.00197798
0.000156783
0.00191768
0.000163999
0.00184142
0.000172383
0.0017493
0.000180481
0.00164192
0.000186978
0.00152148
0.000190853
0.00139119
0.000191267
0.00125508
0.000187557
0.00111842
0.000179296
0.000985436
0.000166394
0.000859576
0.000149182
0.000746216
0.000128273
0.000650432
0.000104143
0.000576515
7.69047e-05
0.000527902
4.61149e-05
0.000507973
1.03085e-05
0.000515463
-2.86771e-05
0.000549725
-7.16883e-05
0.000613023
-0.000120616
0.000705257
-0.000175136
0.00082516
-0.000234571
0.000971143
-0.000298369
0.00114086
-0.00036584
0.00133172
-0.000436145
0.00154086
-0.000508344
0.00176516
-0.000581444
0.00200137
-0.000654413
0.00224609
-0.000726186
0.00249586
-0.000795659
0.00274716
-0.000861684
0.00299641
-0.000923058
0.00323995
-0.000978531
0.00347403
-0.00102682
0.00369474
-0.00106662
0.00389798
-0.00109674
0.00407944
-0.00111608
0.00423462
-0.00112399
0.0043588
-0.00111995
0.00444744
-0.001105
0.0044956
-0.00107888
0.00449997
-0.00104795
0.00445579
-0.00100636
-0.000981258
0.004363
-0.000139334
-9.82171e-06
-0.000322599
-3.55579e-06
-0.000428744
6.48706e-05
-0.000416557
9.79746e-05
-0.000296703
6.30682e-05
-0.000132352
1.06157e-06
2.49437e-05
-9.0766e-05
0.000153909
-0.000218165
0.000246747
-0.000360713
0.000292945
-0.000477651
0.000282291
-0.000538849
0.000212026
-0.000536626
9.29874e-05
-0.000490084
-6.43853e-05
-0.000420548
-0.000242147
-0.000347274
-0.000408994
-0.000283494
-0.000531432
-0.000234172
-0.000590397
-0.0001959
-0.000587473
-0.000160983
-0.000537157
-0.000124903
-0.000457022
-8.68981e-05
-0.000360485
-4.94645e-05
-0.000255519
-1.53194e-05
-0.00014857
1.3988e-05
-4.09743e-05
3.80239e-05
6.68176e-05
5.69319e-05
0.000174364
7.10301e-05
0.000280738
8.09894e-05
0.000384031
8.77368e-05
0.00048144
9.24716e-05
0.000569589
9.65913e-05
0.000644898
0.000101568
0.000703986
0.000108809
0.000747283
0.000116224
0.000772158
0.000128529
0.000777069
0.000145872
0.000762104
0.000167033
0.000728652
0.000190234
0.000679416
0.000213235
0.000618182
0.000233616
0.000549518
0.000249145
0.000478444
0.000258052
0.000410094
0.000259203
0.000349214
0.000252147
0.000299777
0.000236993
0.000264841
0.000214232
0.000246611
0.000184623
0.000246433
0.00014936