/*--------------------------------*- C++ -*----------------------------------*\
| =========                 |                                                 |
| \\      /  F ield         | OpenFOAM: The Open Source CFD Toolbox           |
|  \\    /   O peration     | Version:  2012                                  |
|   \\  /    A nd           | Website:  www.openfoam.com                      |
|    \\/     M anipulation  |                                                 |
\*---------------------------------------------------------------------------*/
FoamFile
{
    version     2.0;
    format      ascii;
    class       volVectorField;
    location    "0.56";
    object      U;
}
// * * * * * * * * * * * * * * * * * * * * * * * * * * * * * * * * * * * * * //

dimensions      [0 1 -1 0 0 0 0];


internalField   nonuniform List<vector> 
42400
(
(-10.5749 8.01309 7.70953e-17)
(-24.0305 14.4052 1.09929e-16)
(-27.925 15.1533 -1.12418e-16)
(-30.2034 11.6553 0)
(-29.61 9.77856 0)
(-26.8147 6.48648 -5.7462e-20)
(-22.1259 1.84296 0)
(-16.2743 -3.73414 5.49828e-20)
(-9.88904 -9.72443 0)
(-3.48091 -15.5373 4.30414e-20)
(2.44435 -20.594 3.41759e-20)
(7.46107 -24.4185 -2.39566e-20)
(11.325 -26.7388 -9.69824e-18)
(13.9827 -27.504 9.89126e-18)
(15.5028 -26.8282 9.22904e-21)
(15.999 -24.9254 0)
(15.5804 -22.0562 0)
(14.3352 -18.4512 0)
(12.3377 -14.3341 0)
(9.68768 -9.92499 0)
(6.55257 -5.413 0)
(3.14181 -0.959439 1.23082e-19)
(-0.355807 3.29443 1.22391e-17)
(-3.79461 7.16535 -2.0597e-18)
(-6.99703 10.3788 -1.02778e-17)
(-9.66831 12.6473 9.89273e-20)
(-11.5802 13.7694 8.25282e-20)
(-12.6657 13.7557 -1.32575e-19)
(-13.053 12.8537 0)
(-12.9889 11.4278 0)
(-12.7112 9.79963 1.38525e-18)
(-12.367 8.1655 -1.40055e-18)
(-12.0104 6.60682 -4.94762e-20)
(-11.6364 5.14009 -1.22615e-18)
(-11.2169 3.758 1.28374e-18)
(-10.7236 2.44963 0)
(-10.137 1.20897 0)
(-9.44869 0.0365983 0)
(-8.66081 -1.06123 0)
(-7.78353 -2.07438 7.61594e-19)
(-6.83445 -2.98948 -7.64109e-19)
(-5.83752 -3.79594 1.10037e-18)
(-4.81685 -4.48075 -4.22366e-20)
(-3.79831 -5.03019 -2.29576e-18)
(-2.81026 -5.43136 1.10924e-18)
(-1.88152 -5.67346 -1.08357e-18)
(-1.03896 -5.75051 2.2273e-18)
(-0.306436 -5.66258 -1.03799e-18)
(0.297838 -5.4184 -8.39652e-20)
(0.763915 -5.03739 8.69726e-19)
(1.09246 -4.55083 -1.64174e-18)
(1.29613 -4.00094 -2.64338e-20)
(1.39906 -3.43731 7.76587e-19)
(1.43337 -2.91045 -7.6143e-20)
(1.43294 -2.4633 0)
(1.42637 -2.12299 0)
(1.43216 -1.8963 0)
(1.45774 -1.77111 4.99209e-20)
(1.50225 -1.72319 4.67221e-20)
(1.56082 -1.72478 0)
(1.62842 -1.75161 6.60097e-19)
(1.70214 -1.78645 -6.87215e-19)
(1.78197 -1.81891 -5.55621e-19)
(1.87009 -1.84273 5.45239e-19)
(1.96904 -1.85252 0)
(2.07966 -1.8419 0)
(2.19982 -1.80379 -3.48286e-19)
(2.32466 -1.73244 3.40452e-19)
(2.44808 -1.62561 3.51967e-20)
(2.56488 -1.48568 0)
(2.67228 -1.3193 0)
(2.77061 -1.13583 1.97864e-20)
(2.86301 -0.945441 1.56726e-20)
(2.95452 -0.757377 0)
(3.05112 -0.578834 8.86565e-21)
(3.15874 -0.41446 3.26268e-20)
(3.28271 -0.266209 -3.16461e-20)
(3.4279 -0.132808 -2.56176e-21)
(3.59925 -0.00951332 1.55483e-20)
(3.78889 0.0932224 3.81397e-20)
(-12.8864 13.4667 0)
(-24.7988 31.5448 -1.0231e-16)
(-23.4925 33.4879 1.04967e-16)
(-14.3757 33.086 0)
(-7.0526 31.2638 0)
(-0.0370342 29.8248 -6.89812e-17)
(6.25472 28.1388 7.06725e-17)
(11.7251 26.0643 -5.56243e-20)
(16.2539 23.63 0)
(19.6998 20.9373 -4.36247e-20)
(21.9601 18.1024 -3.4661e-20)
(22.9785 15.2503 1.35777e-17)
(22.7232 12.5298 -5.79871e-18)
(21.1907 10.111 -8.10117e-18)
(18.4239 8.14845 -2.9209e-19)
(14.5068 6.72145 3.68223e-19)
(9.58595 5.82515 0)
(3.90557 5.37124 -2.11085e-21)
(-2.16674 5.11753 0)
(-8.07335 4.72011 0)
(-13.1631 3.9179 0)
(-17.0551 2.83562 2.03254e-18)
(-19.9181 2.04836 1.43103e-18)
(-22.1866 2.11203 -4.11583e-18)
(-24.08 3.02181 0)
(-25.4783 4.31761 5.43609e-20)
(-26.2148 5.49316 -8.31231e-20)
(-26.2122 6.24498 1.33276e-19)
(-25.5291 6.49593 5.87392e-18)
(-24.3305 6.31694 -5.94036e-18)
(-22.8164 5.83739 1.94187e-19)
(-21.1559 5.176 1.83303e-19)
(-19.4525 4.40842 4.4225e-18)
(-17.748 3.56833 -4.58961e-18)
(-16.0469 2.66497 -3.99363e-18)
(-14.341 1.70208 4.13815e-18)
(-12.6258 0.688677 0)
(-10.904 -0.358195 -1.56378e-19)
(-9.18394 -1.41482 0)
(-7.47591 -2.45403 -3.00074e-19)
(-5.79311 -3.44318 2.89335e-18)
(-4.16334 -4.35408 -3.19106e-18)
(-2.60866 -5.16019 1.30716e-19)
(-1.15376 -5.82856 -1.28096e-19)
(0.178249 -6.32718 -1.02194e-19)
(1.36318 -6.63019 -1.15385e-19)
(2.37733 -6.71918 1.05969e-19)
(3.20082 -6.58507 1.72396e-18)
(3.82119 -6.23088 -1.72704e-18)
(4.23678 -5.67444 0)
(4.45932 -4.94973 8.70028e-20)
(4.51459 -4.10536 1.048e-19)
(4.43987 -3.20097 6.1799e-19)
(4.27838 -2.30197 -6.24188e-19)
(4.07297 -1.47369 -7.20042e-20)
(3.86043 -0.774391 8.17088e-19)
(3.66746 -0.246818 -9.20141e-19)
(3.50841 0.0900201 -4.97941e-20)
(3.38566 0.244594 -4.66049e-20)
(3.29311 0.248597 6.54928e-19)
(3.22166 0.145499 -6.447e-19)
(3.16518 -0.0229109 3.80888e-20)
(3.12411 -0.224976 3.18074e-20)
(3.10505 -0.439541 0)
(3.11638 -0.650647 -4.01756e-19)
(3.1623 -0.842348 3.4795e-20)
(3.23832 -0.997197 4.47747e-19)
(3.33187 -1.09962 0)
(3.42722 -1.14053 -7.01376e-20)
(3.51125 -1.11992 3.0041e-20)
(3.57742 -1.0463 1.88929e-19)
(3.62649 -0.933822 -2.03798e-19)
(3.66502 -0.798456 -1.36768e-19)
(3.70273 -0.654899 1.31392e-19)
(3.75 -0.514688 -1.9326e-20)
(3.81609 -0.385616 4.51965e-20)
(3.90816 -0.272007 -3.39761e-20)
(4.03115 -0.175241 2.56114e-21)
(4.18787 -0.0948086 9.26939e-21)
(4.36694 -0.0407794 -9.61575e-21)
(-3.21081 1.48327 -9.21489e-18)
(-11.8429 6.30258 -5.3333e-20)
(-17.9148 10.325 -1.43912e-19)
(-23.083 11.6386 -5.41977e-20)
(-27.4882 12.48 0)
(-31.7369 12.4794 -2.74583e-17)
(-35.7643 11.8612 5.60693e-17)
(-39.3779 10.8278 -2.8619e-17)
(-42.4859 9.42631 2.84126e-17)
(-44.9567 7.79319 -1.18757e-18)
(-46.7097 6.02626 -2.83354e-17)
(-47.6859 4.18624 -3.76119e-20)
(-47.8391 2.33066 -5.03675e-20)
(-47.1683 0.5374 1.66841e-17)
(-45.7803 -1.12449 -1.70159e-17)
(-43.8856 -2.5941 -6.08975e-20)
(-41.7771 -3.78601 4.58335e-19)
(-39.7343 -4.57488 6.22665e-18)
(-37.9827 -4.89356 -6.84639e-18)
(-36.4355 -4.97288 -8.18594e-20)
(-33.8782 -5.31821 1.2131e-19)
(-28.7534 -6.51392 1.48484e-19)
(-22.0681 -8.60228 0)
(-16.8634 -10.2798 3.46993e-20)
(-14.539 -10.013 -1.49269e-17)
(-14.255 -7.8575 2.73782e-17)
(-14.6906 -4.98163 -1.26875e-17)
(-15.0376 -2.34433 9.0817e-18)
(-14.997 -0.326601 -9.19445e-18)
(-14.5505 1.03281 -7.46721e-18)
(-13.7823 1.82104 1.38627e-17)
(-12.7863 2.15539 -2.66653e-19)
(-11.6325 2.14911 -6.62008e-18)
(-10.365 1.89908 0)
(-9.01044 1.48303 0)
(-7.58536 0.960384 -1.60952e-19)
(-6.10186 0.374646 0)
(-4.57054 -0.243521 -3.44183e-20)
(-3.00766 -0.875339 6.31647e-18)
(-1.42929 -1.5054 -1.25223e-17)
(0.159946 -2.1046 6.4423e-18)
(1.75692 -2.63026 0)
(3.34683 -3.05911 0)
(4.88414 -3.38504 4.72089e-18)
(6.31836 -3.59616 -4.49361e-18)
(7.60105 -3.67551 -2.18149e-19)
(8.68495 -3.60787 0)
(9.52684 -3.38441 0)
(10.0936 -3.0059 2.25055e-18)
(10.3693 -2.48554 -2.23839e-18)
(10.3609 -1.84912 -8.64998e-20)
(10.1011 -1.1309 0)
(9.64191 -0.365921 -1.06093e-18)
(9.04195 0.416212 8.81165e-19)
(8.35465 1.18938 -1.06048e-18)
(7.62509 1.92026 1.08118e-18)
(6.89211 2.55979 -7.71678e-19)
(6.19132 3.04746 1.55074e-18)
(5.55353 3.32772 -1.39306e-18)
(4.99871 3.37454 5.36384e-20)
(4.53073 3.20331 5.9384e-19)
(4.14559 2.86222 4.92534e-19)
(3.84686 2.41115 -5.15824e-19)
(3.64954 1.90317 0)
(3.5655 1.37969 3.26923e-19)
(3.59168 0.873696 -2.20566e-20)
(3.69963 0.418697 -4.27795e-19)
(3.84447 0.0435804 0)
(3.98279 -0.234502 6.71149e-20)
(4.0857 -0.413627 1.89833e-19)
(4.14322 -0.505636 -1.89706e-19)
(4.16151 -0.530891 0)
(4.15663 -0.512085 0)
(4.148 -0.469387 -1.36321e-20)
(4.15347 -0.417925 1.04617e-20)
(4.18657 -0.367357 3.86508e-20)
(4.25554 -0.322802 -6.46029e-20)
(4.36374 -0.286154 0)
(4.5114 -0.256054 5.38717e-22)
(4.68998 -0.233446 -1.66179e-20)
(0.435922 0.963057 3.64854e-17)
(-1.02128 3.34755 -5.41235e-17)
(-4.27009 6.91863 2.74167e-17)
(-7.77893 10.177 2.68012e-17)
(-10.3194 12.6064 -2.73889e-17)
(-11.1737 14.0703 0)
(-10.2129 14.6111 4.91367e-17)
(-7.43198 14.2429 -4.99252e-17)
(-2.91957 13.0968 4.18624e-17)
(2.91539 11.3356 -4.27705e-17)
(9.40923 9.20066 3.15632e-17)
(15.795 7.00877 -5.83175e-17)
(21.1902 5.15384 4.58171e-17)
(24.5854 4.1547 -3.34083e-17)
(25.0615 4.52371 2.13621e-17)
(22.2411 6.45776 -7.86609e-18)
(16.669 9.57734 1.40151e-18)
(9.7229 13.0115 -5.26888e-18)
(3.02887 15.7915 3.92491e-18)
(-2.06119 17.1856 8.27322e-20)
(-4.72022 16.8324 8.30751e-20)
(-5.01218 14.7794 2.14575e-18)
(-4.09519 11.5755 -2.51951e-18)
(-3.31616 8.20522 1.50716e-19)
(-3.19479 5.56477 0)
(-3.60764 3.99677 1.34009e-19)
(-4.30742 3.4177 0)
(-5.12289 3.57785 6.74535e-18)
(-5.91252 4.21526 6.69541e-19)
(-6.55485 5.09037 -7.49559e-18)
(-6.95976 6.00275 -8.19407e-18)
(-7.07393 6.80413 8.04806e-18)
(-6.87568 7.4 -1.14213e-20)
(-6.36417 7.74283 -2.20526e-19)
(-5.54793 7.82089 -6.91757e-18)
(-4.43865 7.65071 7.15379e-18)
(-3.05555 7.278 0)
(-1.41118 6.75403 5.5935e-18)
(0.462627 6.14356 -5.42895e-18)
(2.52123 5.49928 3.42459e-19)
(4.68828 4.86091 -2.24913e-19)
(6.86717 4.25182 0)
(8.97229 3.6967 0)
(10.9325 3.22466 0)
(12.6814 2.85427 -1.79667e-19)
(14.1594 2.601 3.08135e-18)
(15.314 2.48106 -2.85756e-18)
(16.098 2.50583 0)
(16.4738 2.67435 0)
(16.4198 2.96456 2.19308e-18)
(15.9422 3.32602 -2.03675e-18)
(15.0836 3.68068 1.85125e-18)
(13.9193 3.94516 -1.42078e-18)
(12.5375 4.07565 2.19404e-19)
(11.0182 4.09857 -9.97636e-19)
(9.4299 4.09042 1.27531e-18)
(7.83472 4.12269 -1.61158e-18)
(6.30826 4.20752 1.47863e-18)
(4.90125 4.28556 0)
(3.69238 4.28673 -7.45136e-20)
(2.76357 4.15665 -6.5945e-19)
(2.1683 3.86641 1.6778e-19)
(1.91747 3.42395 9.89536e-19)
(1.98116 2.87455 -7.70565e-19)
(2.27882 2.26724 3.16087e-19)
(2.7044 1.65697 3.11626e-19)
(3.16387 1.10289 -2.25801e-19)
(3.57848 0.640982 -3.56166e-20)
(3.89751 0.285055 -2.37295e-19)
(4.10344 0.0316064 2.31076e-19)
(4.20672 -0.135708 -4.90264e-20)
(4.23589 -0.239762 -1.78929e-19)
(4.22658 -0.303592 1.53607e-19)
(4.21237 -0.345853 0)
(4.21908 -0.37892 -8.80421e-20)
(4.26271 -0.40925 3.6424e-20)
(4.35021 -0.439056 1.26767e-19)
(4.4818 -0.467889 -4.50957e-20)
(4.65473 -0.491792 9.19185e-21)
(4.85882 -0.51282 -9.01128e-21)
(-5.59406 4.05325 -3.165e-18)
(-21.8729 11.3127 0)
(-37.2159 21.5978 0)
(-49.6898 25.1729 4.50607e-20)
(-53.6881 25.5163 0)
(-51.5106 22.1988 0)
(-45.3385 16.6237 0)
(-38.0246 10.2913 -3.60815e-19)
(-31.9277 4.56614 0)
(-28.0674 0.203899 9.0081e-20)
(-26.4163 -2.81316 2.72606e-17)
(-26.5848 -4.80701 -5.86553e-17)
(-28.1972 -6.03236 3.20126e-17)
(-30.7918 -6.62583 0)
(-33.6764 -6.75169 -1.99819e-19)
(-36.0464 -6.58409 1.45367e-19)
(-37.2801 -6.23538 0)
(-37.0932 -5.77516 3.99136e-17)
(-35.5241 -5.28092 -7.76425e-17)
(-32.8225 -4.82853 4.16742e-18)
(-29.3648 -4.47887 3.35541e-17)
(-25.5805 -4.26053 1.89783e-19)
(-21.805 -4.17539 0)
(-18.2117 -4.20537 -1.95623e-17)
(-14.9145 -4.30172 1.99116e-17)
(-12.0416 -4.37978 -1.5083e-17)
(-9.68361 -4.3352 1.52963e-17)
(-7.85058 -4.11726 1.19157e-17)
(-6.48273 -3.73102 -1.19008e-17)
(-5.48038 -3.22245 0)
(-4.72842 -2.66359 -8.40284e-18)
(-4.10601 -2.13518 8.47943e-18)
(-3.48944 -1.71199 2.39138e-19)
(-2.75581 -1.45053 -5.96013e-18)
(-1.80219 -1.39674 6.22475e-18)
(-0.539274 -1.55446 -6.25472e-20)
(1.0895 -1.88163 -1.26262e-19)
(3.09208 -2.32877 -3.81838e-18)
(5.39941 -2.82142 3.83272e-18)
(7.87313 -3.29485 2.87266e-18)
(10.3049 -3.7078 -2.18792e-20)
(12.4752 -4.04676 -2.91377e-18)
(14.2268 -4.32181 0)
(15.4901 -4.55092 1.49424e-19)
(16.2524 -4.73919 -2.23867e-18)
(16.5118 -4.86064 5.26886e-18)
(16.2526 -4.86238 -5.15957e-18)
(15.449 -4.67957 2.45203e-18)
(14.0852 -4.24925 0)
(12.1754 -3.53218 1.26482e-19)
(9.80734 -2.53978 -2.47873e-18)
(7.17671 -1.37021 2.44115e-18)
(4.58084 -0.210995 -3.89471e-20)
(2.34105 0.729849 -1.93538e-18)
(0.667342 1.32639 1.5297e-18)
(-0.415725 1.59967 -1.43764e-18)
(-1.03016 1.66249 -1.13684e-18)
(-1.31672 1.64466 2.52625e-18)
(-1.38449 1.63472 -1.65685e-18)
(-1.26758 1.6515 1.70725e-18)
(-0.967702 1.66473 0)
(-0.485949 1.63785 -4.65558e-20)
(0.152533 1.54484 -6.58767e-19)
(0.894887 1.38091 5.84576e-19)
(1.67674 1.16635 1.01293e-19)
(2.42233 0.929596 0)
(3.05996 0.689478 3.21686e-19)
(3.54518 0.466217 -2.81109e-19)
(3.86469 0.274306 -3.16459e-20)
(4.03431 0.117732 -2.57475e-20)
(4.09199 -0.00849141 4.71417e-20)
(4.08639 -0.114197 9.70991e-22)
(4.0646 -0.209496 -1.5549e-19)
(4.06305 -0.301462 1.33905e-19)
(4.10377 -0.392972 -1.35573e-20)
(4.19547 -0.483403 0)
(4.33721 -0.570211 -7.50483e-20)
(4.52296 -0.64983 5.78071e-20)
(4.74619 -0.716667 0)
(4.99406 -0.778416 -1.03994e-20)
(-10.7183 6.65714 -6.65792e-19)
(-29.1095 22.4874 8.56579e-18)
(-43.0384 30.6542 -1.34327e-17)
(-44.1242 35.2035 2.9437e-17)
(-38.8045 34.5799 -1.60906e-17)
(-32.2715 33.9053 -2.20054e-19)
(-27.7615 33.4154 -2.07901e-17)
(-25.3015 33.376 2.15892e-17)
(-24.3258 33.7945 2.35522e-19)
(-24.4273 34.4937 1.45734e-19)
(-25.3749 35.4284 2.11077e-17)
(-26.9404 36.5806 1.89511e-17)
(-28.6037 37.5819 -4.12128e-17)
(-29.4002 37.7003 3.5845e-17)
(-28.4778 36.4764 -6.8921e-17)
(-25.8257 34.0343 3.35669e-17)
(-22.1527 30.9255 0)
(-18.2332 27.7276 0)
(-14.5626 24.7731 -2.19768e-17)
(-11.3608 22.1903 2.48388e-18)
(-8.70112 19.9856 2.02019e-17)
(-6.59786 18.1271 -1.66974e-17)
(-5.03701 16.5791 3.23406e-17)
(-3.97928 15.3019 -1.56641e-17)
(-3.35491 14.2464 -1.30984e-17)
(-3.06687 13.3662 1.37418e-18)
(-3.00602 12.6284 1.20094e-17)
(-3.09028 11.98 -1.63101e-20)
(-3.25249 11.3852 1.88624e-20)
(-3.41874 10.8163 -4.00709e-20)
(-3.49905 10.2394 0)
(-3.38231 9.59838 -2.25695e-18)
(-2.94245 8.80164 2.88503e-18)
(-2.02357 7.75745 -6.01747e-19)
(-0.482939 6.37698 0)
(1.72904 4.58101 -3.14229e-18)
(4.52895 2.42511 3.17011e-18)
(7.59811 0.0145565 0)
(10.4111 -2.37643 0)
(12.4042 -4.48783 -3.30357e-18)
(13.2271 -6.06853 3.42521e-18)
(12.8766 -7.03494 2.45311e-19)
(11.6963 -7.52758 0)
(10.1796 -7.76995 1.97891e-18)
(8.70261 -7.92671 -3.67092e-19)
(7.42801 -8.04667 -2.04416e-18)
(6.35281 -8.11313 5.24116e-20)
(5.41165 -8.0911 9.20775e-20)
(4.54068 -7.94396 0)
(3.69807 -7.63718 -1.58803e-18)
(2.87454 -7.13824 2.68717e-18)
(2.08864 -6.43641 -1.35647e-18)
(1.38186 -5.56405 -2.11273e-19)
(0.807275 -4.59282 -1.0783e-18)
(0.401887 -3.60488 3.10293e-19)
(0.159159 -2.67454 1.32635e-18)
(0.0501306 -1.84746 -4.59884e-19)
(0.0532568 -1.13266 0)
(0.164305 -0.527711 0)
(0.390946 -0.0291043 1.69064e-20)
(0.737407 0.364151 1.64875e-20)
(1.1934 0.651904 0)
(1.72985 0.836987 3.5026e-19)
(2.29575 0.924193 -3.48695e-19)
(2.8317 0.926565 -3.58865e-19)
(3.28741 0.865006 -1.41216e-21)
(3.62361 0.759923 2.33696e-19)
(3.82412 0.629262 -2.22334e-19)
(3.90104 0.486289 2.17186e-19)
(3.89003 0.338582 5.41927e-21)
(3.83888 0.189211 1.39757e-19)
(3.79377 0.0390275 -1.38192e-19)
(3.78872 -0.111213 -1.15816e-19)
(3.84164 -0.259754 1.45965e-19)
(3.95625 -0.403842 -9.29877e-20)
(4.12707 -0.540335 1.03447e-19)
(4.34444 -0.666288 -7.76788e-20)
(4.59852 -0.778552 1.37583e-19)
(4.88173 -0.873305 -1.32523e-20)
(5.18134 -0.964576 -1.32506e-20)
(-0.862371 0.063481 -8.0417e-18)
(0.141247 -1.13643 -8.26755e-20)
(1.70279 -1.28573 1.09693e-17)
(1.79621 -1.42671 -2.12551e-17)
(1.45608 -1.07765 1.03547e-17)
(1.23555 -0.983041 -8.30742e-18)
(1.57302 -1.08969 6.9008e-19)
(2.58151 -1.02349 8.21315e-18)
(3.94598 -0.588016 -7.64656e-18)
(5.39486 0.266177 7.53458e-18)
(6.66419 1.39279 -7.71388e-18)
(7.24744 2.79067 7.89928e-18)
(6.73135 4.94617 -6.3566e-18)
(5.664 8.44853 6.27131e-18)
(5.0123 12.3482 -1.63236e-19)
(5.57543 14.908 -1.41034e-19)
(7.90423 16.1181 -3.55781e-19)
(11.7193 17.0714 3.62449e-19)
(16.0534 18.2912 1.28027e-19)
(20.0646 19.699 1.39446e-19)
(23.4301 21.1743 1.22406e-17)
(26.1636 22.7593 -1.21248e-17)
(28.3216 24.4543 0)
(29.9204 26.2255 -1.862e-19)
(30.9517 28.0523 0)
(31.4016 29.9119 0)
(31.2559 31.7518 -1.63962e-19)
(30.5701 33.5511 -6.65203e-18)
(29.4058 35.2738 6.89224e-18)
(27.8394 36.8516 3.35085e-18)
(25.9726 38.2147 -3.3523e-18)
(23.9256 39.2943 -3.3988e-20)
(21.8109 40.0081 2.72394e-20)
(19.7243 40.2736 0)
(17.7428 40.0266 -1.85684e-20)
(15.8883 39.1878 0)
(14.1726 37.7672 0)
(12.5619 35.7387 6.00941e-20)
(11.0274 33.1908 0)
(9.59684 30.1977 0)
(8.37061 26.8034 -5.11654e-18)
(7.54875 23.0749 5.07026e-18)
(7.3431 19.159 0)
(7.76316 15.245 0)
(8.56254 11.5387 0)
(9.32088 8.20244 1.4848e-19)
(9.71189 5.36479 -5.19897e-20)
(9.61594 3.08713 -2.58217e-18)
(9.09818 1.36383 2.61423e-18)
(8.29789 0.136245 -1.74455e-18)
(7.35249 -0.665652 1.79022e-18)
(6.37198 -1.10429 -3.71348e-20)
(5.43808 -1.24071 -3.20842e-20)
(4.60909 -1.14141 0)
(3.9222 -0.878338 0)
(3.39216 -0.521878 2.77002e-19)
(3.01643 -0.127768 -1.13636e-19)
(2.78636 0.263797 -2.07614e-19)
(2.68945 0.623911 7.13785e-20)
(2.71 0.932091 -9.4744e-20)
(2.82838 1.17538 3.94312e-21)
(3.01705 1.34653 5.05544e-20)
(3.24002 1.44363 -1.71896e-19)
(3.45565 1.46943 1.02833e-19)
(3.62215 1.43207 5.23309e-21)
(3.70988 1.34198 2.68357e-20)
(3.7098 1.20978 1.43802e-19)
(3.63744 1.04513 -2.83426e-19)
(3.5289 0.856624 1.39522e-19)
(3.42871 0.652189 2.03318e-20)
(3.37531 0.439538 1.38854e-19)
(3.39151 0.226117 -1.52554e-19)
(3.48327 0.0185426 0)
(3.64459 -0.178049 -1.60101e-20)
(3.86386 -0.36026 0)
(4.12857 -0.526204 1.15408e-19)
(4.42771 -0.674895 -7.34874e-21)
(4.75283 -0.804965 -1.01394e-19)
(5.09769 -0.915484 5.19762e-20)
(5.45031 -1.02559 9.18341e-21)
(5.00107 -1.07531 -2.85068e-17)
(6.12595 1.20618 4.29122e-17)
(-2.96088 6.87194 -7.66729e-20)
(-11.992 12.808 3.59867e-17)
(-16.9999 14.8207 -3.68515e-17)
(-16.0427 14.746 2.99766e-17)
(-9.42883 13.6441 -5.81857e-17)
(-1.29889 13.3047 2.77655e-17)
(4.46278 14.3413 -2.24541e-17)
(7.71375 15.8528 2.27291e-17)
(9.7193 17.1332 0)
(10.9071 18.5079 -6.1421e-20)
(11.2862 20.3386 -3.00515e-20)
(11.4139 22.1327 0)
(12.015 22.8563 0)
(13.4972 22.4448 0)
(15.5777 21.5278 0)
(17.4356 20.52 -4.18308e-21)
(18.4727 19.5247 0)
(18.6056 18.5843 -4.74893e-18)
(17.9868 17.6954 4.50561e-18)
(16.8166 16.842 1.00631e-17)
(15.2521 16.0349 -1.04002e-17)
(13.4086 15.3029 -1.134e-17)
(11.3762 14.6757 1.17681e-17)
(9.24638 14.1938 -1.20071e-17)
(7.09223 13.8785 1.23245e-17)
(4.99204 13.7532 -1.13435e-17)
(2.96811 13.8025 9.18049e-19)
(1.06253 14.0027 1.05863e-17)
(-0.686532 14.3108 0)
(-2.24194 14.6717 1.24339e-19)
(-3.56637 15.0248 1.07488e-19)
(-4.62363 15.3085 0)
(-5.38219 15.4646 1.90232e-20)
(-5.82224 15.443 0)
(-5.93848 15.216 0)
(-5.7553 14.7762 1.22701e-20)
(-5.31279 14.1458 5.66596e-19)
(-4.65591 13.3535 -6.2662e-19)
(-3.82368 12.416 -1.4671e-18)
(-2.84501 11.3436 1.4736e-18)
(-1.76183 10.1413 1.10537e-20)
(-0.674126 8.77657 0)
(0.339681 7.28962 -1.12804e-18)
(1.241 5.75855 9.57926e-19)
(2.05363 4.29746 0)
(2.81284 3.00745 0)
(3.5162 1.94042 1.7812e-19)
(4.1365 1.13158 -1.9382e-19)
(4.63939 0.596074 -1.50352e-19)
(4.99559 0.324225 1.28802e-19)
(5.19218 0.283209 1.60953e-19)
(5.23797 0.422735 -2.79884e-19)
(5.16068 0.683078 1.50587e-19)
(4.99885 1.00415 6.47345e-20)
(4.79323 1.33296 0)
(4.57963 1.62827 -2.50977e-20)
(4.38375 1.86197 7.0804e-20)
(4.2181 2.01829 -1.46765e-19)
(4.08138 2.09195 6.30878e-20)
(3.95996 2.08631 0)
(3.83225 2.0116 -2.254e-21)
(3.67641 1.88294 0)
(3.48047 1.71736 -5.23281e-21)
(3.25163 1.5299 -1.46269e-21)
(3.01842 1.3305 -6.70954e-21)
(2.8224 1.12369 -9.63705e-20)
(2.70289 0.911251 8.10824e-20)
(2.68362 0.695464 -1.5698e-20)
(2.76827 0.480313 -1.36333e-19)
(2.94508 0.270705 1.69906e-19)
(3.19521 0.0710737 -1.52486e-19)
(3.49973 -0.115457 1.48292e-19)
(3.84306 -0.287136 -1.77859e-19)
(4.21354 -0.443226 1.28589e-19)
(4.60266 -0.583373 1.43098e-19)
(5.00434 -0.706516 -1.38701e-19)
(5.41318 -0.813624 2.58221e-20)
(5.81644 -0.928652 -2.25249e-20)
(-11.1258 4.20381 -4.1502e-17)
(-37.6382 10.2781 -5.98007e-17)
(-64.3386 20.6438 1.19222e-16)
(-80.5426 20.42 -1.14599e-16)
(-72.7046 11.4252 5.64092e-17)
(-45.7419 -6.32569 6.40393e-20)
(-15.6406 -24.3406 -3.89858e-17)
(0.678268 -35.4484 7.35036e-17)
(0.81804 -38.7494 -6.00947e-18)
(-6.43592 -37.4085 -2.89876e-17)
(-13.9472 -34.5751 -9.07151e-22)
(-19.5487 -31.5701 1.40496e-17)
(-23.0034 -28.4048 -1.43517e-17)
(-24.4849 -25.3019 8.59924e-18)
(-24.5109 -22.8051 -8.76145e-18)
(-23.7173 -20.9154 -6.74563e-18)
(-22.7393 -19.3598 6.85458e-18)
(-21.9123 -17.911 4.18084e-21)
(-21.2037 -16.4968 0)
(-20.4282 -15.1421 4.09855e-18)
(-19.561 -13.8595 -4.21651e-18)
(-18.5608 -12.6117 8.72823e-20)
(-17.4308 -11.3539 -1.90482e-18)
(-16.1924 -10.04 1.85687e-18)
(-14.8883 -8.63298 -1.8851e-21)
(-13.5257 -7.0922 0)
(-12.1303 -5.38673 -7.20974e-20)
(-10.7995 -3.48968 -1.55785e-19)
(-9.64063 -1.40158 2.51221e-19)
(-8.73863 0.828839 -1.90267e-19)
(-8.13375 3.10756 1.77437e-19)
(-7.79623 5.32504 -2.61171e-19)
(-7.66276 7.38639 -3.26035e-20)
(-7.65718 9.22655 -9.71273e-19)
(-7.69248 10.8124 2.01982e-18)
(-7.6993 12.1379 -1.11716e-18)
(-7.62907 13.2159 -1.29479e-18)
(-7.45109 14.0666 1.35304e-18)
(-7.14609 14.7092 2.16073e-20)
(-6.69763 15.1555 -2.98309e-20)
(-6.08618 15.4055 -2.46795e-21)
(-5.29055 15.4496 -9.84605e-19)
(-4.2938 15.2723 1.44042e-19)
(-3.0889 14.8608 8.31532e-19)
(-1.70001 14.2262 -4.9079e-19)
(-0.162489 13.403 5.10712e-19)
(1.44479 12.424 0)
(3.02288 11.3329 2.09374e-20)
(4.4848 10.2151 -4.67085e-20)
(5.73311 9.13374 -1.81213e-19)
(6.67163 8.11692 -7.63042e-20)
(7.24574 7.19715 -6.0432e-20)
(7.44679 6.39883 -3.39168e-20)
(7.30807 5.7287 -9.47344e-21)
(6.8979 5.17755 3.68467e-19)
(6.30356 4.72366 -1.47746e-20)
(5.61359 4.33871 0)
(4.90384 3.99406 2.75041e-19)
(4.22944 3.66553 -2.25935e-19)
(3.62304 3.33634 0)
(3.09767 2.99769 1.42546e-19)
(2.65408 2.64853 -1.24902e-19)
(2.28939 2.29375 0)
(2.00361 1.94217 1.02459e-21)
(1.80158 1.60456 0)
(1.69072 1.29196 -1.25606e-20)
(1.67653 1.01335 6.98819e-20)
(1.75908 0.773043 -5.38481e-20)
(1.93186 0.569869 1.30792e-20)
(2.18303 0.398628 1.5707e-20)
(2.4977 0.252481 -1.69761e-19)
(2.86068 0.124939 1.45546e-19)
(3.25847 0.0108972 -2.82062e-20)
(3.68023 -0.0931994 -2.92061e-20)
(4.11758 -0.189643 5.20153e-20)
(4.56406 -0.279846 2.22648e-20)
(5.01456 -0.36437 2.23687e-19)
(5.46513 -0.442438 -7.33605e-21)
(5.91105 -0.51652 -2.00668e-19)
(6.33599 -0.617738 -4.36761e-20)
(-16.2048 8.23988 0)
(-32.3374 15.9388 1.88148e-19)
(-34.1006 21.7312 -2.94756e-19)
(-32.1509 24.7935 -1.3955e-17)
(-29.0346 28.7649 3.01463e-17)
(-22.417 30.0966 -3.4216e-17)
(-11.2341 27.8396 1.80668e-17)
(3.51876 22.3904 0)
(20.0182 14.8732 -7.7802e-20)
(36.3765 6.9271 -2.01734e-17)
(50.8188 -0.0996296 2.06029e-17)
(61.9651 -5.48931 1.93124e-17)
(68.9302 -8.87289 -3.86338e-17)
(71.6222 -10.1916 8.40934e-19)
(70.9798 -9.82228 1.16748e-18)
(68.338 -8.42376 1.70897e-17)
(64.6661 -6.66017 2.37594e-19)
(60.5263 -5.02817 -1.34715e-17)
(56.2992 -3.76722 1.34822e-17)
(52.4257 -2.90291 5.31195e-20)
(49.1818 -2.33048 1.73673e-19)
(46.7073 -1.90464 2.28669e-19)
(45.0015 -1.4445 -6.59198e-18)
(44.0052 -0.836977 1.16729e-18)
(43.6347 -0.0783989 5.62872e-18)
(43.6594 0.769618 2.23486e-19)
(43.6662 1.6053 -4.81613e-18)
(43.0219 2.38658 9.08341e-18)
(41.1371 3.21262 -8.17199e-18)
(37.6695 4.23934 3.66348e-18)
(32.7612 5.54378 0)
(26.9647 7.07315 -4.61774e-18)
(20.9487 8.68705 8.3975e-18)
(15.2532 10.2108 -3.8154e-18)
(10.2321 11.5001 2.50188e-18)
(6.06114 12.4708 -2.91027e-18)
(2.78241 13.0975 -5.16501e-20)
(0.350216 13.3963 0)
(-1.33251 13.4084 7.01237e-20)
(-2.38456 13.1849 -2.85816e-19)
(-2.9234 12.7749 4.02991e-19)
(-3.05108 12.2194 -4.70047e-20)
(-2.8503 11.5489 3.12034e-20)
(-2.38864 10.7864 0)
(-1.72868 9.95132 0)
(-0.938176 9.07027 -1.2133e-18)
(-0.0908249 8.17551 1.22048e-18)
(0.727199 7.30102 3.41422e-20)
(1.41994 6.44245 1.07222e-18)
(1.91821 5.61559 -2.01358e-18)
(2.18711 4.84361 9.10339e-19)
(2.23102 4.13772 0)
(2.09505 3.50804 -4.809e-19)
(1.84226 2.95618 4.68088e-19)
(1.53336 2.47685 0)
(1.21692 2.06476 -1.83223e-19)
(0.926187 1.71488 1.64281e-19)
(0.681213 1.42127 -6.19488e-20)
(0.493089 1.17688 6.47388e-20)
(0.367947 0.974982 0)
(0.30817 0.808283 -3.60024e-21)
(0.314387 0.671012 -6.24304e-21)
(0.386452 0.55974 -3.29606e-20)
(0.523176 0.472909 -1.27856e-20)
(0.721483 0.408576 4.32416e-20)
(0.976875 0.364102 0)
(1.28379 0.336385 5.63582e-21)
(1.63586 0.322034 0)
(2.02617 0.3175 0)
(2.44751 0.319251 -2.25672e-19)
(2.89268 0.323997 2.19993e-19)
(3.35474 0.32886 2.23022e-19)
(3.82734 0.331419 4.43553e-20)
(4.30485 0.329631 -2.30029e-19)
(4.78243 0.32173 -2.98454e-19)
(5.25598 0.306212 2.61054e-19)
(5.72217 0.282178 -2.81457e-20)
(6.17843 0.249753 -2.29822e-19)
(6.62204 0.207031 4.81956e-19)
(7.02809 0.106381 -1.5867e-19)
(14.4087 -2.64478 8.74282e-17)
(27.1417 -1.5633 -6.51922e-17)
(31.1538 3.0042 -6.10425e-17)
(35.886 9.43748 6.24009e-17)
(39.399 15.6253 2.9168e-19)
(39.7108 23.1786 2.90099e-19)
(36.9387 30.9492 0)
(31.1347 38.1595 4.55344e-17)
(21.9576 44.5045 -4.64298e-17)
(10.2171 49.3861 0)
(-0.970356 52.0308 -2.58937e-17)
(-7.8561 52.3565 4.75588e-17)
(-9.60137 51.3004 -3.2421e-18)
(-8.74637 50.0389 -3.42989e-17)
(-8.34625 49.2376 1.6528e-17)
(-9.89771 48.8893 2.506e-19)
(-13.3024 48.6454 -9.68766e-20)
(-17.3496 47.9113 0)
(-20.407 46.1492 1.39566e-17)
(-21.0169 42.9553 -1.39848e-17)
(-18.5527 38.3618 8.71226e-21)
(-13.4019 32.8098 1.12237e-17)
(-6.88253 26.9423 -1.15778e-17)
(-0.832171 21.4006 9.95861e-18)
(2.89561 16.7069 -1.01458e-17)
(3.121 13.134 -2.2897e-19)
(0.0629722 10.5777 8.61038e-18)
(-4.84258 8.59189 -6.09825e-19)
(-9.83303 6.68621 -1.52962e-17)
(-13.745 4.60776 4.58458e-19)
(-16.1669 2.4057 7.02076e-18)
(-17.3 0.32398 6.34289e-18)
(-17.6077 -1.38651 -6.55217e-18)
(-17.4967 -2.58622 0)
(-17.1872 -3.2642 2.08874e-19)
(-16.7506 -3.49632 1.83662e-19)
(-16.1888 -3.3916 0)
(-15.4898 -3.06068 6.46361e-18)
(-14.65 -2.60025 -6.60418e-18)
(-13.6719 -2.08924 -8.6865e-20)
(-12.5623 -1.58832 0)
(-11.3304 -1.1395 4.75377e-20)
(-9.98943 -0.769284 2.34206e-18)
(-8.5611 -0.491976 -2.30062e-18)
(-7.07969 -0.309776 0)
(-5.59393 -0.214064 -1.03537e-18)
(-4.16433 -0.185803 1.06601e-18)
(-2.86351 -0.206671 0)
(-1.75881 -0.256258 0)
(-0.881345 -0.296917 1.63731e-20)
(-0.238565 -0.307204 1.45172e-20)
(0.179832 -0.28778 0)
(0.403154 -0.253963 2.41083e-19)
(0.477803 -0.216634 -2.30143e-19)
(0.455782 -0.180989 -1.61639e-19)
(0.384969 -0.149529 3.66037e-20)
(0.304346 -0.121867 2.57139e-19)
(0.242892 -0.0950219 -2.26554e-19)
(0.22018 -0.0659646 4.02749e-21)
(0.248609 -0.0311878 7.85751e-20)
(0.335068 0.0125711 -5.68549e-21)
(0.482107 0.067516 0)
(0.689294 0.134589 0)
(0.954139 0.214324 9.60493e-20)
(1.27259 0.306992 -1.08901e-19)
(1.63918 0.41215 0)
(2.04719 0.528432 1.55554e-20)
(2.48899 0.65362 0)
(2.95646 0.784879 1.35361e-19)
(3.44142 0.918892 -1.3206e-19)
(3.93589 1.05193 3.65496e-20)
(4.43237 1.17991 3.42721e-19)
(4.92409 1.29843 -3.0011e-19)
(5.40523 1.40288 3.76268e-20)
(5.87115 1.48862 0)
(6.31853 1.55118 0)
(6.74554 1.58708 0)
(7.15111 1.59231 -2.77733e-19)
(7.53872 1.57207 -6.7496e-21)
(7.87482 1.43696 3.88645e-19)
(0.790696 -3.8824 -7.16706e-17)
(2.72985 -10.7721 -1.04432e-16)
(8.08004 -18.3993 1.0674e-16)
(10.4762 -27.2678 -1.00653e-16)
(5.80006 -32.0293 1.03265e-16)
(-7.31544 -33.8185 3.08254e-19)
(-25.8666 -33.2489 2.99134e-19)
(-44.9261 -32.1239 0)
(-57.99 -32.643 -9.22322e-20)
(-57.8627 -36.3868 0)
(-41.2279 -43.2156 2.09626e-19)
(-13.8289 -50.9183 2.93756e-17)
(12.3483 -56.9542 -2.97789e-17)
(28.6761 -59.9911 -1.27772e-17)
(33.9278 -59.5896 1.27414e-17)
(30.7896 -55.9005 7.06868e-19)
(22.5547 -49.6042 -4.38222e-19)
(12.6555 -41.824 0)
(4.34296 -34.0145 0)
(-0.413809 -27.644 0)
(-1.90072 -23.2398 -1.09563e-17)
(-1.93305 -20.1395 2.10283e-17)
(-2.3255 -17.5884 -1.08576e-18)
(-3.93035 -15.3676 -1.80835e-17)
(-6.62977 -13.5209 8.75506e-18)
(-9.76916 -12.0449 0)
(-12.5814 -10.8827 6.2141e-20)
(-14.5096 -9.98006 0)
(-15.3578 -9.28768 -5.0776e-18)
(-15.2519 -8.74786 5.03537e-18)
(-14.4844 -8.30249 9.50663e-20)
(-13.3767 -7.89774 0)
(-12.1771 -7.49334 3.07994e-18)
(-11.0268 -7.05756 -5.65143e-18)
(-9.98006 -6.56504 2.70856e-18)
(-9.04535 -6.00027 -2.11778e-18)
(-8.21746 -5.36046 4.03862e-18)
(-7.48575 -4.65303 -1.91808e-18)
(-6.83552 -3.89418 0)
(-6.24423 -3.1087 0)
(-5.68081 -2.32801 0)
(-5.10904 -1.58607 1.128e-18)
(-4.49463 -0.917576 -3.22347e-18)
(-3.81394 -0.353784 2.02134e-18)
(-3.06308 0.0843149 0)
(-2.26532 0.388383 -1.44818e-18)
(-1.47042 0.565359 1.40295e-18)
(-0.747227 0.638496 1.05252e-18)
(-0.16809 0.632788 -2.13288e-19)
(0.223374 0.568188 -1.28421e-19)
(0.425218 0.470899 -1.10445e-19)
(0.471681 0.363758 -6.49969e-19)
(0.416032 0.260284 0)
(0.314938 0.168898 0)
(0.216314 0.0956237 -3.27718e-19)
(0.15417 0.0456306 3.62372e-19)
(0.149554 0.0238895 0)
(0.213023 0.0338843 0)
(0.347967 0.0773966 1.58223e-20)
(0.553542 0.15531 1.83617e-20)
(0.826304 0.267536 0)
(1.16102 0.413305 0)
(1.55126 0.591147 -1.88089e-20)
(1.98928 0.798409 -1.71627e-20)
(2.46652 1.03183 1.53286e-19)
(2.97389 1.28763 -2.73356e-19)
(3.50189 1.56141 -1.97246e-20)
(4.0408 1.84805 2.77153e-19)
(4.5809 2.14178 -2.9786e-19)
(5.11273 2.43614 2.88723e-19)
(5.62739 2.72407 -4.61557e-20)
(6.11693 2.99788 -1.45975e-19)
(6.57466 3.24941 2.98742e-19)
(6.99561 3.47016 -6.05141e-21)
(7.37682 3.65168 -5.61045e-19)
(7.7177 3.78528 2.97324e-19)
(8.02027 3.86539 0)
(8.28774 3.87783 5.06137e-20)
(8.53159 3.85209 0)
(8.73283 3.62033 -1.21739e-19)
(-5.34538 2.43765 0)
(6.0215 3.07436 1.43616e-19)
(29.1672 -2.81083 -1.41017e-19)
(43.8867 -4.12333 -2.24013e-17)
(44.3169 -3.56582 3.99659e-17)
(39.3273 -0.791246 -1.82974e-17)
(33.451 3.13471 -3.00329e-19)
(28.8943 7.67909 0)
(27.7437 11.9914 0)
(32.4142 15.2801 0)
(42.1098 17.4163 -2.0982e-19)
(49.0124 19.0788 -2.71325e-19)
(44.6936 20.6229 0)
(31.1655 21.5619 1.10666e-20)
(18.0526 21.3119 2.57223e-19)
(10.8609 19.6081 -2.78961e-17)
(8.02484 16.751 2.80587e-17)
(6.20018 13.6541 1.04373e-19)
(3.89926 10.9851 0)
(1.32049 8.77394 -1.06324e-19)
(-0.936284 6.72671 4.20317e-20)
(-2.63064 4.72827 -1.20721e-17)
(-3.92894 2.85602 2.73932e-18)
(-5.06313 1.24258 9.53971e-18)
(-6.11347 -0.0237555 -3.38613e-20)
(-7.01445 -0.911645 -4.28892e-20)
(-7.63712 -1.45616 2.09225e-18)
(-7.86624 -1.73823 -2.07014e-18)
(-7.65789 -1.85585 -2.60239e-20)
(-7.06359 -1.8917 7.5768e-20)
(-6.20955 -1.89661 7.61648e-20)