/*--------------------------------*- C++ -*----------------------------------*\
| =========                 |                                                 |
| \\      /  F ield         | OpenFOAM: The Open Source CFD Toolbox           |
|  \\    /   O peration     | Version:  2012                                  |
|   \\  /    A nd           | Website:  www.openfoam.com                      |
|    \\/     M anipulation  |                                                 |
\*---------------------------------------------------------------------------*/
FoamFile
{
    version     2.0;
    format      ascii;
    class       volScalarField;
    location    "0.54";
    object      p;
}
// * * * * * * * * * * * * * * * * * * * * * * * * * * * * * * * * * * * * * //

dimensions      [0 2 -2 0 0 0 0];


internalField   nonuniform List<scalar> 
42400
(
5659.93
5362.08
4917.54
4355.34
3746.21
3243.64
2886.34
2637.07
2446
2285.11
2148.89
2039.01
1956.73
1904.79
1888.45
1912.49
1977.12
2073.33
2183.75
2285.57
2355.33
2370.82
2304.87
2140.97
1933.24
1763.86
1625.39
1463.09
1266.74
1057.96
856.887
676.763
524.63
402.293
307.172
234.299
178.24
134.411
99.297
70.5846
46.6407
26.2603
8.88812
-5.94128
-18.6155
-29.4052
-38.5109
-46.1025
-52.3418
-57.3927
-61.4211
-64.5902
-67.0526
-68.9446
-70.3824
-71.4617
-72.2584
-72.831
-73.2239
-73.4703
-73.5953
-73.6183
-73.5551
-73.419
-73.2219
-72.9746
-72.6869
-72.3669
-72.0206
-71.6521
-71.2651
-70.8619
-70.4457
-70.0198
-69.5887
-69.158
-68.7343
-68.3242
-67.9318
-67.5923
-20271.4
-19249.9
-17968.7
-16665.4
-15282.5
-13993.8
-12843.3
-11831.4
-10935.8
-10143.5
-9452.99
-8855.64
-8327.09
-7832.25
-7335.19
-6808.53
-6238.82
-5629.59
-4998.38
-4367.71
-3758.8
-3185.46
-2657.09
-2183.03
-1769.64
-1417.3
-1122.32
-879.206
-680.848
-520.752
-393.106
-292.865
-215.616
-157.413
-114.639
-84.1142
-63.0545
-49.0974
-40.3147
-35.2033
-32.6532
-31.8758
-32.3172
-33.5847
-35.39
-37.5185
-39.8117
-42.1564
-44.474
-46.7123
-48.8379
-50.8318
-52.6857
-54.3995
-55.9784
-57.4302
-58.7642
-59.9882
-61.1071
-62.1247
-63.043
-63.862
-64.5813
-65.2006
-65.7206
-66.1441
-66.4771
-66.7256
-66.8942
-66.9897
-67.018
-66.9855
-66.8984
-66.7629
-66.5856
-66.3733
-66.1338
-65.8753
-65.6037
-65.3891
6942.23
6851.31
6736.41
6546.2
6256.56
5811.61
5199.82
4455.71
3636.1
2786.66
1930.7
1080.61
254.18
-519.095
-1201.19
-1752.67
-2145.23
-2373.59
-2455.76
-2424.04
-2311.48
-2145.2
-1944.95
-1726.34
-1502.62
-1284.33
-1079.01
-891.599
-724.998
-580.494
-458.042
-356.494
-273.913
-207.964
-156.244
-116.475
-86.5742
-64.6511
-49.0476
-38.3458
-31.3713
-27.1938
-25.0717
-24.4175
-24.7759
-25.8098
-27.2845
-29.044
-30.9855
-33.0394
-35.1539
-37.2869
-39.4056
-41.4865
-43.5144
-45.4807
-47.3823
-49.217
-50.9573
-52.6115
-54.1861
-55.6726
-57.061
-58.3379
-59.4894
-60.5038
-61.3734
-62.0978
-62.6838
-63.1412
-63.4825
-63.7213
-63.8712
-63.9446
-63.9525
-63.9045
-63.809
-63.6748
-63.5034
-63.3788
-136.031
-38.2829
111.843
299.958
543.016
803.045
1069.89
1337.68
1601.21
1853.95
2087.66
2292.44
2456.56
2566.3
2608.32
2573.42
2460.36
2278.16
2047.11
1794.6
1546.57
1319.52
1118.84
942.216
784.567
641.556
511.384
394.519
292.196
205.521
135.039
80.5416
41.0157
14.6141
-1.18138
-8.80548
-11.2168
-11.1351
-10.13
-8.99407
-8.11113
-7.63642
-7.62635
-8.08474
-8.99232
-10.3329
-12.0909
-14.203
-16.5539
-19.0377
-21.5863
-24.1476
-26.6984
-29.2247
-31.7209
-34.183
-36.6082
-38.9996
-41.3826
-43.7398
-46.0458
-48.2793
-50.4084
-52.4002
-54.2244
-55.8529
-57.2651
-58.4524
-59.4193
-60.1822
-60.7658
-61.1987
-61.5093
-61.7211
-61.852
-61.9134
-61.9116
-61.8519
-61.7266
-61.6152
-287.857
-275.953
-233.26
-150.093
-40.6708
74.0075
173.322
244.356
284.574
298.956
296.71
287.242
277.848
273.162
275.491
285.816
303.919
327.956
355.019
383.035
410.425
434.962
453.879
465.051
467.529
461.831
449.044
430.202
406.141
377.134
343.19
304.946
264.31
224.101
186.797
153.079
122.992
96.6282
74.2944
55.92
41.1938
29.7314
20.7536
13.5119
7.46892
2.31974
-2.08496
-5.85108
-9.11434
-11.9939
-14.5982
-17.0326
-19.3975
-21.7766
-24.2261
-26.7695
-29.4025
-32.1032
-34.8437
-37.595
-40.3287
-43.0058
-45.5374
-47.9156
-50.1495
-52.1827
-53.9729
-55.4972
-56.7516
-57.7516
-58.5282
-59.121
-59.569
-59.9041
-60.1473
-60.3088
-60.3909
-60.3941
-60.3052
-60.1928
5133.17
5006.72
4860.72
4669.01
4383.34
4011.91
3569.5
3077.42
2554.2
2015.47
1479.81
967.099
495.335
79.7137
-267.572
-537.998
-728.19
-841.654
-888.759
-884.278
-843.703
-780.26
-703.695
-620.602
-535.272
-450.671
-369.149
-292.867
-223.971
-164.422
-115.56
-77.5917
-49.3866
-28.8405
-13.6222
-1.89397
7.36394
14.6599
20.2575
24.2098
26.5281
26.8679
25.3641
22.3651
18.3189
13.8515
9.20563
4.72768
0.627735
-3.00641
-6.18561
-8.99866
-11.592
-14.1315
-16.7555
-19.5419
-22.4974
-25.5711
-28.6838
-31.761
-34.7601
-37.7484
-40.6535
-43.4377
-46.0512
-48.454
-50.6057
-52.471
-54.0337
-55.3036
-56.3129
-57.1061
-57.7288
-58.2176
-58.5957
-58.8736
-59.0518
-59.1298
-59.0921
-59.004
-3961.06
-3413.29
-2755.18
-2264.82
-1913.6
-1693.27
-1488.61
-1258.77
-1011.38
-754.829
-494.208
-238.342
2.21696
219.56
410.683
576.215
717.338
832.562
918.223
971.354
991.606
981.626
946.539
892.826
827.003
754.702
680.297
606.921
536.505
470.106
408.776
353.23
303.694
260.095
222.154
189.381
161.18
136.958
116.13
98.1195
82.3929
68.4865
56.0235
44.7293
34.4313
24.8993
16.3961
8.96295
2.63731
-2.55401
-6.76264
-10.2743
-13.405
-16.4107
-19.4329
-22.4951
-25.5448
-28.497
-31.2729
-33.8266
-36.0922
-38.1422
-40.1689
-42.2078
-44.1694
-46.1198
-47.9996
-49.7441
-51.3116
-52.6793
-53.8452
-54.8243
-55.6395
-56.3126
-56.8588
-57.2843
-57.5879
-57.7683
-57.8095
-57.7729
-981.488
-878.863
-725.161
-541.468
-327.714
-139.747
13.8154
141.171
260.781
392.108
542.104
697.527
835.401
940.329
1007.41
1036.64
1030.25
995.232
941.752
879.091
813.485
748.232
684.609
623.103
564.426
509.306
457.704
408.991
362.799
319.318
278.596
241.293
207.647
177.858
151.452
128.294
108.142
90.6132
75.3296
61.9423
50.1388
39.6553
30.2965
21.9293
14.4667
7.90448
2.18267
-2.514
-6.06426
-8.61473
-10.422
-11.8431
-13.3223
-15.1648
-17.4554
-20.0446
-22.8668
-25.7935
-28.6559
-31.315
-33.7891
-36.0179
-38.0719
-40.0084
-41.9687
-43.8957
-45.777
-47.5789
-49.254
-50.7641
-52.088
-53.2208
-54.1696
-54.9471
-55.566
-56.0356
-56.3601
-56.5433
-56.5786
-56.5059
4568.89
4440
4255.03
3993.3
3642.55
3235.52
2792.72
2332.99
1871.83
1418.82
978.703
553.783
143.41
-252.697
-627.428
-964.111
-1241
-1441.29
-1557.91
-1591.4
-1550.45
-1453.39
-1325.09
-1189.72
-1059.51
-930.297
-795.528
-658.854
-529.357
-413.797
-315.182
-234.437
-169.974
-119.9
-81.6282
-53.1136
-32.5132
-18.1697
-8.72365
-3.07898
-0.354603
0.16801
-0.905425
-3.08259
-5.99749
-9.3859
-12.9786
-16.6968
-20.4958
-24.289
-27.9773
-31.4142
-34.3565
-36.6668
-38.3463
-39.5351
-40.1728
-40.4942
-40.7585
-41.0708
-41.5046
-42.0966
-42.8538
-43.8135
-44.9505
-46.2126
-47.5399
-48.868
-50.1378
-51.3032
-52.3339
-53.2142
-53.9397
-54.5135
-54.9425
-55.2354
-55.4017
-55.4502
-55.3919
-55.2322
-8340.44
-8035.76
-7626.47
-7134.84
-6551.44
-5935.23
-5310.99
-4703.66
-4143.49
-3663.79
-3289.97
-3024.44
-2830.37
-2632.97
-2345.51
-1910.56
-1339.08
-713.599
-128.633
362.033
732.07
958.769
1036.86
994.273
878.662
728.65
573.327
427.972
300.034
192.543
106.488
41.0337
-6.5539
-39.4815
-60.9138
-73.7976
-80.5779
-83.1161
-82.8217
-80.8048
-77.8715
-74.6126
-71.4484
-68.6388
-66.3027
-64.4372
-62.9576
-61.7426
-60.6742
-59.6661
-58.6664
-57.6474
-56.5692
-55.4145
-54.3802
-53.3416
-52.4392
-51.6595
-50.9497
-50.3676
-49.9644
-49.7694
-49.7923
-50.0246
-50.4382
-50.9914
-51.6346
-52.3167
-52.9901
-53.6141
-54.1565
-54.5953
-54.9185
-55.1245
-55.2209
-55.2223
-55.1469
-55.0113
-54.8327
-54.6022
6794.08
6653.43
6513.94
6369.32
6170.16
5917.84
5593.46
5176.83
4653.97
4022.72
3303.66
2546.73
1824.54
1210.82
753.873
460.526
295.44
202.328
132.222
56.3354
-36.3097
-141.34
-241.492
-316.577
-357.138
-368.907
-363.527
-348.335
-327.455
-304.416
-281.571
-260.385
-241.546
-225.07
-210.74
-198.311
-187.439
-177.894
-169.445
-161.779
-154.592
-147.632
-140.746
-133.972
-127.297
-120.682
-114.238
-108.109
-102.429
-97.2881
-92.7185
-88.6822
-85.106
-81.8629
-78.608
-75.4313
-72.389
-69.5324
-66.9326
-64.6532
-62.7332
-61.1825
-59.9853
-59.1052
-58.4931
-58.0934
-57.85
-57.7099
-57.6263
-57.5593
-57.4773
-57.358
-57.1891
-56.9682
-56.7014
-56.4007
-56.0802
-55.7511
-55.4186
-55.0851
4425
4202.71
3890.5
3508.74
3053.51
2626.02
2242
1897.33
1594.5
1324.32
1051.02
733.257
370.768
11.4164
-292.552
-520.444
-678.269
-779.981
-836.672
-852.966
-833.714
-786.041
-719.883
-646.85
-577.086
-515.724
-463.713
-419.532
-381.247
-347.97
-319.735
-296.298
-277.308
-262.206
-250.216
-240.515
-232.348
-225.078
-218.197
-211.316
-204.153
-196.534
-188.372
-179.542
-170.126
-160.38
-150.505
-140.708
-131.293
-122.394
-114.157
-106.684
-100.024
-94.1607
-89.053
-84.6259
-80.8083
-77.5305
-74.7256
-72.3359
-70.3106
-68.604
-67.1736
-65.9784
-64.9781
-64.1337
-63.4082
-62.768
-62.1832
-61.6293
-61.0877
-60.547
-60.0023
-59.4548
-58.909
-58.3707
-57.844
-57.3291
-56.8221
-56.3269
-13958.6
-13101.9
-11991.8
-10855.2
-9707.03
-8680.46
-7748.53
-6877.11
-6048.5
-5240.14
-4421.67
-3584.22
-2760.16
-2007.86
-1380.99
-910.424
-600.154
-428.381
-353.324
-324.764
-304.002
-276.848
-248.587
-228.894
-221.798
-225.661
-237.162
-253.284
-271.691
-290.121
-306.932
-320.933
-331.172
-337.014
-338.292
-335.264
-328.47
-318.579
-306.272
-292.165
-276.783
-260.551
-243.819
-226.877
-209.989
-193.396
-177.333
-162.048
-147.738
-134.678
-123.056
-113.007
-104.583
-97.721
-92.2591
-87.9625
-84.5729
-81.8511
-79.5975
-77.6735
-75.9851
-74.4725
-73.0985
-71.8383
-70.6729
-69.5856
-68.5615
-67.5877
-66.6535
-65.7512
-64.8758
-64.0249
-63.1977
-62.3939
-61.6126
-60.8514
-60.1058
-59.3694
-58.6356
-57.9004
6290.1
6196.41
6116.52
6020.12
5870.02
5629.14
5287.15
4848.88
4324.02
3720.4
3049.24
2330.84
1593.05
864.737
178.143
-427.731
-908.467
-1214.16
-1303.74
-1184.61
-938.925
-685.004
-503.721
-410.355
-384.317
-402.906
-449.923
-511.536
-573.261
-621.548
-648.119
-651.422
-635.466
-606.175
-569.163
-528.82
-488.097
-448.717
-411.524
-376.822
-344.621
-314.801
-287.204
-261.682
-238.12
-216.435
-196.58
-178.53
-162.277
-147.815
-135.134
-124.202
-114.949
-107.264
-100.991
-95.9389
-91.9011
-88.6695
-86.0522
-83.8833
-82.0318
-80.3944
-78.9035
-77.5128
-76.1916
-74.9196
-73.6829
-72.4724
-71.2827
-70.1118
-68.96
-67.8294
-66.7224
-65.6402
-64.5825
-63.5468
-62.5286
-61.5225
-60.523
-59.5225
3648.32
3507.77
3309.73
3045.61
2730.16
2420.73
2146.01
1917.28
1736.78
1595.97
1475.34
1348.04
1189.28
988.129
747.056
474.668
179.901
-129.125
-436.272
-717.361
-950.71
-1128.48
-1255.5
-1338.96
-1381.66
-1382.67
-1340.09
-1253.99
-1131.47
-990.63
-854.264
-739.219
-649.573
-581.426
-528.404
-486.084
-450.791
-420.331
-393.074
-367.803
-343.717
-320.378
-297.623
-275.48
-254.091
-233.652
-214.371
-196.437
-179.993
-165.136
-151.908
-140.299
-130.252
-121.666
-114.409
-108.325
-103.247
-99.0103
-95.4552
-92.4417
-89.849
-87.5768
-85.5441
-83.6873
-81.9571
-80.3166
-78.7391
-77.2065
-75.7079
-74.2379
-72.7956
-71.3822
-69.9995
-68.6486
-67.3287
-66.0373
-64.7704
-63.5236
-62.2928
-61.0718
-13495.9
-12804.5
-11899.5
-10903.2
-9809.22
-8781.1
-7853.62
-7008.83
-6235.79
-5547.52
-4948.44
-4420.34
-3936.33
-3477.63
-3040.59
-2634.11
-2272.33
-1964.71
-1715.63
-1523.13
-1378.32
-1266.51
-1171.52
-1080.18
-985.419
-886.77
-789.278
-701.613
-633.218
-589.909
-570.223
-565.959
-566.394
-562.801
-552.114
-534.142
-510.747
-483.551
-454.166
-423.927
-393.786
-364.37
-336.071
-309.136
-283.731
-259.983
-237.991
-217.822
-199.503
-183.028
-168.356
-155.42
-144.128
-134.37
-126.016
-118.918
-112.919
-107.858
-103.575
-99.9213
-96.7631
-93.9861
-91.4964
-89.2202
-87.1016
-85.0999
-83.1863
-81.3412
-79.5523
-77.8121
-76.1169
-74.4647
-72.8539
-71.2829
-69.749
-68.2484
-66.7772
-65.3314
-63.9071
-62.5001
2992.27
2865.86
2715.48
2551.38
2361.42
2172.64
1978.29
1765.88
1528.15
1265.83
987.275
705.389
432.858
179.853
-45.6326
-238.557
-398.845
-531.614
-645.537
-748.59
-843.201
-924.722
-983.942
-1011.9
-1003.93
-961.838
-893.523
-810.347
-723.632
-641.991
-570.414
-510.869
-463.26
-426.101
-397.529
-375.576
-358.241
-343.669
-330.482
-317.713
-304.725
-291.156
-276.888
-262.003
-246.736
-231.406
-216.361
-201.912
-188.306
-175.713
-164.231
-153.895
-144.695
-136.583
-129.483
-123.299
-117.918
-113.225
-109.101
-105.436
-102.136
-99.1224
-96.3344
-93.7294
-91.2773
-88.957
-86.7519
-84.6478
-82.6313
-80.6903
-78.8139
-76.993
-75.2203
-73.4896
-71.7956
-70.1338
-68.5002
-66.8915
-65.3049
-63.7371
11948.1
11718.7
11403.7
10948.7
10320.6
9550.43
8701.05
7869.1
7131.54
6500.23
5940.01
5416.06
4914.6
4437.39
3990.4
3577.21
3197.56
2847.74
2521.4
2211.73
1913.53
1624.59
1345.88
1080.91
834.503
611.401
415.033
246.831
106.366
-8.27378
-99.7266
-170.634
-223.328
-260.318
-283.491
-294.995
-297.14
-292.273
-282.648
-270.25
-256.642
-242.91
-229.701
-217.314
-205.816
-195.15
-185.22
-175.944
-167.278
-159.214
-151.765
-144.943
-138.749
-133.162
-128.139
-123.617
-119.521
-115.77
-112.286
-109.003
-105.872
-102.862
-99.9658
-97.1848
-94.5275
-92
-89.6018
-87.3247
-85.1543
-83.0736
-81.066
-79.1171
-77.2156
-75.3531
-73.5236
-71.7225
-69.9468
-68.1942
-66.4626
-64.7492
-4538.8
-4178.32
-3683.93
-3087.24
-2355.87
-1596.26
-874.239
-228.432
331.037
798.604
1161.51
1410.54
1549.64
1594.41
1565.92
1484.76
1369.08
1232.96
1086.59
937.038
789.009
646.117
512.469
392.554
289.839
205.066
137.117
83.4956
41.023
6.68043
-21.6829
-45.3115
-65.0176
-81.2236
-94.339
-104.93
-113.599
-120.877
-127.117
-132.481
-136.958
-140.447
-142.844
-144.096
-144.215
-143.284
-141.441
-138.874
-135.798
-132.434
-128.988
-125.627
-122.466
-119.565
-116.933
-114.537
-112.315
-110.196
-108.112
-106.012
-103.867
-101.673
-99.4446
-97.2077
-94.9893
-92.8103
-90.6813
-88.6032
-86.5695
-84.5711
-82.5988
-80.646
-78.7081
-76.7832
-74.8706
-72.9706
-71.0837
-69.2111
-67.3526
-65.5078
-4291.3
-4356.79
-4448.52
-4527.8
-4592.4
-4624.35
-4628.56
-4617.94
-4614.02
-4633.1
-4667.19
-4688.56
-4668.96
-4589.24
-4439.21
-4216.48
-3926.3
-3581.22
-3200.16
-2805.85
-2420.82
-2063.66
-1746.19
-1468.84
-1225.4
-1006.91
-809.181
-632.719
-480.616
-355.782
-258.747
-187.357
-137.737
-105.443
-86.3081
-76.8415
-74.2248
-76.1662
-80.8036
-86.7072
-92.6909
-97.9897
-102.229
-105.308
-107.322
-108.471
-108.988
-109.093
-108.969
-108.747
-108.5
-108.255
-107.998
-107.696
-107.306
-106.789
-106.116
-105.265
-104.229
-103.012
-101.631
-100.111
-98.4826
-96.7765
-95.017
-93.2207
-91.3962
-89.5462
-87.6704
-85.7684
-83.8412
-81.8914
-79.9229
-77.9404
-75.9492
-73.9539
-71.9594
-69.9696
-67.9867
-66.0134
-2076.77
-1875.66
-1594.67
-1258.49
-878.656
-508.429
-180.649
80.5721
263.903
371.624
412.987
397.444
332.546
225.383
85.1801
-75.475
-240.737
-394.331
-523.664
-621.155
-685.514
-719.784
-729.633
-722.522
-706.64
-690.023
-677.265
-664.086
-638.857
-590.761
-521.804
-446.065
-375.92
-315.691
-264.704
-221.948
-186.671
-158.435
-136.831
-121.355
-111.424
-106.38
-105.536
-108.218
-113.784
-121.63
-131.185
-141.89
-153.169
-164.405
-174.915
-183.946
-190.694
-194.361
-194.251
-189.899
-181.22
-168.609
-152.677
-134.938
-117.338
-101.494
-88.3985
-78.3148
-70.9278
-65.6667
-61.9544
-59.3128
-57.3287
-55.8294
-54.6335
-53.6306
-52.7503
-51.9451
-51.1837
-50.4456
-49.7175
-48.9823
-48.2381
-47.4804
3431.12
3253.48
3023.98
2749.76
2408.37
2041.21
1672.51
1325.52
1018.67
761.668
557.143
402.873
292.719
218.522
172.034
146.602
137.214
140.644
155.266
179.187
209.465
242.849
276.325
307.002
331.908
349.017
357.933
357.894
348.421
328.844
299.469
262.569
221.678
180.245
140.743
104.875
73.5181
46.6778
23.8966
4.49227
-12.2655
-27.0617
-40.488
-53.0069
-64.9381
-76.4597
-87.6155
-98.3248
-108.394
-117.532
-125.365
-131.469
-135.4
-136.749
-135.211
-130.667
-123.269
-113.523
-102.208
-90.0142
-78.1565
-67.9479
-60.1043
-54.6562
-51.2094
-49.2229
-48.1957
-47.7534
-47.6549
-47.7016
-47.7988
-47.8929
-47.9529
-47.9625
-47.9139
-47.8039
-47.6329
-47.3953
-47.0953
-46.7313
-4576.79
-4434.95
-4248.49
-4008.02
-3687.38
-3292.55
-2837.2
-2362.24
-1922.46
-1559.36
-1284.08
-1083.24
-936.726
-830.526
-758.821
-715.479
-685.037
-647.793
-594.95
-527.822
-450.057
-365.817
-280.603
-199.484
-125.352
-59.1095
-1.14997
47.4716
85.1001
110.093
122.036
120.774
108.524
88.1473
63.0494
35.7182
8.43867
-16.7727
-38.8386
-57.4508
-72.3639
-83.7187
-91.9478
-97.5813
-101.136
-103.051
-103.665
-103.216
-101.847
-99.6374
-96.6195
-92.8082
-88.2232
-82.913
-76.9779
-70.5865
-63.9853
-57.4954
-51.4799
-46.3172
-42.3248
-39.6314
-38.1342
-37.5834
-37.7017
-38.2508
-39.0496
-39.9704
-40.9286
-41.8666
-42.7471
-43.5458
-44.2491
-44.8503
-45.3473
-45.7408
-46.0347
-46.2277
-46.3248
-46.3209
7261.54
7152.61
6990.08
6734.21
6378.83
5958.49
5503.2
5039.84
4588.68
4159.94
3754.78
3371.66
3011.49
2680.82
2387.51
2134.37
1916.58
1723.03
1539.96
1351.6
1144.9
914.408
663.549
404.318
155.018
-66.2924
-247
-380.934
-467.365
-509.833
-515.104
-492.035
-449.933
-397.396
-341.919
-288.828
-241.787
-202.68
-171.643
-147.75
-130.018
-117.275
-108.296
-101.955
-97.2712
-93.4312
-89.7933
-85.8966
-81.4612
-76.3765
-70.6788
-64.5226
-58.1461
-51.8354
-45.8879
-40.5752
-36.1096
-32.6162
-30.1218
-28.5718
-27.8604
-27.8594
-28.4315
-29.4335
-30.7269
-32.1921
-33.7354
-35.2879
-36.801
-38.2412
-39.5857
-40.8207
-41.9389
-42.937
-43.8149
-44.5746
-45.2208
-45.7544
-46.1785
-46.4797
6.61469
170.13
394.178
618.96
862.364
1069.45
1229.65
1336.39
1383.62
1371.77
1306.72
1201.35
1070.4
925.671
777.393
636.2
511.663
409.173
329.657
271.797
234.27
216.732
215.797
222.508
226.232
218.067
193.816
154.198
103.294
46.6188
-10.2762
-62.6839
-107.459
-142.61
-167.82
-183.455
-190.516
-190.51
-185.152
-176.111
-164.855
-152.563
-140.088
-127.979
-116.519
-105.791
-95.7545
-86.3099
-77.3592
-68.8471
-60.7804
-53.2267
-46.2984
-40.1282
-34.8415
-30.5314
-27.2415
-24.9582
-23.6122
-23.092
-23.2624
-23.9818
-25.1152
-26.5411
-28.1548
-29.8723
-31.63
-33.3804
-35.0882
-36.7266
-38.2774
-39.728
-41.0705
-42.3005
-43.4168
-44.4199
-45.3141
-46.1009
-46.7811
-47.3308
-8044.44
-8155.6
-8306.16
-8425.84
-8481.72
-8442.16
-8320.27
-8150.28
-7971.95
-7801.86
-7615.33
-7368.98
-7028.92
-6584.36
-6047.34
-5446.46
-4818.09
-4198.14
-3616.33
-3091.67
-2631.77
-2236.54
-1901.68
-1621.55
-1387.71
-1190.04
-1019.31
-869.109
-735.835
-617.876
-514.554
-425.173
-349.317
-286.96
-237.101
-197.973
-167.676
-144.342
-126.274
-112.049
-100.562
-90.9946
-82.7488
-75.3986
-68.6519
-62.3211
-56.3007
-50.5498
-45.0772
-39.9286
-35.1741
-30.8964
-27.1791
-24.0952
-21.6968
-20.0069
-19.0158
-18.6807
-18.9312
-19.677
-20.8202
-22.2649
-23.9235
-25.7208
-27.5954
-29.4996
-31.397
-33.2599
-35.0668
-36.8011
-38.4509
-40.0073
-41.4652
-42.8217
-44.0761
-45.2298
-46.2875
-47.2523
-48.1248
-48.8742
-6495.88
-6152.4
-5706.09
-5240.05
-4780.99
-4391.17
-4019.3
-3602.01
-3135.92
-2666.89
-2234.62
-1852.08
-1516.85
-1221.78
-959.95
-726.582
-518.913
-335.966
-177.399
-42.7302
68.1291
156.585
222.28
266.848
294.252
307.669
308.472
297.778
278.237
253.942
228.609
203.927
180.713
159.067
138.746
119.785
102.204
86.0619
71.4313
58.3615
46.8766
36.9589
28.5395
21.5061
15.7244
11.0414
7.29258
4.30769
1.91922
-0.0316248
-1.6899
-3.18289
-4.61712
-6.07653
-7.62172
-9.29028
-11.0983
-13.0431
-15.1071
-17.2629
-19.4781
-21.7206
-23.9612
-26.1757
-28.3452
-30.4553
-32.4953
-34.4566
-36.3329
-38.119
-39.8116
-41.4089
-42.9106
-44.3181
-45.6342
-46.8628
-48.0111
-49.0853
-50.0889
-50.9945
11934.1
11707.4
11396.3
10917.2
10211.5
9393.23
8617.96
7953.34
7345.31
6725.31
6082.08
5439.22
4821.87
4241.99
3695.34
3171.94
2668.48
2194.18
1768.29
1408.76
1122.44
902.088
733.546
609.109
529.34
490.676
476.785
472.563
470.303
467.876
463.81
455.157
437.855
408.976
369.062
322.261
274.348
229.995
191.569
159.539
133.497
112.378
95.0347
80.4611
68.0855
57.4636
48.2379
40.102
32.8333
26.2672
20.2798
14.7787
9.69538
4.97806
0.586511
-3.51209
-7.34562
-10.9382
-14.3107
-17.4807
-20.4629
-23.2701
-25.9134
-28.4034
-30.7499
-32.9622
-35.0486
-37.0164
-38.8716
-40.6198
-42.2658
-43.8146
-45.2713
-46.642
-47.933
-49.1519
-50.3085
-51.4118
-52.4711
-53.4781
2131.22
2115.91
2107.99
2117.83
2161.72
2223.55
2237.32
2108.12
1793.54
1344.9
849.868
371.811
-65.8559
-465.332
-826.85
-1122.86
-1289.15
-1266.52
-1066.58
-765.417
-450.243
-180.378
15.3628
130.796
172.041
151.261
93.7018
31.1934
-11.43
-26.5406
-16.5265
12.6207
52.4908
93.6712
128.425
152.532
164.965
167.78
163.185
153.424
140.269
125.406
110.184
95.5877
82.0086
69.5983
58.3481
48.1655
38.9168
30.5102
22.8519
15.8574
9.46423
3.62456
-1.70206
-6.55417
-10.9715
-14.9954
-18.6669
-22.0249
-25.1046
-27.9369
-30.5483
-32.9619
-35.1979
-37.2741
-39.2059
-41.0069
-42.689
-44.2625
-45.7368
-47.1206
-48.4223
-49.6506
-50.8139
-51.9217
-52.984
-54.0091
-55.0039
-55.9741
-9952.27
-9712.82
-9432.65
-9092.5
-8607.43
-7978.56
-7245.91
-6492.28
-5781.71
-5132.14
-4552.97
-4088.1
-3800.72
-3698.46
-3688.42
-3638.05
-3477.1
-3214.65
-2882.52
-2512.21
-2130.09
-1761.03
-1426.58
-1140.2
-906.251
-722.116
-581.538
-478.244
-406.49
-359.441
-330.226
-312.059
-297.398
-278.866
-251.963
-216.806
-177.031
-137.566
-102.359
-73.113
-49.9705
-32.3133
-19.2769
-10.0038
-3.76096
0.0407506
1.87315
2.13436
1.19734
-0.646107
-3.15906
-6.12961
-9.38333
-12.7679
-16.1692
-19.5027
-22.7093
-25.7518
-28.6096
-31.2742
-33.7456
-36.0295
-38.1356
-40.076
-41.8645
-43.5151
-45.0416
-46.4568
-47.7727
-49.0001
-50.1488
-51.2281
-52.2469
-53.2135
-54.1366
-55.0248
-55.8872
-56.7298
-57.556
-58.3745
2928.29
2789.57
2569.51
2299.72
2009.78
1755.95
1534.43
1326.92
1127.62
940.091
761.831
576.121
368.727
155.233
-29.1695
-167.962
-264.319
-319.452
-336.601
-324.219
-293.204
-253.971
-215.781
-186.26
-170.445
-169.904
-182.399
-202.235
-222.197
-236.475
-242.324
-239.667
-229.695
-213.615
-192.7
-168.542
-143.225
-118.35
-95.1865
-74.6404
-57.2156
-43.101
-32.259
-24.4971
-19.5255
-16.9705
-16.4216
-17.4226
-19.5084
-22.0518
-24.8486
-27.6911
-30.4206
-32.9589
-35.2863
-37.4113
-39.3539
-41.137
-42.7814
-44.304
-45.7167
-47.0283
-48.2454
-49.3736
-50.4188
-51.3871
-52.285
-53.1193
-53.8971
-54.6254
-55.3111
-55.9612
-56.5826
-57.1822
-57.7667
-58.343
-58.9178
-59.4944
-60.0719
-60.6594
11030.1
10809.7
10520.6
10152.7
9691.96
9210.97
8728.28
8240.6
7742.6
7234.17
6716.8
6191.02
5661.43
5143
4658.54
4221.26
3822.34
3441.75
3064.83
2685.49
2304.44
1927.69
1565.01
1228.14
928.637
675.252
471.574
314.925
197.101
107.175
35.0557
-25.9476
-78.5024
-122.532
-156.54
-180.036
-193.663
-198.401
-195.876
-187.977
-176.419
-162.583
-147.502
-131.993
-116.778
-102.48
-90.0023
-79.2917
-70.5741
-64.1041
-59.545
-56.6252
-55.0459
-54.4624
-54.5465
-55.0293
-55.7114
-56.4579
-57.1862
-57.8515
-58.4344
-58.9311
-59.3466
-59.6905
-59.9738
-60.2079
-60.4036
-60.5704
-60.7172
-60.852
-60.982
-61.1139
-61.2539
-61.4073
-61.5792
-61.774
-61.9955
-62.2441
-62.5148
-62.8134
-8542.6
-8383.94
-8172.47
-7862.24
-7428.63
-6910.95
-6356.05
-5795.5
-5240.35
-4692.02
-4151.21
-3620.32
-3103.98
-2608.29
-2140.88
-1710.12
-1323.59
-986.917
-704.365
-479.42
-313.556
-204.546
-145.371
-125.265
-132.363
-156.134
-188.533
-224.144
-259.538
-292.115
-319.387
-338.909
-348.331
-345.633
-331.947
-309.72
-281.43
-250.463
-220.112
-192.935
-170.511
-153.347
-140.96
-132.096
-125.951
-121.499
-117.359
-113.305
-109.104
-104.736
-100.355
-96.1548
-92.2856
-88.8272
-85.7995
-83.1831
-80.9371
-79.0111
-77.3536
-75.9166
-74.6578
-73.5419
-72.5403
-71.6311
-70.7978
-70.0288
-69.3163
-68.6557
-68.0448
-67.4836
-66.9732
-66.5157
-66.1134
-65.7683
-65.4817
-65.2541
-65.0851
-64.9708
-64.9026
-64.8775
-1871.69
-2008.31
-2170.5
-2324.31
-2495.26
-2694.77
-2936.05
-3214.31
-3516.58
-3825.36
-4116.09
-4358.98
-4525.83
-4597.25
-4569.58
-4451.77
-4261.36
-4011.86
-3711.04
-3368.93
-3004.76
-2643.39
-2303.32
-1990.99
-1704.63
-1440.88
-1198.5
-978.92
-785.849
-622.479
-488.199
-380.973
-296.104
-228.847
-173.869
-127.749
-90.1115
-61.8312
-43.4032
-34.4062
-33.5044
-38.2558
-46.615
-57.0825
-67.8492
-77.8323
-86.4408
-93.3831
-98.5822
-102.118
-104.171
-104.969
-104.759
-103.776
-102.232
-100.305
-98.1434
-95.8625
-93.5472
-91.2602
-89.0433
-86.9224
-84.9117
-83.0169
-81.2387
-79.5743
-78.0202
-76.5725
-75.2285
-73.9865
-72.846
-71.807
-70.8696
-70.0333
-69.2961
-68.6546
-68.1037
-67.6355
-67.2381
-66.8978
-501.405
-253.799
95.93
484.713
900.514
1298.03
1676.68
2022.03
2308.57
2518.69
2646.73
2696.09
2678.98
2614.42
2525.21
2434.24
2371.8
2365.96
2402.75
2422.89
2378.55
2269.59
2122.34
1960.31
1796.21
1634.98
1476.96
1320.3
1163.34
1003.64
840.535
676.019
514.947
363.438
227.005
110.089
15.3548
-57.1624
-109.676
-145.655
-168.558
-181.992
-188.641
-190.46
-188.924
-185.124
-179.857
-173.703
-167.078
-160.28
-153.517
-146.93
-140.608
-134.606
-128.954
-123.663
-118.732
-114.151
-109.908
-105.982
-102.353
-99.0001
-95.8999
-93.0307
-90.3719
-87.9048
-85.6137
-83.4858
-81.5119
-79.6859
-78.0044
-76.4659
-75.0689
-73.8113
-72.6889
-71.6955
-70.8226
-70.0588
-69.3899
-68.7939
4774.42
4718.75
4600.57
4398.41
4134.51
3843.38
3527.92
3185.7
2831.52
2492.12
2193.98
1951.25
1765.74
1632.23
1541.11
1480.62
1440.58
1409.56
1365.79
1289.47
1173.32
1021.95
846.446
661.229
479.551
309.987
157.685
25.1658
-87.1765
-180.05
-255.042
-313.81
-358.327
-390.879
-413.571
-427.807
-435.132
-435.639
-429.461
-417.157
-399.731
-378.545
-355.077
-330.693
-306.502
-283.298
-261.582
-241.622
-223.511
-207.225
-192.67
-179.711
-168.196
-157.971
-148.886
-140.806
-133.605
-127.173
-121.412
-116.234
-111.564
-107.335
-103.489
-99.9735
-96.7454
-93.7674
-91.0092
-88.4476
-86.0661
-83.8549
-81.8092
-79.9277
-78.2107
-76.6571
-75.2638
-74.0243
-72.9292
-71.9656
-71.1177
-70.3601
4802.34
4844.85
4882.34
4865.38
4780.04
4596.36
4292.84
3855.45
3288.57
2617.03
1873.98
1091.76
299.928
-474.17
-1201.05
-1849.09
-2386.6
-2788.81
-3052.66
-3199.31
-3260.16
-3264.01
-3228.15
-3156.34
-3045.17
-2891.54
-2697.32
-2471.31
-2228.18
-1985.44
-1758.42
-1555.72
-1377.1
-1216.57
-1068.07
-929.325
-801.129
-686.595
-588.299
-506.886
-441.156
-388.779
-347.084
-313.585
-286.223
-263.406
-243.958
-227.046
-212.097
-198.724
-186.669
-175.754
-165.854
-156.871
-148.724
-141.339
-134.648
-128.586
-123.091
-118.104
-113.569
-109.432
-105.644
-102.161
-98.9406
-95.9486
-93.1555
-90.539
-88.0842
-85.784
-83.6373
-81.6471
-79.818
-78.1532
-76.6529
-75.3136
-74.1279
-73.0843
-72.1721
-71.3622
-5087.14
-5238.67
-5414.01
-5548.11
-5620.53
-5617.19
-5558.56
-5460.08
-5327.52
-5162.75
-4966.88
-4745.03
-4504.51
-4255.05
-4007.16
-3768.91
-3545.39
-3341.61
-3165.18
-3025.74
-2928.01
-2866.53
-2826.23
-2784.81
-2717.97
-2604.71
-2433.46
-2208.75
-1948.14
-1673.98
-1413.91
-1192.05
-1018.57
-888.519
-789.125
-708.031
-637.127
-572.465
-512.783
-458.115
-408.847
-365.238
-327.254
-294.591
-266.757
-243.16
-223.185
-206.241
-191.792
-179.384
-168.632
-159.231
-150.937
-143.563
-136.962
-131.019
-125.645
-120.767
-116.324
-112.265
-108.544
-105.121
-101.959
-99.0245
-96.2871
-93.7209
-91.3045
-89.0217
-86.8628
-84.824
-82.9066
-81.1153
-79.4554
-77.9315
-76.5468
-75.3019
-74.1946
-73.2199
-72.3625
-71.6105
-9481.82
-9063.38
-8508.99
-7946.2
-7412.11
-7002.51
-6694.98
-6465.52
-6317.03
-6250.91
-6248.7
-6278.11
-6303.51
-6292.03
-6220.56
-6074.83
-5847.09
-5538.99
-5162.52
-4740.17
-4306.37
-3904.01
-3532.45
-3088.93
-2497.49
-1854.9
-1303.02
-889.31
-598.066
-404.304
-286.167
-223.439
-195.743
-186.206
-183.838
-183.044
-181.71
-179.411
-176.337
-172.797
-169.033
-165.184
-161.312
-157.431
-153.536
-149.619
-145.681
-141.733
-137.794
-133.883
-130.026
-126.245
-122.563
-119.001
-115.576
-112.302
-109.187
-106.237
-103.453
-100.83
-98.3622
-96.0389
-93.8493
-91.7817
-89.8246
-87.9674
-86.2014
-84.52
-82.9194
-81.3978
-79.9561
-78.596
-77.3199
-76.132
-75.0358
-74.0345
-73.1314
-72.3299
-71.6319
-71.0324
13441.8
13407.1
13328.6
13103.3
12679.9
12092.4
11380.9
10576.4
9691.93
8730.76
7704.78
6647.85
5618.68
4689.28
3925.73
3365.54
3005.69
2810.98
2725.35
2686.69
2644
2565.69
2421.25
2209.82
1985.79
1770.53
1541.77
1312.37
1109.14
935.853
788.233
662.271
553.629
458.368
373.701
298.018
230.611
171.305
120.04
76.4431
39.9874
10.0707
-14.2894
-33.9283
-49.5343
-61.7269
-71.065
-78.046
-83.1072
-86.628
-88.9331
-90.2957
-90.9417
-91.054
-90.7774
-90.2242
-89.4793
-88.6058
-87.6492
-86.642
-85.6066
-84.5588
-83.5094
-82.4666
-81.4365
-80.4243
-79.4339
-78.4684
-77.5301
-76.6199
-75.7386
-74.8872
-74.0675
-73.2821
-72.5346
-71.8301
-71.1757
-70.5805
-70.0553
-69.6205
-45.9798
-43.5833
-41.08
-38.4722
-35.771
-32.984
-30.1769
-27.4074
-24.7398
-22.2238
-19.9022
-17.7937
-15.8997
-14.2093
-12.7045
-11.3645
-10.1686
-9.09773
-8.13553
-7.26899
-6.48835
-5.78685
-5.16041
-4.6071
-4.12658
-3.71959
-3.38738
-3.13109
-2.9516
-2.84895
-2.82176
-2.86669
-2.97794
-3.14669
-3.36052
-3.60362
-3.85734
-4.10094
-4.31271
-4.47238
-4.56482
-4.58377
-4.5348
-4.4368
-4.32087
-4.22564
-4.18948
-4.24285
-4.40468
-4.68388
-5.08288
-5.60038
-6.23266
-6.97459
-7.82
-8.76067
-9.78344
-10.8666
-11.9771
-13.0706
-14.0937
-14.9894
-15.7025
-16.1852
-16.4029
-16.3406
-16.0063
-15.4297
-14.6571
-13.7434
-12.7453
-11.7171
-10.7079
-9.75892
-8.9009
-8.15247
-7.52085
-7.00434
-6.59587
-6.28613
-6.06583
-5.92705
-5.86377
-5.87205
-5.94992
-6.09722
-6.31559
-6.60854
-6.98151
-7.44137
-7.99519
-8.6485
-9.40349
-10.258
-11.2055
-12.235
-13.332
-14.4788
-15.6545
-16.836
-17.9984
-19.1153
-20.1596
-21.1044
-21.9236
-22.5931
-23.0926
-23.4069
-23.5257
-23.4338
-23.1986
-22.7753
-22.1997
-21.4989
-20.6997
-19.8281
-18.908
-17.9597
-16.9996
-16.0403
-15.0912
-14.1595
-13.251
-12.3708
-11.5238
-10.7145
-9.94708
-9.22467
-8.54936
-7.92197
-7.34207
-6.80812
-6.31763
-5.86744
-5.45404
-5.07386
-4.72349
-4.39984
-4.10015
-3.82202
-3.56341
-3.32264
-3.09834
-2.8893
-2.69448
-2.51289
-2.34363
-2.1859
-2.03893
-1.90202
-1.77445
-1.65552
-1.54456
-1.44098
-1.34425
-1.25388
-1.16939
-1.0903
-1.01622
-0.946772
-0.881671