/*--------------------------------*- C++ -*----------------------------------*\
| =========                 |                                                 |
| \\      /  F ield         | OpenFOAM: The Open Source CFD Toolbox           |
|  \\    /   O peration     | Version:  2012                                  |
|   \\  /    A nd           | Website:  www.openfoam.com                      |
|    \\/     M anipulation  |                                                 |
\*---------------------------------------------------------------------------*/
FoamFile
{
    version     2.0;
    format      ascii;
    class       volScalarField;
    location    "0.83";
    object      p;
}
// * * * * * * * * * * * * * * * * * * * * * * * * * * * * * * * * * * * * * //

dimensions      [0 2 -2 0 0 0 0];


internalField   nonuniform List<scalar> 
42400
(
-5810.51
-5833.21
-5873.72
-5885.72
-5823.85
-5708.3
-5572.32
-5425.75
-5247.85
-5005.57
-4679.98
-4282.02
-3847.35
-3419.34
-3035.04
-2715.76
-2463.05
-2261.52
-2084.49
-1904.33
-1705.61
-1485.93
-1250.58
-1007.65
-769.278
-550.833
-367.227
-226.797
-128.316
-63.9368
-24.1694
-0.963966
11.4759
17.0089
18.1275
16.4697
13.1448
8.90787
4.25599
-0.512151
-5.24348
-9.87549
-14.3928
-18.7923
-23.0606
-27.1653
-31.0573
-34.6813
-37.9892
-40.9585
-43.5899
-45.832
-47.769
-49.425
-50.8203
-51.9801
-52.9216
-53.6588
-54.2025
-54.5592
-54.7304
-54.7116
-54.4908
-54.0484
-53.3575
-52.3856
-51.0987
-49.4663
-47.4674
-45.0981
-42.3772
-39.3513
-36.096
-32.7144
-29.331
-26.0769
-23.0689
-20.3891
-18.0812
-16.13
-4697.88
-4454.19
-4126.67
-3714.43
-3138.2
-2453.2
-1698.76
-939.119
-254.729
273.642
601.875
760.544
834.579
888.256
926.914
931.316
891.768
806.19
685.773
553.489
422.723
296.472
179.592
79.7486
2.90494
-48.8615
-77.554
-87.4663
-83.5043
-70.3965
-52.4531
-33.2958
-15.5766
-0.819233
10.4505
18.3403
23.25
25.6759
26.1002
24.9247
22.4656
18.99
14.7527
10.006
4.99611
-0.0527297
-4.9566
-9.5775
-13.8223
-17.6413
-21.034
-24.0905
-26.7778
-29.1368
-31.2078
-33.0226
-34.6096
-35.9933
-37.1938
-38.2259
-39.0974
-39.8081
-40.3488
-40.7008
-40.837
-40.7238
-40.3248
-39.6051
-38.5377
-37.1103
-35.3306
-33.2316
-30.874
-28.3464
-25.7622
-23.2497
-20.9341
-18.9153
-17.2528
-15.9284
11336.3
11168
10938.7
10591.6
10095.2
9477.47
8724.67
7824.33
6800.59
5728.02
4721.55
3888.85
3278.08
2860.51
2559.49
2299.76
2035.84
1755.74
1465.76
1172.1
882.175
611.864
379.477
197.156
67.9941
-12.8405
-55.0099
-69.8476
-67.6545
-56.4404
-41.7829
-27.2924
-15.1557
-6.47067
-1.43502
0.470831
0.277341
-0.752185
-1.79915
-2.4573
-2.70307
-2.74839
-2.84879
-3.17978
-3.80392
-4.69344
-5.77722
-6.98461
-8.2625
-9.57485
-10.9106
-12.2702
-13.6432
-15.0219
-16.4023
-17.7803
-19.1483
-20.4959
-21.8106
-23.0775
-24.2788
-25.3937
-26.3973
-27.2616
-27.9555
-28.4468
-28.7041
-28.6995
-28.413
-27.8357
-26.9741
-25.8525
-24.515
-23.0253
-21.4654
-19.9296
-18.5116
-17.2858
-16.2895
-15.4906
-4681.53
-4242.15
-3648.24
-3028.53
-2389.96
-1812.59
-1288.48
-805.394
-364.755
13.7016
306.57
508.117
633.051
702.742
736.46
750.47
758.463
769.753
787.064
805.532
817.628
816.46
797.238
757.724
697.926
620.061
528.517
428.426
326.56
229.196
141.49
66.9958
7.48568
-36.8724
-67.0968
-84.9129
-92.4161
-91.8994
-85.6472
-75.7681
-64.0029
-51.7623
-40.0774
-29.5992
-20.643
-13.2957
-7.51072
-3.16773
-0.110102
1.83297
2.83172
3.04714
2.6292
1.71389
0.421164
-1.14446
-2.89251
-4.74544
-6.63753
-8.51376
-10.3284
-12.0437
-13.6279
-15.0544
-16.3009
-17.3486
-18.1824
-18.7924
-19.1746
-19.3331
-19.2816
-19.0441
-18.6545
-18.1555
-17.5963
-17.029
-16.5019
-16.0505
-15.6882
-15.4052
-4235.72
-4252.35
-4252.5
-4224.15
-4178.77
-4147.07
-4134.82
-4125.87
-4098.26
-4037.98
-3945.66
-3832.33
-3710.47
-3585.29
-3455.54
-3317.21
-3164.97
-2993.66
-2800.55
-2584.54
-2347.78
-2095.63
-1835.95
-1577.72
-1329.5
-1098.82
-891.879
-712.984
-563.787
-443.074
-347.383
-272.165
-212.766
-165.061
-125.832
-92.8277
-64.6647
-40.6425
-20.3383
-3.60615
9.63365
19.6214
26.7602
31.4559
34.1983
35.4545
35.609
34.9453
33.6583
31.8808
29.7081
27.2159
24.4725
21.5443
18.4975
15.3974
12.3055
9.27721
6.35962
3.59033
0.997308
-1.40029
-3.59053
-5.56706
-7.32754
-8.87269
-10.2059
-11.3333
-12.2648
-13.0147
-13.6022
-14.0508
-14.3867
-14.6367
-14.826
-14.9758
-15.1021
-15.2138
-15.315
-15.4237
1012.33
826.769
591.382
340.12
38.7797
-262.632
-553.499
-824.046
-1070.19
-1296.98
-1512.05
-1720.82
-1923.06
-2114.56
-2289.25
-2440.22
-2560.09
-2640.97
-2675.16
-2656.5
-2582.45
-2455.51
-2283.05
-2075.8
-1845.61
-1604.48
-1363.38
-1131.48
-915.829
-721.188
-550.145
-403.144
-279.058
-176.159
-92.7591
-27.1991
22.2487
57.5952
81.1002
95.1395
101.985
103.629
101.679
97.4571
91.8611
85.5929
79.0829
72.5877
66.2444
60.1102
54.2008
48.5136
43.0458
37.8012
32.7929
28.0415
23.5707
19.4017
15.5489
12.017
8.80083
5.88689
3.25647
0.888604
-1.23746
-3.1411
-4.84021
-6.35182
-7.69293
-8.88094
-9.93362
-10.8684
-11.7016
-12.4473
-13.1161
-13.7154
-14.2493
-14.7211
-15.1414
-15.5369
-301.908
-81.7749
244.113
670.985
1214.37
1819
2444.29
3038.96
3558.29
3974.56
4273.3
4448.2
4500.59
4440.47
4284.72
4054.05
3770.2
3455.55
3132.46
2817.13
2522.81
2256.76
2022.68
1821.23
1650.74
1505.64
1375.63
1247.82
1112.76
969.827
826.61
691.716
572.732
472.432
390.176
323.603
270.198
227.786
194.499
168.663
148.691
133.099
120.633
110.471
101.723
93.8458
86.5406
79.6224
72.9794
66.5189
60.2715
54.201
48.3222
42.6677
37.2787
32.1998
27.4705
23.1176
19.1491
15.5538
12.3043
9.36381
6.69263
4.25457
2.01982
-0.034359
-1.9248
-3.66425
-5.26323
-6.73127
-8.07755
-9.31094
-10.4396
-11.4704
-12.409
-13.26
-14.0278
-14.72
-15.3518
-15.9385
7586.31
7600.96
7613.81
7545.88
7427.69
7315.87
7264.91
7255.14
7225.75
7130.96
6955.97
6699.53
6353.92
5913.79
5399.65
4851.02
4303.52
3783.71
3310.23
2892.58
2532.41
2225.96
1964.64
1738.92
1539.51
1356.93
1183.94
1017.88
860.709
717.948
595.408
495.758
417.33
356.297
309.303
273.552
246.055
223.699
204.006
185.62
168.082
151.459
135.962
121.343
108.104
96.2875
85.8158
76.5768
68.4163
61.1591
54.637
48.7047
43.2539
38.2162
33.5562
29.2584
25.3134
21.7068
18.4129
15.3956
12.6135
10.0261
7.59946
5.30887
3.13856
1.08011
-0.869968
-2.71248
-4.44714
-6.07363
-7.5922
-9.00386
-10.3106
-11.5151
-12.6212
-13.6331
-14.5557
-15.3961
-16.1646
-16.8668
9338.79
8992.21
8593.28
8102.62
7395.11
6518.16
5510.7
4422.77
3295.17
2143.18
963.647
-230.471
-1335.75
-2174.16
-2663.33
-2891.1
-2953.5
-2867.23
-2644.48
-2327.92
-1963.5
-1589.84
-1235.17
-915.713
-638.611
-404.464
-210.875
-55.8134
62.2945
146.959
203.384
236.953
252.367
253.547
244.114
227.438
206.419
183.382
160.104
137.86
117.435
99.2821
84.1958
71.929
61.9291
53.9254
47.6318
42.7203
38.8607
35.7454
33.1103
30.7494
28.5201
26.3393
24.1686
21.997
19.8257
17.6585
15.4966
13.339
11.1847
9.03521
6.89623
4.77754
2.692
0.653833
-1.32282
-3.22509
-5.04211
-6.76541
-8.38905
-9.90948
-11.3253
-12.6365
-13.8445
-14.9515
-15.9606
-16.8774
-17.7079
-18.4609
-10716.1
-10188.5
-9472.33
-8657.42
-7795.94
-7025.67
-6343.52
-5706.06
-5048.92
-4328.38
-3567.28
-2863.81
-2363.54
-2155.57
-2152.44
-2156.12
-2035.22
-1788.25
-1464.53
-1110.41
-767.559
-470.84
-235.485
-53.4102
90.4003
202.291
281.897
327.881
342.896
334.001
310.179
279.183
245.827
212.418
179.947
148.95
119.884
93.2243
69.4256
48.8539
31.8205
18.2787
7.33687
-0.37516
-4.90971
-6.68372
-6.21389
-4.10097
-0.981623
2.54158
5.96656
8.93572
11.2494
12.8327
13.7093
13.9491
13.6402
12.8716
11.7264
10.2811
8.6052
6.76164
4.80588
2.78578
0.741882
-1.29202
-3.2881
-5.22392
-7.08185
-8.84866
-10.5149
-12.0744
-13.5237
-14.8618
-16.0897
-17.21
-18.2269
-19.1465
-19.9743
-20.7265
-14142.3
-13105.8
-11905.8
-10821
-9669.98
-8416.04
-7049.46
-5656.28
-4329.48
-3134.66
-2126.01
-1349.93
-823.408
-492.754
-244.522
5.09694
253.098
456.573
582.657
620.618
571.629
441.423
261.595
88.1499
-41.4419
-123.815
-169.198
-192.399
-206.253
-217.379
-226.945
-234.345
-239.431
-242.649
-244.52
-245.348
-245.179
-243.801
-240.61
-234.998
-227.192
-216.465
-201.836
-183.672
-162.494
-139.17
-114.894
-91.016
-68.8163
-49.3276
-33.1114
-20.2757
-10.5675
-3.53177
1.32853
4.45514
6.20643
6.87093
6.68913
5.8659
4.57384
2.954
1.11842
-0.845273
-2.86875
-4.89876
-6.89411
-8.82363
-10.6646
-12.4016
-14.025
-15.53
-16.9156
-18.1837
-19.338
-20.3837
-21.3267
-22.1741
-22.9321
-23.6222
12703.9
12473.5
12052.2
11287.9
10134.6
8765.36
7378.14
6177.8
5281.77
4679.71
4291.25
4033.07
3839.92
3651.51
3398.28
3002.29
2409.08
1619.84
695.735
-273.834
-1212.91
-2046.33
-2634.15
-2845.07
-2716.61
-2409.75
-2052.88
-1703.4
-1387.91
-1120.61
-905.867
-741.337
-620.753
-536.261
-479.902
-443.936
-421.29
-405.928
-392.974
-378.557
-359.548
-335.076
-305.385
-270.861
-232.74
-192.981
-153.9
-117.736
-86.1947
-60.1772
-39.7544
-24.3547
-13.079
-5.0413
0.454248
3.89448
5.64423
6.03142
5.37394
3.96479
2.05197
-0.167768
-2.54373
-4.96289
-7.34294
-9.62684
-11.7782
-13.7769
-15.6146
-17.2914
-18.8127
-20.1869
-21.4238
-22.5337
-23.5268
-24.4128
-25.201
-25.9008
-26.5196
-27.0808
-888.326
-586.12
-66.4911
655.223
1517.61
2359.5
3128.04
3820.47
4426.06
4921.46
5292.6
5538.75
5664.77
5676.89
5582.51
5394.84
5134.68
4830.78
4508.42
4184.27
3872.27
3581.22
3300.19
3003.23
2680.22
2349
2035.82
1752.66
1496.88
1258.58
1026.25
791.296
553.556
322.387
111.718
-66.2953
-204.714
-302.779
-364.391
-395.43
-401.688
-388.457
-360.017
-320.097
-272.173
-220.175
-168.311
-120.222
-78.3627
-43.8913
-17.065
2.32763
15.5839
23.6217
27.1588
27.021
24.1234
19.4207
13.8016
7.97787
2.42944
-2.58179
-6.95816
-10.705
-13.8808
-16.5644
-18.8358
-20.7671
-22.419
-23.8407
-25.0713
-26.1413
-27.075
-27.8913
-28.6056
-29.2301
-29.775
-30.2495
-30.6598
-31.0292
5472.28
5205.92
4881.98
4508.39
4066.39
3593.86
3107.19
2628.39
2176.7
1759.26
1372.81
1008.4
656.245
308.896
-36.8831
-376.855
-694.31
-959.984
-1143.82
-1235.31
-1251.24
-1222.1
-1175.13
-1126.79
-1081.18
-1032.51
-973.809
-901.571
-817.489
-728.383
-644.501
-575.681
-527.272
-498.704
-484.356
-476.975
-471.308
-464.373
-454.673
-441.348
-424.363
-403.697
-379.567
-352.098
-321.61
-288.727
-254.49
-220.086
-186.393
-154.276
-125.034
-99.6782
-79.2419
-63.7042
-52.3442
-44.2655
-38.6309
-34.7754
-32.2185
-30.6208
-29.7341
-29.3679
-29.3714
-29.6258
-30.039
-30.5418
-31.0843
-31.6318
-32.1612
-32.6586
-33.1157
-33.5287
-33.8967
-34.2202
-34.5009
-34.741
-34.943
-35.11
-35.2428
-35.3618
-12497.6
-11977
-11315.6
-10608.8
-9839.9
-9074.97
-8315.43
-7572.46
-6867.84
-6225.19
-5661.98
-5186.21
-4797.86
-4491.2
-4253.81
-4062.35
-3880.49
-3668.62
-3406.78
-3109.19
-2805.42
-2515.11
-2247.23
-2006.78
-1793.08
-1603.28
-1434.95
-1288.76
-1168.91
-1079.31
-1018.42
-977.347
-944.066
-908.198
-863.405
-807.929
-743.932
-675.182
-605.563
-538.372
-475.52
-417.96
-366.007
-319.407
-277.775
-240.727
-207.906
-179.033
-153.957
-132.67
-114.741
-99.6255
-87.0594
-76.7867
-68.5406
-62.0148
-56.9582
-53.1146
-50.2386
-48.106
-46.5244
-45.34
-44.4376
-43.7352
-43.1762
-42.7222
-42.3467
-42.0311
-41.7616
-41.5273
-41.3198
-41.1321
-40.9585
-40.7945
-40.6362
-40.4808
-40.326
-40.1704
-40.0109
-39.8643
-2592.98
-2477.99
-2327.47
-2152.63
-1955.77
-1753.12
-1541.72
-1312.82
-1062.33
-802.132
-558.773
-356.935
-208.142
-113.912
-72.8329
-73.5836
-87.0388
-75.8153
-21.6164
57.2228
120.498
141.715
122.591
79.0118
27.1715
-20.5438
-57.0801
-80.844
-94.3942
-102.232
-108.593
-114.934
-122.244
-131.295
-142.354
-154.814
-167.49
-179.09
-188.548
-195.225
-198.923
-199.466
-197.002
-191.925
-184.724
-175.943
-166.118
-155.724
-145.171
-134.774
-124.774
-115.343
-106.607
-98.6483
-91.5092
-85.191
-79.6648
-74.877
-70.7575
-67.2301
-64.2112
-61.6272
-59.4092
-57.4968
-55.8385
-54.3912
-53.1197
-51.995
-50.9936
-50.0962
-49.287
-48.5527
-47.8824
-47.2666
-46.6975
-46.1684
-45.6736
-45.2081
-44.7661
-44.3594
12425.5
12161.5
11844.1
11413.6
10777.5
10001.9
9125.21
8174.86
7161.78
6085.36
4960.92
3848.92
2845.53
2026.71
1401.93
938.972
617.74
431.553
356.767
351.847
377.754
409.631
437.317
460.744
479.385
490.507
488.881
469.509
432.028
381.362
324.687
266.829
210.527
157.243
107.89
63.0656
23.1384
-11.7312
-41.5632
-66.4745
-86.6104
-102.476
-114.528
-123.153
-128.736
-131.676
-132.384
-131.265
-128.711
-125.085
-120.711
-115.869
-110.792
-105.667
-100.636
-95.8055
-91.2456
-86.9988
-83.0839
-79.5022
-76.2419
-73.2833
-70.6027
-68.1749
-65.9754
-63.9807
-62.1699
-60.5235
-59.0243
-57.6564
-56.4057
-55.2592
-54.2052
-53.2333
-52.3341
-51.4992
-50.7213
-49.9936
-49.3086
-48.6735
-1680.53
-1213.53
-647.074
-147.444
335.812
803.672
1268.58
1714.42
2122.84
2475.96
2750.83
2926.53
2998.82
2982.38
2897.92
2760.2
2578.79
2360.27
2115.19
1864.39
1634.29
1445.89
1304.72
1199.97
1111.69
1021.12
918.913
805.372
686.516
570.112
462.267
365.887
281.203
207.271
142.981
87.3271
39.4732
-1.26651
-35.4728
-63.6747
-86.3871
-104.149
-117.525
-127.087
-133.401
-136.998
-138.369
-137.949
-136.124
-133.224
-129.535
-125.296
-120.71
-115.943
-111.131
-106.38
-101.775
-97.376
-93.2231
-89.3405
-85.7381
-82.4144
-79.3595
-76.5582
-73.992
-71.6415
-69.487
-67.5104
-65.6939
-64.0218
-62.4799
-61.0549
-59.7354
-58.5107
-57.3712
-56.3086
-55.3152
-54.3836
-53.506
-52.685
1722.41
1600.28
1450.62
1284.45
1080
861.479
617.196
340.232
34.5058
-297.359
-644.652
-981.777
-1279.35
-1519.07
-1695.47
-1811.71
-1877.6
-1908.16
-1914.13
-1892.58
-1835.92
-1740.48
-1606.8
-1440.66
-1255.58
-1070.62
-902.472
-760.264
-645.942
-556.513
-486.63
-430.985
-385.571
-347.718
-315.957
-289.018
-265.893
-245.9
-228.643
-214.139
-202.255
-192.566
-184.491
-177.63
-171.593
-166.058
-160.794
-155.642
-150.506
-145.337
-140.121
-134.867
-129.605
-124.376
-119.224
-114.2
-109.348
-104.71
-100.321
-96.2038
-92.3727
-88.8296
-85.5674
-82.5716
-79.8229
-77.3
-74.9814
-72.8462
-70.8754
-69.0517
-67.3648
-65.792
-64.3264
-62.9574
-61.6755
-60.4724
-59.3408
-58.2736
-57.2631
-56.3083
-13754.7
-12907.4
-11754.5
-10355
-8667.85
-6956.24
-5422.22
-4183.96
-3261.89
-2603.49
-2130.15
-1795.59
-1582.44
-1467.49
-1417.85
-1403.76
-1403.45
-1406.74
-1412.08
-1420.45
-1432.45
-1446.7
-1459.7
-1465.96
-1459.3
-1434.97
-1390.82
-1327.01
-1246.09
-1152.83
-1053.05
-952.216
-854.245
-761.487
-675.045
-595.871
-524.811
-462.365
-408.504
-362.521
-323.696
-291.119
-263.917
-241.17
-222.053
-205.865
-192.024
-180.054
-169.567
-160.252
-151.864
-144.217
-137.174
-130.636
-124.541
-118.846
-113.529
-108.576
-103.98
-99.7384
-95.843
-92.2811
-89.0325
-86.0714
-83.3687
-80.8946
-78.6211
-76.5226
-74.5771
-72.7659
-71.0732
-69.4852
-67.9911
-66.5815
-65.2488
-63.986
-62.7874
-61.647
-60.5583
-59.5185
17822.7
17605.1
17349.5
16940.3
16249
15328.7
14215.1
12955.7
11608.9
10257.3
9014.89
7974.65
7150.76
6486.07
5906.19
5369.76
4875.62
4434.14
4040.4
3671.32
3300.54
2916.07
2527.17
2152.63
1808.62
1504.91
1245.31
1029.3
854.409
717.005
612.766
537.81
487.352
455.676
436.411
422.607
407.597
386.912
359.99
329.747
300.165
274.065
252.454
235.184
221.524
210.674
201.855
194.415
187.849
181.782
175.945
170.161
164.32
158.367
152.287
146.097
139.843
133.587
127.41
121.397
115.637
110.205
105.157
100.513
96.2534
92.3127
88.5941
84.9911
81.416
77.8209
74.2004
70.5809
66.9992
63.4914
60.0834
56.7922
53.6278
50.5891
47.6809
44.8652
-328.529
-197.897
-5.63665
239.478
522.709
818.801
1115.11
1400.97
1665.31
1898.74
2095.54
2250.84
2353.8
2390.7
2356.15
2257.98
2110.37
1925.57
1712.77
1480.74
1238.19
994.004
757.706
540.04
351.724
199.621
87.1044
13.5053
-25.901
-38.1544
-31.128
-12.9888
10.2097
33.6603
55.1172
74.1166
91.9457
110.123
128.183
144.02
155.723
162.969
166.784
168.258
168.141
166.876
164.769
162.019
158.752
155.05
150.965
146.53
141.777
136.738
131.451
125.968
120.358
114.703
109.104
103.673
98.5275
93.7765
89.5051
85.7571
82.5182
79.7088
77.1927
74.8058
72.398
69.8706
67.1822
64.3734
61.4869
58.5789
55.6956
52.8696
50.122
47.4597
44.8939
42.385
-7654.02
-7626.87
-7616.75
-7617.61
-7613.67
-7588.65
-7519.59
-7384.65
-7169.46
-6874.56
-6517.16
-6124.83
-5725.89
-5340.24
-4977.14
-4638.83
-4323.67
-4028.16
-3747.2
-3475.1
-3208.41
-2945.34
-2686.81
-2434.65
-2191.19
-1957.78
-1736.46
-1528.04
-1330.87
-1141.74
-957.995
-778.973
-606.628
-445.733
-300.968
-178.533
-83.3041
-16.2755
26.264
51.098
65.4259
74.4834
81.2736
87.0149
92.4824
97.6233
102.261
106.19
109.225
111.252
112.236
112.204
111.228
109.406
106.848
103.678
100.026
96.0356
91.8556
87.6424
83.5511
79.7243
76.277
73.2803
70.7452
68.6148
66.7703
65.0568
63.3231
61.4613
59.427
57.2339
54.9284
52.5652
50.1919
47.8427
45.5411
43.2966
41.1222
38.9742
-8591.21
-8339.58
-8043.94
-7763.37
-7457.78
-7142.64
-6795.63
-6407.94
-5987.52
-5552.27
-5122.33
-4711.16
-4321.4
-3945.51
-3571.24
-3188.45
-2794.1
-2393.23
-1996.08
-1616.39
-1268.38
-962.986
-704.474
-491.098
-318.717
-185.814
-94.5716
-45.5769
-33.7499
-50.5955
-86.2102
-127.851
-161.082
-174.41
-165.952
-139.825
-103.823
-65.5005
-29.5768
1.98456
28.6448
50.3555
67.3613
80.1886
89.3387
95.6658
99.7953
102.215
103.289
103.291
102.429
100.868
98.7429
96.1649
93.2293
90.0206
86.6185
83.1025
79.5549
76.0611
72.7065
69.5703
66.7165
64.1829
61.9711
60.0413
58.3157
56.6947
55.0812
53.4043
51.6329
49.7723
47.8507
45.9031
43.9606
42.0453
40.1729
38.3492
36.5823
34.8211
7756.95
7755.92
7775.71
7772.21
7758.92
7703.96
7591.98
7403.03
7120.74
6738.79
6258.13
5689.39
5063.51
4436.54
3870.61
3400.91
3021.58
2702.33
2411.03
2122.47
1820.49
1496.26
1147.8
780.998
409.995
57.3749
-240.978
-438.244
-509.914
-481.319
-404.572
-318.157
-237.622
-167.274
-107.774
-58.1487
-16.9304
17.0153
44.3328
65.4508
80.871
91.2908
97.5649
100.626
101.343
100.148
97.8935
95.0388
91.9086
88.7286
85.6317
82.6807
79.8899
77.2442
74.7144
72.2682
69.8777
67.5241
65.2007
62.9131
60.6778
58.518
56.4577
54.515
52.6961
50.9914
49.3761
47.8166
46.2794
44.7405
43.1898
41.6309
40.0753
38.5372
37.0283
35.5568
34.129
32.7462
31.4098
30.0618
7917.56
7788.39
7615.84
7344.33
6930.85
6373.98
5682.55
4887.95
4046.6
3220.15
2462.15
1817.29
1314.75
950.521
691.315
507.325
386.327
320.575
297.771
304.04
328.008
360.297
391.428
412.612
417.548
405.185
382.211
358.278
338.842
322.949
307.263
290.253
272.196
253.728
235.548
218.02
201.257
185.229
169.891
155.249
141.375
128.405
116.477
105.472
95.6013
87.2329
80.0757
74.0427
69.0405
64.941
61.6031
58.8834
56.6453
54.7651
53.1361
51.6712
50.3036
48.9859
47.6881
46.3954
45.1043
43.8196
42.5499
41.3045
40.0902
38.9094
37.7601
36.6373
35.5353
34.45
33.3807
32.3291
31.2989
30.2937
29.3157
28.3659
27.4465
26.5582
25.6975
24.8037
-14135.4
-13264.9
-12125.6
-10898.6
-9551.96
-8213.62
-6905.08
-5657.14
-4522.33
-3556.7
-2789.2
-2203.03
-1742.97
-1346.18
-980.327
-651.82
-380.802
-175.858
-30.3652
68.3136
132.9
174.358
201.403
220.426
235.035
246.806
255.811
260.879
260.364
253.467
240.961
224.607
206.487
188.313
170.869
154.473
139.086
124.512
110.587
97.2789
84.6938
73.0152
62.4833
53.5128
46.0661
40.1427
35.6399
32.3709
30.1073
28.6162
27.6848
27.1346
26.8259
26.6554
26.5508
26.4645
26.3666
26.2397
26.0753
25.8709
25.6283
25.3524
25.0503
24.7293
24.3962
24.0562
23.7126
23.3669
23.0197
22.6713
22.3222
21.973
21.6247
21.2779
20.9323
20.5873
20.2446
19.9073
19.5701
19.1735
3044.11
2900.27
2705.82
2460.75
2169.41
1891.75
1645.42
1416.89
1186.17
950.842
731.2
549.225
405.756
283.361
163.617
38.0546
-92.3047
-221.967
-345.147
-455.619
-547.16
-613.68
-650.342
-654.552
-626.57
-570.564
-494.057
-406.271
-316.441
-232.217
-158.697
-98.7832
-53.5565
-22.4577
-3.65627
5.47064
7.75332
5.7623
1.60135
-3.174
-7.57039
-11.1441
-13.5969
-14.8526
-15.0391
-14.365
-13.0904
-11.465
-9.68995
-7.91081
-6.21482
-4.64673
-3.21933
-1.92729
-0.755328
0.314969
1.30113
2.21788
3.07662
3.88584
4.65193
5.37988
6.07375
6.73679
7.37144
7.97916
8.56046
9.115
9.64189
10.14
10.6081
11.0453
11.4509
11.8242
12.1644
12.4703
12.7438
12.9906
13.2056
13.3345
13070.8
12738.9
12293.3
11652.1
10709.6
9563.98
8270.2
6873.7
5445.7
4111.03
3009.63
2194.7
1608.13
1167.4
832.088
586.675
411.455
281.737
175.282
75.8064
-24.297
-127.238
-231.531
-333.391
-427.827
-509.69
-574.567
-619.614
-643.709
-647.247
-632.408
-602.596
-561.608
-513.223
-460.932
-407.737
-355.994
-307.376
-262.994
-223.54
-189.314
-160.007
-135.394
-115.051
-98.4402
-84.9845
-74.0982
-65.26
-58.012
-51.9802
-46.8719
-42.4626
-38.5854
-35.1188
-31.9757
-29.0931
-26.4256
-23.9393
-21.6086
-19.4133
-17.3372
-15.3671
-13.492
-11.7028
-9.9922
-8.35491
-6.78708
-5.28638
-3.85166
-2.48264
-1.17963
0.0567967
1.226
2.32733
3.35984
4.32249
5.21697
6.05039
6.81889
7.47782
-11113.1
-10271.5
-9172.34
-8012.62
-6784.31
-5613
-4527.48
-3568.58
-2769.33
-2128.19
-1621.8
-1238.4
-982.812
-851.506
-820.495
-856.876
-930.258
-1015.23
-1092.53
-1146.86
-1169.81
-1158.19
-1114.2
-1044.54
-958.181
-864.183
-770.199
-681.56
-601.149
-529.867
-467.303
-412.361
-363.791
-320.637
-282.572
-249.222
-220.419
-196.057
-175.935
-159.589
-146.15
-134.96
-125.489
-117.296
-110.045
-103.478
-97.4131
-91.7285
-86.3459
-81.2209
-76.3285
-71.6548
-67.1911
-62.9296
-58.8618
-54.9777
-51.2663
-47.7156
-44.3142
-41.0511
-37.9166
-34.9026
-32.0024
-29.2107
-26.5235
-23.9379
-21.4519
-19.0643
-16.7746
-14.5829
-12.4897
-10.4957
-8.60158
-6.80822
-5.11654
-3.52766
-2.04048
-0.647869
0.647458
1.81416
-7268.14
-7355.85
-7503
-7688.74
-7907.47
-8121.7
-8289.78
-8369.33
-8333.18
-8178.67
-7920.33
-7577.3
-7165.2
-6694.05
-6170.2
-5598.62
-4985.29
-4340.7
-3681.8
-3037.01
-2438.99
-1913.22
-1469.41
-1103.23
-803.56
-560.808
-368.732
-222.5
-117.217
-47.2405
-6.1011
12.7186
15.0423
5.74209
-10.9861
-31.9605
-54.3862
-75.8185
-94.3979
-109.064
-119.727
-126.574
-130.043
-130.733
-129.295
-126.326
-122.332
-117.723
-112.746
-107.619
-102.466
-97.3602
-92.3434
-87.4362
-82.648
-77.982
-73.4392
-69.0194
-64.7225
-60.5483
-56.4972
-52.5694
-48.7652
-45.085
-41.5292
-38.098
-34.7917
-31.6108
-28.5557
-25.6269
-22.8252
-20.1513
-17.6059
-15.1897
-12.9036
-10.7489
-8.72511
-6.82603
-5.05406
-3.42681
4635.45
4641.86
4666.09
4689.25
4703.95
4688.18
4621.99
4491.95
4297.48
4051.19
3772.5
3480.61
3191.93
2920.65
2678.64
2473.99
2309.5
2178.02
2061.49
1939.75
1798.3
1633.62
1451.85
1262.16
1070.42
880.448
696.13
521.824
361.469
216.848
89.0082
-20.2179
-107.588
-169.668
-205.816
-219.863
-218.779
-209.711
-197.867
-186.188
-175.915
-167.123
-159.636
-153.229
-147.652
-142.654
-138.013
-133.553
-129.143
-124.698
-120.169
-115.537
-110.805
-105.987
-101.109
-96.1992
-91.2848
-86.3923
-81.5452
-76.7635
-72.0647
-67.4629
-62.9702
-58.5961
-54.3485
-50.2333
-46.2555
-42.4186
-38.7256
-35.1789
-31.7803
-28.5314
-25.4336
-22.4879
-19.6955
-17.0577
-14.5745
-12.2396
-10.0529
-8.01628
9996.02
9885.13
9760.89
9593.51
9364.21
9082.62
8744.4
8344.93
7886.42
7377.36
6826.52
6242.2
5633.28
5009.99
4382.98
3762.83
3159.7
2584.79
2048.01
1556.03
1116.1
736.456
424.06
182.674
11.5694
-95.4519
-150.704
-171.824
-176.23
-176.304
-178.434
-183.686
-189.973
-194.803
-196.879
-196.395
-194.316
-191.503
-188.342
-184.798
-180.739
-176.347
-171.776
-167.209
-162.752
-158.444
-154.235
-150.039
-145.764
-141.343
-136.741
-131.949
-126.977
-121.855
-116.615
-111.296
-105.933
-100.56
-95.2058
-89.8979
-84.659
-79.5089
-74.4642
-69.5389
-64.7442
-60.089
-55.5806
-51.2244
-47.0249
-42.9856
-39.1097
-35.3997
-31.8579
-28.4865
-25.2875
-22.2633
-19.4157
-16.7401
-14.2373
-11.9197
-7816.99
-7848.72
-7853.97
-7772.63
-7610.81
-7408.48
-7198.66
-6981.2
-6733.85
-6440.8
-6102.5
-5730.83
-5338.12
-4927.63
-4491.04
-4016.2
-3495.6
-2934.64
-2354.06
-1786.29
-1268.26
-832.265
-496.987
-262.617
-113.46
-25.9283
22.594
49.2539
63.3255
68.2125
64.818
53.9989
37.7349
18.0698
-3.1214
-24.466
-45.1758
-64.8259
-83.127
-99.8214
-114.61
-127.231
-137.633
-145.851
-152.024
-156.31
-158.387
-158.581
-157.192
-154.459
-150.662
-146.069
-140.908
-135.362
-129.572
-123.647
-117.668
-111.695
-105.769
-99.9232
-94.1793
-88.5543
-83.0609
-77.7084
-72.5039
-67.453
-62.5602
-57.8292
-53.2636
-48.8666
-44.6419
-40.5929
-36.7231
-33.036
-29.5349
-26.2232
-23.1034
-20.1704
-17.4262
-14.9019
-5579.77
-5084.56
-4428.34
-3821
-3311.95
-3022.39
-2895.46
-2834.77
-2762.49
-2642.14
-2470.27
-2257
-2018
-1771.42
-1533.4
-1313.66
-1116.15
-939.865
-779.7
-629.481
-486.216
-353.056
-237.808
-149.354
-91.4705
-61.8254
-53.9983
-60.3621
-74.4026
-91.7212
-109.962
-128.303
-147.098
-165.964
-183.828
-198.875
-210.978
-219.571
-224.386
-225.649
-223.876
-219.748
-213.994
-207.271
-200.061
-192.656
-185.653
-179.031
-173.146
-167.503
-161.821
-155.984
-149.95
-143.741
-137.417
-131.045
-124.684
-118.38
-112.162
-106.051
-100.062
-94.2047
-88.4874
-82.9163
-77.4962
-72.2308
-67.1233
-62.1764
-57.3934
-52.7781
-48.3349
-44.0693
-39.987
-36.0941
-32.3963
-28.899
-25.6048
-22.5083
-19.6122
-16.9713
8600.37
8485.5
8326.74
8076.58
7736.7
7307.9
6789.57
6190.32
5546.47
4914.09
4333.44
3809.55
3326.08
2863.12
2407.35
1953.02
1499.15
1045.13
594.67
159.453
-241.673
-589.704
-872.63
-1085.83
-1232.29
-1318.25
-1351.9
-1342.48
-1299.08
-1230.56
-1145.89
-1053.88
-961.695
-873.471
-790.575
-711.288
-634.837
-562.856
-497.682
-441.219
-394.289
-356.545
-326.819
-303.577
-285.223
-270.175
-256.932
-243.996
-230.043
-215.291
-200.381
-186.103
-173.032
-161.352
-150.934
-141.533
-132.92
-124.928
-117.444
-110.389
-103.708
-97.356
-91.2945
-85.4911
-79.9171
-74.5485
-69.3657
-64.3546
-59.5062
-54.8172
-50.2895
-45.9292
-41.7455
-37.7497
-33.9532
-30.3666
-26.9963
-23.8396
-20.9036
-18.266
-4454.06
-4441.69
-4398.02
-4331.27
-4261.91
-4296.67
-4484.04
-4799.11
-5147.62
-5410.59
-5505.65
-5421.17
-5194.18
-4871.95
-4498.6
-4115.29
-3757.12
-3445.05
-3184.15
-2964.53
-2765.69
-2566.63
-2352.64
-2116.7
-1857.07
-1577.56
-1289.33
-1008.53
-752.485
-536.874
-374.676
-273.299
-229.244
-226.453
-243.714
-265.806
-284.134
-296.127
-302.459
-304.568
-303.586
-300.18
-294.732
-287.503
-278.668
-268.286
-256.285
-242.632
-227.568
-211.628
-195.22
-179.782
-165.924
-153.766
-143.161
-133.86
-125.603
-118.176
-111.406
-105.156
-99.317
-93.7982
-88.5269
-83.4449
-78.507
-73.6795
-68.9395
-64.2743
-59.6805
-55.1638
-50.738
-46.4235
-42.2456
-38.2319
-34.4094
-30.8023
-27.4286
-24.2923
-21.3486
-18.7997
-14909.4
-14010.2
-12837
-11558
-10168.3
-8751.21
-7262.1
-5644.24
-3932.39
-2312.47
-1017.96
-154.094
335.639
555.464
579.93
463.99
264.194
33.9008
-186.408
-374.379
-524.572
-640.564
-727.129
-785.426
-813.569
-811.37
-784.436
-743.009
-697.281
-653.967
-616.112
-584.334
-557.084
-531.638
-505.134
-476.466
-445.736
-413.951
-382.285
-351.663
-322.671
-295.623
-270.661
-247.836
-227.14
-208.5
-191.746
-176.621
-162.757
-150.105
-139.419
-130.485
-123.3
-117.52
-112.691
-108.683
-104.968
-101.341
-97.7267
-94.0868
-90.4045
-86.6718
-82.8835
-79.0343
-75.1187
-71.132
-67.0723
-62.9426
-58.7533
-54.5236
-50.283
-46.0705
-41.9327
-37.9208
-34.0853
-30.4714
-27.1116
-24.0158
-21.1855
-18.7327
19465
19182.3
18711.2
17872.5
16603.2
15130
13648
12289.4
11097.3
10035.6
9041.2
8076.19
7140.49
6247.36
5404.72
4615.91
3881.95
3203.48
2577.94
1999.21
1460.4
957.763
492.733
74.0121
-281.66
-550.544
-715.053
-780.448
-774.243
-729.426
-670.308
-610.221
-554.593
-504.833
-460.604
-420.693
-384.147
-350.189
-318.26
-288.05
-259.473
-232.631
-207.769
-185.221
-165.35
-148.475
-134.761
-124.114
-116.124
-110.159
-105.612
-102.047
-99.1917
-96.8526
-94.773
-92.5102
-90.2593
-88.0125
-85.7332
-83.4003
-80.9952
-78.4994
-75.8927
-73.1539
-70.262
-67.1974
-63.9452
-60.4981
-56.8603
-53.0503
-49.103
-45.071
-41.0224
-37.0362
-33.1948
-29.5698
-26.2308
-23.1994
-20.4763
-18.1747
-1939.5
-1823.68
-1643.44
-1329.71
-890.332
-397.706
45.3618
397.335
678.199
916.898
1126.59
1303.33
1434.05
1507.49
1521.46
1485.27
1418.92
1344.84
1278.51
1227.1
1191.36
1167.88
1149.51
1121.79
1071.17
991.396
888.695
776.311
663.585
553.94
447.446
346.229
253.581
172.343
104.034
48.6256
5.29104
-27.2608
-50.5456
-66.156
-75.668
-80.5748
-82.2364
-81.8374
-80.3504
-78.5073
-76.7856
-75.4213
-74.4592
-73.8291
-73.4213
-73.1373
-72.9088
-72.6841
-72.421
-72.1126
-71.709
-71.1963
-70.561
-69.7881
-68.8625
-67.7676
-66.4841
-64.9895
-63.2582
-61.2637
-58.9815
-56.3939
-53.4946
-50.2942
-46.8231
-43.1388
-39.3243
-35.4783
-31.7129
-28.1387
-24.8473
-21.8906
-19.2861
-17.1508
39.6188
32.5993
26.5998
21.3891
16.7615
12.5576
8.6523
4.94939
1.378
-2.11219
-5.56598
-8.97258
-12.2905
-15.4404
-18.3133
-20.7446
-22.6026
-23.758
-24.1324
-23.7208
-22.5273
-20.6761
-18.3022
-15.5692
-12.659
-9.75241
-7.00691
-4.53557
-2.39449
-0.591653
0.897717
2.11306
3.09366
3.86976
4.46538
4.90941
5.22796
5.4434
5.57541
5.6425
5.66211
5.64925
5.61619
5.57253
5.52523
5.47888
5.43596
5.39724
5.36237
5.33036
5.29971
5.26875
5.23585
5.19958
5.15886
5.1129
5.06133
5.00409
4.94131
4.87326
4.80036
4.72312
4.64207
4.55772
4.47056
4.3811
4.28982
4.19725
4.10399
4.01055
3.91743
3.82554
3.73585
3.64933
3.56716
3.49051
3.42053
3.35813
3.30397
3.25824
3.2207
3.19058
3.16672
3.14768
3.13182
3.11744
3.10287
3.08659
3.06728
3.04378
3.01503
2.98009
2.9381
2.8883
2.82993
2.76221
2.68433
2.59545
2.49466
2.38086
2.25273
2.10857
1.94628
1.7632
1.55611
1.32135
1.05505
0.753425
0.41298
0.0304874
-0.397177
-0.873285
-1.40144
-1.9856
-2.62983
-3.33785
-4.11229
-4.95401
-5.86128
-6.82913
-7.84884
-8.90756
-9.9883
-11.0703
-12.1296
-13.1405
-14.0763
-14.9112
-15.621
-16.1853
-16.5876
-16.8167
-16.87
-16.7461
-16.4523
-16.0008
-15.4077
-14.6927
-13.8773
-12.9843
-12.0363
-11.055
-10.061
-9.07256
-8.10601
-7.17511
-6.2911
-5.46268
-4.69605
-3.99494
-3.36083
-2.79316
-2.28965
-1.84678
-1.46013
-1.12486
-0.835944
-0.588545
-0.378181
-0.200896
-0.0533209
0.0673493
0.163446
0.236955
0.289624
0.323036
0.338597
0.337471
0.320486
0.288082
0.240337
0.177111
0.0982683
0.00392187
-0.105358
-0.228416
-0.363453
-0.508033
-0.659106
-0.813064
-0.965835
-1.11302
-1.25008
-1.37255
-1.47621
-1.55727
-1.61251
-1.63944
-1.63642
-1.60277
-1.53876
-1.44562
-1.32558
-1.18143
-1.01734
-0.836405
-0.646341
-0.445335
-0.256658
-0.0466447
37.6453
31.1767
25.5822
20.6814
16.3019
12.3049
8.57827
5.03427
1.60641
-1.75308
-5.0733
-8.34975
-11.5453
-14.5865
-17.3607
-19.7209
-21.5367
-22.6906
-23.1031
-22.7508
-21.6618
-19.9345