/*--------------------------------*- C++ -*----------------------------------*\
| =========                 |                                                 |
| \\      /  F ield         | OpenFOAM: The Open Source CFD Toolbox           |
|  \\    /   O peration     | Version:  2012                                  |
|   \\  /    A nd           | Website:  www.openfoam.com                      |
|    \\/     M anipulation  |                                                 |
\*---------------------------------------------------------------------------*/
FoamFile
{
    version     2.0;
    format      ascii;
    class       volVectorField;
    location    "0.83";
    object      U;
}
// * * * * * * * * * * * * * * * * * * * * * * * * * * * * * * * * * * * * * //

dimensions      [0 1 -1 0 0 0 0];


internalField   nonuniform List<vector> 
42400
(
(21.5025 -20.6229 -5.20699e-17)
(62.3937 -61.8211 -7.92196e-17)
(92.562 -96.6346 8.08592e-17)
(92.8331 -103.416 0)
(63.504 -82.7231 0)
(21.7737 -50.2125 4.72321e-19)
(-15.5169 -22.1361 0)
(-38.8438 -7.61517 -3.85776e-19)
(-47.8267 -6.34938 0)
(-47.1097 -12.6563 -2.99916e-19)
(-41.4005 -20.7213 -2.64074e-19)
(-33.8809 -27.0433 2.32811e-19)
(-26.531 -30.2858 6.27984e-17)
(-20.6521 -30.5814 -6.40376e-17)
(-16.8969 -28.6225 1.47806e-19)
(-15.4869 -24.8956 0)
(-16.3796 -19.6736 0)
(-18.9777 -13.5417 0)
(-22.1983 -7.30792 0)
(-25.1487 -1.78929 0)
(-27.3251 2.4052 0)
(-28.2903 5.00209 1.90586e-19)
(-27.9802 5.922 2.37615e-17)
(-26.3943 5.38496 -4.94467e-18)
(-23.8836 3.8394 -1.91336e-17)
(-21.0002 1.82178 1.02053e-19)
(-18.2717 -0.192938 7.66554e-20)
(-15.9632 -1.88853 -1.09633e-19)
(-14.134 -3.16794 0)
(-12.7492 -4.09036 0)
(-11.7327 -4.74884 -2.94149e-19)
(-11.0025 -5.19702 2.97048e-19)
(-10.4868 -5.45162 -1.50665e-21)
(-10.1273 -5.52175 -4.16402e-19)
(-9.87512 -5.42466 4.0895e-19)
(-9.6865 -5.187 0)
(-9.52065 -4.83988 0)
(-9.33938 -4.41603 0)
(-9.10843 -3.94757 0)
(-8.80063 -3.46572 6.9682e-20)
(-8.39533 -3.00094 -6.98681e-20)
(-7.88114 -2.58054 2.98141e-19)
(-7.25717 -2.22675 1.10266e-19)
(-6.53359 -1.95464 -9.16885e-19)
(-5.73223 -1.76991 5.00891e-19)
(-4.88459 -1.66822 -6.94318e-19)
(-4.02762 -1.63625 1.49121e-18)
(-3.19732 -1.65491 -7.68813e-19)
(-2.42157 -1.70362 -3.93934e-20)
(-1.71562 -1.76536 1.02248e-18)
(-1.08123 -1.82945 -2.09074e-18)
(-0.506135 -1.88977 -1.54268e-19)
(0.0278706 -1.94471 1.21804e-18)
(0.536211 -1.99629 -1.15192e-19)
(1.0308 -2.04534 0)
(1.51796 -2.09218 0)
(1.99871 -2.13677 0)
(2.47101 -2.17947 1.25452e-19)
(2.93142 -2.22166 1.26094e-19)
(3.37654 -2.26613 0)
(3.80396 -2.31724 2.34148e-18)
(4.21276 -2.38068 -2.42606e-18)
(4.6036 -2.46295 -2.24217e-18)
(4.97849 -2.57047 2.20002e-18)
(5.34032 -2.70863 0)
(5.69206 -2.88066 0)
(6.03598 -3.08667 -1.91527e-18)
(6.3727 -3.32291 1.87236e-18)
(6.70052 -3.58133 1.95445e-19)
(7.01487 -3.84958 0)
(7.3084 -4.11141 0)
(7.57073 -4.34727 1.52867e-19)
(7.78892 -4.53522 1.37275e-19)
(7.94806 -4.65254 0)
(8.03267 -4.67898 1.06698e-19)
(8.0296 -4.60161 7.39987e-19)
(7.93269 -4.42029 -7.17807e-19)
(7.74745 -4.15164 -1.38962e-19)
(7.49047 -3.83505 -4.69061e-19)
(7.18636 -3.5484 -3.54717e-19)
(5.19945 -4.38111 0)
(8.43963 -3.56889 -5.75743e-17)
(-0.0919708 -1.49329 5.89732e-17)
(-12.8268 9.66559 0)
(-34.0331 26.1266 0)
(-59.0166 49.2687 -3.10967e-17)
(-81.7308 72.9626 3.1317e-17)
(-95.1669 89.68 3.82531e-19)
(-93.5832 92.6278 0)
(-75.2273 78.8054 2.9756e-19)
(-44.7445 52.1548 2.62353e-19)
(-12.5359 22.9718 -1.33555e-17)
(10.8299 1.38629 -8.26723e-19)
(21.1295 -9.40571 1.51927e-17)
(21.2668 -12.2961 1.66273e-17)
(16.3029 -10.8482 -1.66967e-17)
(9.50024 -7.62724 0)
(2.61512 -4.52986 3.86268e-19)
(-3.17288 -2.023 0)
(-7.66404 -0.169098 0)
(-11.0485 0.599929 0)
(-13.0578 0.294725 -5.15414e-18)
(-13.7272 -0.825716 2.11e-18)
(-13.4511 -2.5187 2.67796e-18)
(-12.649 -4.45778 0)
(-11.6721 -6.33397 -9.20202e-20)
(-10.7379 -7.91771 -7.69522e-20)
(-9.91741 -9.07948 1.09956e-19)
(-9.19648 -9.78662 1.74411e-18)
(-8.55858 -10.075 -1.76232e-18)
(-8.00325 -10.0102 3.40125e-20)
(-7.53647 -9.67678 2.20737e-20)
(-7.15604 -9.16363 1.85773e-19)
(-6.84821 -8.5453 -1.97153e-19)
(-6.58987 -7.87338 3.53082e-19)
(-6.35426 -7.17928 -3.51777e-19)
(-6.11372 -6.4819 0)
(-5.84321 -5.79355 9.46916e-21)
(-5.52493 -5.12357 0)
(-5.15037 -4.48145 1.72026e-20)
(-4.71699 -3.8794 -4.94652e-19)
(-4.2273 -3.33194 5.10665e-19)
(-3.68857 -2.85206 -2.76932e-22)
(-3.11113 -2.44914 -6.7604e-21)
(-2.50811 -2.12716 1.4803e-20)
(-1.89416 -1.88393 -2.08856e-20)
(-1.28328 -1.71175 2.75616e-20)
(-0.686167 -1.59915 2.50926e-19)
(-0.106378 -1.53266 -2.44079e-19)
(0.458054 -1.4975 0)
(1.01075 -1.48249 2.39711e-20)
(1.55624 -1.48025 1.04178e-19)
(2.09866 -1.48378 5.50365e-19)
(2.64033 -1.48602 -5.39416e-19)
(3.17932 -1.48212 -6.89911e-20)
(3.71018 -1.46917 1.47713e-18)
(4.22583 -1.44548 -1.60714e-18)
(4.71892 -1.41093 -1.25225e-19)
(5.18302 -1.36713 -1.25857e-19)
(5.61355 -1.31769 1.67762e-18)
(6.00833 -1.26818 -1.65071e-18)
(6.36784 -1.22598 1.23995e-19)
(6.69514 -1.19983 8.59926e-20)
(6.99539 -1.19909 0)
(7.27503 -1.23274 -1.44663e-18)
(7.54065 -1.30821 9.85285e-21)
(7.79767 -1.4301 1.70404e-18)
(8.04902 -1.59921 0)
(8.2942 -1.81193 -3.46899e-19)
(8.52889 -2.06013 1.43746e-19)
(8.74515 -2.33148 1.18434e-18)
(8.93208 -2.60972 -1.30642e-18)
(9.07611 -2.87477 -1.10735e-18)
(9.1611 -3.1028 1.04593e-18)
(9.16907 -3.26771 -1.97912e-19)
(9.08311 -3.34515 6.64439e-19)
(8.89357 -3.31939 -5.00881e-19)
(8.60532 -3.19102 1.3885e-19)
(8.23927 -2.98553 -5.69278e-19)
(7.82538 -2.77119 4.45657e-19)
(6.74116 -7.93546 -5.07528e-17)
(20.0167 -20.6106 1.81645e-19)
(30.0774 -27.5235 1.82223e-19)
(34.015 -30.4078 2.06287e-19)
(34.9705 -29.1256 0)
(33.0819 -25.3995 -1.3218e-16)
(29.319 -19.4844 2.57284e-16)
(24.7329 -11.5046 -1.24919e-16)
(19.8456 -2.46366 9.64636e-17)
(15.0989 6.29827 -1.63091e-17)
(10.7476 13.0345 -8.3376e-17)
(6.95572 16.3482 -2.96381e-19)
(3.55875 16.0165 -2.67598e-19)
(0.0777087 13.1876 4.61357e-17)
(-3.91248 9.61495 -4.71309e-17)
(-8.54191 6.60736 -2.36625e-19)
(-13.5606 4.76398 -3.4813e-17)
(-18.5256 4.24961 4.53812e-18)
(-22.9749 4.60989 3.04381e-17)
(-26.3381 5.09453 2.97098e-19)
(-27.995 5.34331 -2.60082e-19)
(-27.867 5.29093 -2.22462e-19)
(-26.3321 4.96943 0)
(-23.8167 4.41491 1.09208e-19)
(-20.635 3.58093 5.9081e-19)
(-17.0047 2.40326 2.0531e-19)
(-13.1281 0.903262 -7.24962e-19)
(-9.26542 -0.779867 1.50463e-18)
(-5.74008 -2.42836 -1.52468e-18)
(-2.86497 -3.81698 -1.04464e-18)
(-0.842185 -4.78992 1.87239e-18)
(0.302334 -5.31438 -3.42355e-19)
(0.719811 -5.47794 -4.8669e-19)
(0.664933 -5.43225 0)
(0.397966 -5.3144 0)
(0.109825 -5.19976 7.00923e-21)
(-0.0970664 -5.09953 0)
(-0.185133 -4.98133 -4.43892e-20)
(-0.157298 -4.80393 5.15583e-20)
(-0.0385109 -4.54369 -1.91371e-19)
(0.141303 -4.19869 4.79591e-20)
(0.360344 -3.78835 0)
(0.606015 -3.34508 0)
(0.87368 -2.90559 8.56001e-20)
(1.16451 -2.5012 -8.64606e-20)
(1.48184 -2.15247 -1.3771e-20)
(1.82937 -1.86754 0)
(2.2099 -1.64455 0)
(2.62595 -1.47577 2.16011e-19)
(3.07611 -1.35105 -2.1487e-19)
(3.5574 -1.25721 -2.39285e-20)
(4.06582 -1.18171 0)
(4.59053 -1.11604 -3.54232e-19)
(5.11938 -1.05275 3.34867e-19)
(5.63959 -0.986229 -7.21717e-19)
(6.13852 -0.91271 8.27323e-19)
(6.60463 -0.830467 -8.19729e-19)
(7.02868 -0.739599 1.82721e-18)
(7.40443 -0.641911 -1.9168e-18)
(7.72917 -0.540806 -5.34902e-20)
(8.00385 -0.441163 1.00902e-18)
(8.23296 -0.349192 1.08493e-18)
(8.42401 -0.272192 -1.15141e-18)
(8.58669 -0.218156 0)
(8.7316 -0.195148 9.4619e-19)
(8.86863 -0.210428 1.45894e-20)
(9.00525 -0.26944 -1.35916e-18)
(9.14497 -0.374853 0)
(9.28651 -0.525923 2.59413e-19)
(9.42384 -0.718372 8.25904e-19)
(9.54733 -0.94469 -8.4563e-19)
(9.64505 -1.19445 0)
(9.70339 -1.45411 0)
(9.70661 -1.70625 -1.02145e-19)
(9.6365 -1.92929 9.12637e-20)
(9.47506 -2.09936 4.38752e-19)
(9.21123 -2.19564 -7.0397e-19)
(8.8495 -2.20842 0)
(8.41411 -2.1481 1.14736e-19)
(7.95669 -2.05026 4.06456e-19)
(22.8953 -17.2746 4.08327e-17)
(70.3388 -46.5832 -5.69785e-17)
(92.5972 -66.5414 2.73298e-17)
(86.1042 -59.0862 1.8837e-17)
(61.1379 -42.5303 -1.97146e-17)
(37.5699 -26.699 0)
(20.5509 -16.3896 1.59733e-17)
(8.43177 -10.3316 -1.60246e-17)
(-2.34226 -5.87024 2.83218e-18)
(-14.5961 -0.887376 -2.89368e-18)
(-28.5867 5.11294 -7.2862e-18)
(-41.9683 10.815 1.6514e-17)
(-52.2524 14.5739 -2.15923e-17)
(-58.5987 15.802 2.44635e-17)
(-61.352 14.8724 -2.61225e-17)
(-61.0986 12.4085 1.32245e-17)
(-58.4002 9.01574 1.46681e-17)
(-53.9098 5.23349 -2.89153e-17)
(-48.1708 1.47641 1.50284e-17)
(-41.6701 -1.94591 -3.03169e-19)
(-34.874 -4.82055 5.02886e-19)
(-28.2082 -7.0229 1.63491e-17)
(-22.0147 -8.50989 -1.65637e-17)
(-16.5187 -9.31835 -1.5527e-19)
(-11.8535 -9.54107 0)
(-8.09675 -9.29874 -1.01379e-19)
(-5.28895 -8.71418 0)
(-3.4068 -7.91064 -8.33364e-18)
(-2.35562 -6.99927 2.20797e-18)
(-1.96426 -6.05035 6.18315e-18)
(-2.0144 -5.10929 2.37435e-18)
(-2.27236 -4.21473 -2.38463e-18)
(-2.51924 -3.40842 -7.13437e-20)
(-2.57891 -2.73752 -7.35655e-20)
(-2.34017 -2.24605 -1.78359e-18)
(-1.76725 -1.95517 1.86294e-18)
(-0.899084 -1.84813 0)
(0.159114 -1.87228 2.16604e-18)
(1.25866 -1.95746 -2.14245e-18)
(2.25703 -2.03141 5.92238e-20)
(3.04564 -2.03577 -4.13098e-20)
(3.58279 -1.93777 0)
(3.88888 -1.74158 0)
(4.0294 -1.48054 0)
(4.08781 -1.19977 1.03538e-20)
(4.14203 -0.940054 2.68868e-19)
(4.25003 -0.727931 -2.54618e-19)
(4.44442 -0.573807 0)
(4.73462 -0.47476 0)
(5.11221 -0.41925 -5.59426e-20)
(5.55776 -0.391574 3.12751e-20)
(6.04677 -0.376616 -6.74924e-20)
(6.55293 -0.361859 4.32557e-20)
(7.05126 -0.33839 -3.39327e-20)
(7.52005 -0.300994 -3.53821e-20)
(7.94217 -0.2479 3.49977e-20)
(8.30566 -0.180178 -1.71732e-19)
(8.60406 -0.101046 1.75802e-19)
(8.83635 -0.0151621 0)
(9.00652 0.0719786 -6.6588e-21)
(9.12286 0.154521 -4.75825e-19)
(9.19687 0.226559 -5.15331e-20)
(9.24194 0.28232 1.13893e-18)
(9.27172 0.316293 -1.18474e-18)
(9.29841 0.323398 5.61541e-19)
(9.3311 0.299297 6.88315e-19)
(9.37442 0.240829 -4.95128e-19)
(9.4279 0.146495 -6.98235e-20)
(9.48632 0.0168143 -7.33975e-19)
(9.54099 -0.145566 6.80659e-19)
(9.58157 -0.335956 -1.70522e-19)
(9.59719 -0.547636 -7.02732e-19)
(9.5762 -0.771462 6.16473e-19)
(9.50471 -0.995195 0)
(9.36665 -1.20338 -5.35346e-19)
(9.14766 -1.37884 1.5513e-19)
(8.84287 -1.50613 1.07789e-18)
(8.46404 -1.57629 -4.5985e-19)
(8.04121 -1.59126 4.25518e-19)
(7.62375 -1.56645 -4.16219e-19)
(4.30025 -3.27009 1.91318e-17)
(4.33664 -5.38584 0)
(-6.31339 -3.19593 0)
(-19.7916 0.603977 3.06264e-19)
(-32.5154 4.33939 0)
(-44.3359 8.78507 0)
(-55.0058 13.5816 0)
(-63.8258 17.986 1.11283e-21)
(-69.6947 21.181 0)
(-71.6995 22.6686 -3.31478e-19)
(-69.6449 22.4657 6.30223e-17)
(-64.0462 20.9815 -1.2689e-16)
(-55.7679 18.7291 6.39255e-17)
(-45.6936 16.0536 0)
(-34.602 13.1084 -1.86493e-19)
(-23.0351 9.94186 -2.23e-19)
(-11.3828 6.5973 0)
(-0.00428644 3.14728 5.38092e-17)
(10.7069 -0.310783 -1.06526e-16)
(20.3542 -3.6192 3.56501e-18)
(28.546 -6.55232 4.80912e-17)
(34.9458 -8.89999 1.99056e-19)
(39.2966 -10.4744 0)
(41.4514 -11.1167 -2.93718e-17)
(41.4245 -10.7714 3.09489e-17)
(39.465 -9.54835 -2.11578e-17)
(36.0521 -7.72129 2.18421e-17)
(31.8319 -5.65742 1.40052e-17)
(27.4746 -3.713 -1.41368e-17)
(23.4871 -2.12189 0)
(20.1319 -0.9535 -7.02198e-18)
(17.4541 -0.160626 7.09591e-18)
(15.3715 0.352279 7.40488e-20)
(13.766 0.678956 -3.32168e-18)
(12.5179 0.88588 3.42309e-18)
(11.5184 1.01577 -2.13365e-20)
(10.6625 1.09415 -1.57866e-20)
(9.85387 1.13109 -7.34509e-19)
(9.02286 1.12562 7.38409e-19)
(8.15767 1.07771 -3.5771e-20)
(7.28721 0.984883 -2.41477e-19)
(6.4683 0.843708 4.48284e-19)
(5.76569 0.655863 0)
(5.23839 0.432807 -9.84629e-20)
(4.92102 0.189426 7.44404e-19)
(4.82173 -0.0581606 -1.81036e-18)
(4.92577 -0.294732 1.72595e-18)
(5.20252 -0.507125 -7.75697e-19)
(5.61207 -0.684808 0)
(6.11073 -0.820337 -6.92137e-20)
(6.65552 -0.909187 6.43127e-19)
(7.20711 -0.949728 -6.76651e-19)
(7.73181 -0.943203 -5.95202e-20)
(8.20288 -0.893607 4.15346e-19)
(8.60129 -0.807353 -3.61848e-19)
(8.91611 -0.692753 3.17129e-19)
(9.14439 -0.559346 2.25727e-19)
(9.29039 -0.417147 -4.88359e-19)
(9.36445 -0.27587 2.19629e-19)
(9.38125 -0.144253 -2.09695e-19)
(9.35779 -0.0295647 0)
(9.31117 0.062631 -1.75984e-20)
(9.25655 0.128457 -2.09434e-19)
(9.20547 0.165492 1.52298e-19)
(9.16487 0.172449 7.96558e-20)
(9.13679 0.148858 0)
(9.11898 0.0948742 3.7668e-19)
(9.10617 0.0112246 -3.2937e-19)
(9.09174 -0.100722 -7.12178e-20)
(9.06928 -0.238763 -4.84084e-20)
(9.03315 -0.399491 1.21637e-19)
(8.97733 -0.577628 1.71737e-20)
(8.89319 -0.765215 -5.28085e-19)
(8.76845 -0.951227 4.61776e-19)
(8.58988 -1.12245 -5.40182e-20)
(8.35023 -1.26591 0)
(8.05549 -1.37196 -5.56932e-19)
(7.72722 -1.4365 4.28341e-19)
(7.39825 -1.46126 0)
(7.1027 -1.45994 -4.15982e-19)
(4.00009 -2.50155 4.09313e-19)
(5.74106 -6.85831 6.22012e-18)
(2.95178 -3.34979 -3.24297e-18)
(-4.21427 -1.24423 4.53762e-18)
(-9.73233 2.39285 -1.38148e-18)
(-15.2547 5.67831 -8.96362e-20)
(-19.3377 8.12292 5.29138e-18)
(-20.3915 9.24248 -5.5973e-18)
(-18.459 9.36785 1.53332e-19)
(-14.7154 9.44728 5.04262e-19)
(-10.1288 10.0471 -1.29198e-17)
(-5.19543 11.2844 -1.69676e-17)
(-0.355983 13.1002 3.10552e-17)
(4.02452 15.382 -3.80568e-17)
(7.70884 17.9705 8.0789e-17)
(10.5928 20.6727 -4.19687e-17)
(12.6409 23.287 0)
(13.8836 25.61 0)
(14.3878 27.4436 5.1134e-17)
(14.23 28.6205 -9.57969e-20)
(13.489 29.0153 -5.11914e-17)
(12.2693 28.6206 4.70817e-17)
(10.6381 27.4488 -9.18661e-17)
(8.70835 25.6515 4.41358e-17)
(6.60079 23.4252 3.5444e-17)
(4.48531 21.0402 -5.09675e-18)
(2.56382 18.8047 -3.2245e-17)
(1.03459 16.9687 -1.97666e-20)
(0.0603271 15.6037 3.39089e-20)
(-0.316772 14.6133 -8.67034e-20)
(-0.207868 13.8413 0)
(0.191538 13.1565 7.91256e-18)
(0.689408 12.4431 -1.32635e-17)
(1.16691 11.6233 5.31807e-18)
(1.56168 10.6628 0)
(1.83278 9.57915 -1.12253e-19)
(1.9483 8.43541 8.41509e-20)
(1.89327 7.29808 0)
(1.69838 6.21739 0)
(1.4455 5.20993 2.35421e-18)
(1.24359 4.26649 -2.39814e-18)
(1.19042 3.37201 8.65826e-20)
(1.34347 2.51978 0)
(1.71581 1.71648 -2.22026e-18)
(2.28329 0.977311 2.41553e-19)
(3.00366 0.319643 2.26363e-18)
(3.82834 -0.242548 1.26302e-19)
(4.70927 -0.701838 -1.97442e-19)
(5.60136 -1.05582 0)
(6.464 -1.30613 1.44755e-18)
(7.26228 -1.45821 -2.6233e-18)
(7.96729 -1.52037 1.29814e-18)
(8.55752 -1.50402 9.94789e-20)
(9.02008 -1.42299 9.12009e-19)
(9.35116 -1.29296 -1.86977e-19)
(9.55591 -1.1306 -1.28712e-18)
(9.64744 -0.952506 4.61003e-19)
(9.64507 -0.774058 0)
(9.57185 -0.60835 0)
(9.45174 -0.465364 -3.73172e-20)
(9.30685 -0.351554 -2.81148e-20)
(9.15515 -0.269963 0)
(9.00914 -0.220808 -8.65774e-20)
(8.87556 -0.202386 9.04531e-20)
(8.75616 -0.212065 -1.07317e-19)
(8.6493 -0.247108 -7.76788e-20)
(8.55188 -0.30519 1.15313e-19)
(8.46103 -0.38455 -2.6037e-19)
(8.37494 -0.483778 2.54351e-19)
(8.29238 -0.601267 1.39052e-20)
(8.21083 -0.73436 3.08066e-19)
(8.12421 -0.878398 -2.97244e-19)
(8.02238 -1.02612 -3.41824e-19)
(7.89404 -1.16797 4.32035e-19)
(7.73265 -1.2935 -3.61096e-19)
(7.54176 -1.39352 4.03143e-19)
(7.33594 -1.46196 -4.22378e-19)
(7.1363 -1.49648 8.31594e-19)
(6.963 -1.49982 1.1179e-20)
(6.82739 -1.49014 1.00704e-20)
(5.71993 -3.09593 1.35255e-18)
(10.5089 -2.48641 -1.96102e-20)
(6.446 1.53477 3.15596e-18)
(0.944107 10.8176 -9.83112e-18)
(-6.39683 20.6534 6.77932e-18)
(-14.7708 32.1978 -1.56337e-17)
(-20.4516 42.2611 -5.30297e-18)
(-19.1826 47.966 2.05725e-17)
(-10.542 49.0295 -3.0633e-17)
(2.06784 47.4085 2.96066e-17)
(14.785 45.2234 -3.607e-17)
(25.4378 43.5676 3.6084e-17)
(33.2498 42.6917 -3.85155e-17)
(38.0636 42.4952 3.90936e-17)
(40.0546 42.767 -1.39386e-19)
(39.6042 43.3588 -1.1472e-19)
(37.1231 44.2671 -6.69122e-17)
(32.9924 45.4948 6.80174e-17)
(27.6231 46.9682 6.82965e-20)
(21.442 48.526 -8.66198e-19)
(14.8456 49.9272 -4.79473e-17)
(8.22092 50.9687 4.71947e-17)
(1.96543 51.3818 0)
(-3.37214 50.8995 5.74138e-19)
(-7.10931 49.1226 0)
(-8.54669 45.6541 0)
(-7.46327 40.3684 4.31554e-19)
(-4.54741 33.7457 2.54885e-17)
(-1.13793 26.7956 -2.62383e-17)
(1.54116 20.5061 -2.01142e-17)
(2.89515 15.4115 2.04399e-17)
(2.94972 11.5639 -1.03597e-19)
(2.08577 8.7385 1.06489e-19)
(0.790596 6.67805 0)
(-0.530619 5.14168 2.5814e-19)
(-1.62395 3.94415 0)
(-2.37019 2.96095 0)
(-2.75158 2.11325 1.70099e-19)
(-2.79637 1.36323 0)
(-2.54381 0.690497 0)
(-2.02952 0.0819248 -3.44522e-18)
(-1.28771 -0.473923 3.27271e-18)
(-0.358034 -0.98682 0)
(0.718238 -1.45164 0)
(1.89779 -1.8633 0)
(3.13102 -2.22018 1.45566e-19)
(4.36926 -2.51526 -1.26495e-19)
(5.56722 -2.73952 -1.74389e-18)
(6.6828 -2.88554 1.85155e-18)
(7.6773 -2.95132 -1.53023e-18)
(8.51924 -2.93805 1.69226e-18)
(9.18691 -2.85029 -1.52861e-19)
(9.66842 -2.69894 -6.75147e-20)
(9.96391 -2.49838 0)
(10.0855 -2.26513 0)
(10.0557 -2.01671 5.95648e-19)
(9.90515 -1.77004 -3.06091e-20)
(9.66886 -1.53995 -5.65202e-19)
(9.38281 -1.33796 3.82461e-19)
(9.07996 -1.1715 -3.81381e-19)
(8.78694 -1.04363 -4.35244e-19)
(8.52205 -0.953512 1.17836e-19)
(8.29478 -0.897385 5.39938e-19)
(8.1071 -0.869868 -2.22274e-19)
(7.95584 -0.865308 -6.39458e-21)
(7.83554 -0.878814 7.71197e-21)
(7.74061 -0.906797 1.05713e-19)
(7.66626 -0.94698 -2.68823e-19)
(7.60797 -0.99793 1.6163e-19)
(7.56022 -1.05829 3.45865e-20)
(7.51554 -1.126 3.00133e-19)
(7.46526 -1.19776 -3.30942e-19)
(7.40233 -1.26902 0)
(7.32481 -1.33445 -4.76516e-20)
(7.23747 -1.38858 0)
(7.14974 -1.42664 4.1017e-19)
(7.07151 -1.44508 2.13188e-20)
(7.00945 -1.44214 -4.06408e-19)
(6.96476 -1.42111 3.20569e-19)
(6.93317 -1.3966 1.24588e-19)
(11.7249 -7.69755 3.40227e-17)
(31.1822 -19.0415 -5.12116e-17)
(45.2446 -32.6282 -4.37588e-19)
(60.6933 -44.1387 -5.30615e-17)
(70.7551 -52.062 5.44078e-17)
(73.3522 -53.3847 -5.47112e-17)
(71.6375 -50.8802 1.11624e-16)
(69.1728 -47.3797 -5.60789e-17)
(67.2839 -43.7803 5.79931e-17)
(65.6851 -39.6221 -5.78163e-17)
(63.5133 -33.8822 0)
(59.6778 -25.7678 3.09826e-19)
(53.2393 -15.5173 3.38624e-19)
(44.046 -5.00585 0)
(33.4858 3.00956 0)
(23.7508 7.05957 0)
(15.9354 8.24672 0)
(9.77043 8.28005 -6.7694e-20)
(4.64898 8.13696 0)
(0.141924 8.29507 2.73855e-17)
(-4.04551 9.00337 -2.61302e-17)
(-8.11966 10.3652 -4.14656e-17)
(-12.1808 12.3848 4.2744e-17)
(-16.2137 14.9547 3.33024e-17)
(-20.0572 17.85 -3.44532e-17)
(-23.3843 20.7082 2.69198e-17)
(-25.7705 23.0277 -2.76749e-17)
(-26.8899 24.2564 2.0612e-17)
(-26.6932 24.2191 -3.29254e-18)
(-25.4707 23.11 -1.75483e-17)
(-23.581 21.2375 0)
(-21.2743 18.8718 -2.60199e-19)
(-18.6842 16.2087 -2.40519e-19)
(-15.9287 13.5064 0)
(-13.2331 10.9977 -2.56439e-19)
(-10.8387 8.81586 0)
(-8.85843 6.97579 0)
(-7.24304 5.42139 -5.31374e-18)
(-5.8515 4.07591 9.75258e-18)
(-4.54173 2.87311 -4.73846e-18)
(-3.21781 1.77158 -3.79303e-18)
(-1.83059 0.757027 3.91325e-18)
(-0.366023 -0.167327 8.43409e-20)
(1.15089 -1.00463 0)
(2.68133 -1.75145 -2.63972e-18)
(4.18865 -2.3863 2.36057e-18)
(5.62774 -2.89724 0)
(6.94927 -3.28037 0)
(8.10634 -3.53639 1.49159e-18)
(9.05911 -3.67119 -1.63759e-18)
(9.77912 -3.69581 -1.39179e-18)
(10.2537 -3.62624 1.30752e-18)
(10.4874 -3.4818 1.03015e-18)
(10.5018 -3.28354 -1.79417e-18)
(10.3329 -3.05247 8.31916e-19)
(10.0268 -2.80801 1.61348e-19)
(9.63482 -2.56675 0)
(9.20779 -2.34157 -5.49666e-20)
(8.79044 -2.14107 3.26306e-19)
(8.41682 -1.96935 -6.30014e-19)
(8.10751 -1.82642 2.99717e-19)
(7.86941 -1.70913 0)
(7.69818 -1.61263 1.84348e-20)
(7.58249 -1.53182 0)
(7.50842 -1.46257 6.40152e-21)
(7.46286 -1.40225 2.10761e-21)
(7.4351 -1.34978 -5.21623e-21)
(7.41691 -1.30515 -1.32659e-19)
(7.40189 -1.26879 1.08018e-19)
(7.38513 -1.24094 -2.84595e-20)
(7.36357 -1.22124 -2.86526e-19)
(7.33697 -1.20852 3.57496e-19)
(7.30815 -1.2009 -3.57454e-19)
(7.28176 -1.19588 3.47619e-19)
(7.26163 -1.19063 -4.5767e-19)
(7.24855 -1.1825 3.40851e-19)
(7.23995 -1.16938 4.36774e-19)
(7.23142 -1.15029 -4.23378e-19)
(7.21787 -1.12772 1.07927e-19)
(7.194 -1.10824 -1.10012e-19)
(-31.4592 13.236 -4.18186e-17)
(-68.7849 23.414 -5.91019e-17)
(-72.9149 19.0576 1.1822e-16)
(-62.6201 0.462168 -1.13051e-16)
(-51.2718 -16.3835 5.56203e-17)
(-40.1353 -33.4079 3.96033e-19)
(-28.9489 -49.8964 -3.72429e-17)
(-16.0188 -66.0928 6.7611e-17)
(1.38291 -83.1039 -9.00797e-18)
(25.7641 -101.635 -2.17718e-17)
(56.8431 -121.555 -1.65948e-19)
(86.6381 -138.594 -6.04149e-18)
(96.9689 -141.24 6.27771e-18)
(73.4873 -121.055 -2.10974e-17)
(28.911 -88.9932 2.15949e-17)
(-6.7577 -63.9756 2.67347e-17)
(-21.5553 -50.3137 -2.73346e-17)
(-23.9456 -43.0509 6.84069e-20)
(-22.4534 -38.5927 0)
(-20.3059 -35.0002 -2.15857e-17)
(-18.7056 -31.5169 2.16812e-17)
(-17.9297 -28.1211 3.30029e-19)
(-17.6623 -24.8881 1.1211e-17)
(-17.5393 -21.717 -1.15266e-17)
(-17.4708 -18.3688 2.41939e-19)
(-17.5278 -14.7462 0)
(-17.7363 -10.9409 1.21564e-20)
(-18.1415 -7.16276 2.13726e-19)
(-18.7253 -3.56684 2.25962e-18)
(-19.2201 -0.398413 -2.35578e-18)
(-19.2024 2.0006 -5.0344e-18)
(-18.4323 3.47586 5.25535e-18)
(-17.0203 4.10858 6.25259e-20)
(-15.2898 4.14375 6.02937e-18)
(-13.5414 3.81545 -1.15016e-17)
(-11.9191 3.28043 5.63745e-18)
(-10.4231 2.63069 4.56962e-18)
(-8.97736 1.91767 -4.71903e-18)
(-7.49659 1.17047 5.11146e-20)
(-5.92329 0.408213 7.11985e-20)
(-4.23855 -0.359671 -1.09213e-19)
(-2.45856 -1.12777 2.25374e-18)
(-0.608093 -1.86146 -4.21034e-19)
(1.28511 -2.52021 -1.92073e-18)
(3.16386 -3.09182 1.5547e-18)
(4.9591 -3.57241 -1.42197e-18)
(6.60337 -3.95181 0)
(8.03319 -4.22149 -1.02438e-18)
(9.19506 -4.37963 1.07194e-18)
(10.053 -4.43172 -7.5841e-19)
(10.5943 -4.38995 1.25745e-19)
(10.8325 -4.27123 5.46831e-20)
(10.805 -4.09481 5.2099e-20)
(10.5677 -3.87964 5.09383e-20)
(10.1871 -3.6426 5.85785e-19)
(9.73139 -3.39734 -4.76932e-20)
(9.26255 -3.15417 0)
(8.82986 -2.92016 4.26203e-19)
(8.46591 -2.69946 -3.19299e-19)
(8.18532 -2.49369 0)
(7.98684 -2.30256 2.43047e-19)
(7.85783 -2.12479 -1.92193e-19)
(7.78012 -1.95889 0)
(7.73516 -1.80387 9.57943e-21)
(7.7075 -1.65943 0)
(7.68631 -1.5259 -1.44793e-20)
(7.66518 -1.40398 9.78048e-20)
(7.6413 -1.29439 -8.40391e-20)
(7.61453 -1.19761 2.15587e-20)
(7.58661 -1.11374 2.84632e-20)
(7.56036 -1.04239 -3.15953e-19)
(7.53857 -0.982816 2.67948e-19)
(7.52257 -0.933963 -5.09174e-20)
(7.51112 -0.894691 -5.47934e-20)
(7.50052 -0.863909 1.09196e-19)
(7.4859 -0.840628 5.37299e-20)
(7.46306 -0.823835 5.41141e-19)
(7.42981 -0.812589 2.47293e-20)
(7.38562 -0.806891 -5.38022e-19)
(7.33044 -0.806184 -1.313e-19)
(-40.3924 18.4667 0)
(-88.5147 43.9346 -3.14768e-20)
(-104.157 49.7951 -5.74729e-19)
(-96.9523 52.6561 -5.72511e-17)
(-87.7374 52.1292 1.11372e-16)
(-78.0921 53.4287 -1.03076e-16)
(-67.4743 54.2389 4.95734e-17)
(-52.574 52.5974 0)
(-31.7776 47.9406 1.05727e-19)
(-6.4326 40.1151 -3.11972e-17)
(22.5581 28.5313 3.20962e-17)
(56.833 11.7701 2.16497e-17)
(94.4572 -9.96161 -4.15399e-17)
(119.647 -26.851 7.49656e-19)
(115.086 -26.0525 -1.97248e-21)
(87.59 -10.7049 1.93924e-17)
(59.2763 5.64159 1.28953e-19)
(41.4919 16.4116 -1.53814e-17)
(32.0168 22.5698 1.55961e-17)
(25.4322 26.439 2.62711e-19)
(18.5423 29.075 1.52116e-20)
(10.8731 30.3724 -3.20229e-19)
(3.98157 29.8199 -1.49319e-18)
(-0.40529 27.296 1.84642e-18)
(-2.3705 23.6204 -2.65101e-19)
(-3.41751 20.0212 -1.3091e-20)
(-4.76971 17.2061 3.30414e-18)
(-6.77311 15.2463 -7.07082e-18)
(-9.21374 13.9357 7.56856e-18)
(-11.6288 13.04 -3.79517e-18)
(-13.5498 12.3176 0)
(-14.7136 11.5495 6.15327e-18)
(-15.1143 10.6304 -1.12831e-17)
(-14.9033 9.56249 5.22111e-18)
(-14.2524 8.39425 -3.9276e-18)
(-13.2789 7.17283 3.89692e-18)
(-12.0402 5.93128 1.22561e-19)
(-10.5584 4.69108 0)
(-8.84549 3.46711 1.52128e-19)
(-6.92173 2.27282 9.87114e-19)
(-4.81981 1.1304 -9.90422e-19)
(-2.57964 0.063544 -7.59481e-20)
(-0.275583 -0.929464 7.46323e-20)
(2.00883 -1.8457 0)
(4.19962 -2.64571 0)
(6.21398 -3.30037 4.64454e-20)
(7.96763 -3.7966 -2.50331e-19)
(9.38939 -4.13207 2.94107e-20)
(10.4328 -4.31573 1.82334e-20)
(11.0853 -4.36665 -8.48599e-20)
(11.3721 -4.31089 1.21738e-19)
(11.3522 -4.17615 0)
(11.1071 -3.98721 -2.84753e-19)
(10.7255 -3.76342 2.8172e-19)
(10.2888 -3.51854 0)
(9.86066 -3.26193 -3.42251e-19)
(9.48266 -3.00061 3.12722e-19)
(9.17482 -2.74069 -2.75377e-19)
(8.93979 -2.48767 2.46151e-19)
(8.76817 -2.24633 0)
(8.64422 -2.02032 -4.40676e-20)
(8.5508 -1.81205 -2.07581e-20)
(8.473 -1.62279 7.87308e-20)
(8.40016 -1.45287 -5.07453e-20)
(8.32632 -1.30196 -3.53729e-20)
(8.24955 -1.16928 0)
(8.17079 -1.05377 5.48515e-21)
(8.09249 -0.954225 0)
(8.01748 -0.869412 0)
(7.94787 -0.798168 -3.42877e-19)
(7.88433 -0.739478 3.34288e-19)
(7.82568 -0.692519 3.72579e-19)
(7.76928 -0.656641 9.66332e-20)
(7.71192 -0.631251 -3.9731e-19)
(7.6511 -0.615628 -5.73411e-19)
(7.5859 -0.608721 5.00451e-19)
(7.51716 -0.609029 -6.2341e-20)
(7.44688 -0.614788 -5.53013e-19)
(7.37715 -0.624347 1.23097e-18)
(7.30915 -0.635307 -4.14061e-19)
(-16.0417 8.90556 1.24497e-16)
(-38.6317 32.1619 -9.21355e-17)
(-31.9347 33.048 -7.82954e-17)
(17.8346 29.3218 8.03525e-17)
(63.4829 24.3573 4.97413e-19)
(87.8442 29.2262 4.5043e-19)
(97.6143 38.1654 0)
(102.268 47.0228 3.91172e-17)
(106.219 54.293 -3.9947e-17)
(110.256 59.4641 0)
(114.654 62.121 -1.45039e-17)
(119.526 61.7996 2.40043e-17)
(123.482 58.5927 -3.48901e-18)
(123.079 54.7136 -8.83703e-18)
(115.726 53.1892 3.28869e-18)
(103.179 54.3939 1.51345e-19)
(88.9025 56.9261 -3.17452e-19)
(73.9056 59.8362 0)
(57.4934 62.553 -5.61506e-18)
(38.968 64.8664 5.77997e-18)
(17.5249 66.3987 3.40476e-20)
(-6.55157 66.2149 -3.52139e-18)
(-28.21 63.1288 3.76916e-18)
(-40.0991 56.0958 -2.45997e-19)
(-40.8139 46.2554 2.47884e-19)
(-35.9193 36.4759 1.30921e-20)
(-31.0861 28.4942 1.93904e-18)
(-28.2277 22.4124 2.04566e-19)
(-26.726 17.7547 -4.30345e-18)
(-25.5533 14.0701 -3.73539e-19)
(-24.1889 11.0545 2.33489e-18)
(-22.5648 8.53616 2.73544e-18)
(-20.7706 6.42709 -2.91981e-18)
(-18.8804 4.67117 0)
(-16.9243 3.21579 2.39537e-20)
(-14.8918 2.01008 3.60234e-20)
(-12.7571 1.00324 0)
(-10.4972 0.154724 5.86381e-18)
(-8.09297 -0.563577 -5.9565e-18)
(-5.5471 -1.16763 -7.10086e-20)
(-2.90591 -1.69285 0)
(-0.235758 -2.18063 7.59663e-20)
(2.39892 -2.61783 4.85689e-18)
(4.92095 -2.97659 -4.73729e-18)
(7.23728 -3.24788 0)
(9.25446 -3.42199 -2.87775e-18)
(10.8884 -3.4914 3.20088e-18)
(12.0795 -3.45743 0)
(12.8091 -3.33263 0)
(13.1098 -3.14114 -3.52595e-20)
(13.0619 -2.91287 -2.03331e-20)
(12.7755 -2.67321 0)
(12.365 -2.43774 1.68324e-19)
(11.9218 -2.2107 -1.66321e-19)
(11.5019 -1.98908 6.64091e-20)
(11.1269 -1.76937 5.01689e-20)
(10.7964 -1.55221 -2.68296e-19)
(10.5006 -1.34296 2.97564e-19)
(10.2295 -1.14925 1.4407e-20)
(9.97542 -0.977889 -1.23086e-19)
(9.7338 -0.83292 1.75976e-20)
(9.50229 -0.71524 0)
(9.28023 -0.623287 0)
(9.06831 -0.55407 3.72574e-20)
(8.86806 -0.504065 -4.91961e-20)
(8.68129 -0.469806 0)
(8.50948 -0.44821 2.22039e-20)
(8.35327 -0.436699 0)
(8.21212 -0.433213 2.09279e-19)
(8.08437 -0.43615 -2.04233e-19)
(7.96762 -0.444247 7.09625e-20)
(7.85941 -0.456439 6.04149e-19)
(7.75796 -0.471704 -5.31476e-19)
(7.66254 -0.488952 8.11386e-20)
(7.57352 -0.506992 0)
(7.49186 -0.524604 0)
(7.4185 -0.540642 0)
(7.35376 -0.554271 -7.22796e-19)
(7.29715 -0.565072 -9.33336e-20)
(7.24743 -0.573056 1.2667e-18)
(23.4652 -9.49529 -5.68737e-17)
(55.4096 -22.8461 -8.23663e-17)
(78.7715 -28.8047 8.40996e-17)
(92.8917 -36.7529 -7.50996e-17)
(100.841 -43.409 7.70937e-17)
(96.9031 -49.5358 3.18036e-19)
(84.8192 -54.1355 3.06687e-19)
(70.3817 -57.6306 0)
(56.7683 -61.624 -2.88853e-20)
(44.7425 -66.7645 0)
(34.2064 -72.7337 3.01095e-19)
(24.8863 -79.1228 3.25232e-17)
(16.4122 -85.8448 -3.27724e-17)
(8.24056 -92.7215 -2.98654e-17)
(-0.400648 -99.2315 2.98026e-17)
(-10.656 -104.64 -2.32365e-17)
(-23.4816 -107.974 2.50069e-17)
(-39.134 -108.316 0)
(-57.3334 -105.19 0)
(-78.1774 -98.1462 0)
(-103.666 -87.2385 -1.61032e-17)
(-131.914 -72.8578 3.96119e-17)
(-147.646 -57.4222 3.9075e-18)
(-137.154 -47.6007 -5.73068e-17)
(-109.41 -45.3142 2.94111e-17)
(-83.2204 -44.3121 0)
(-66.1794 -40.4777 2.90575e-21)
(-56.0177 -34.7538 0)
(-49.2127 -28.6254 -1.43185e-17)
(-43.8407 -22.7015 1.4451e-17)
(-39.1296 -17.2106 2.23348e-19)
(-34.7746 -12.2685 0)
(-30.5978 -7.90634 6.87856e-18)
(-26.5357 -4.15208 -1.27622e-17)
(-22.5126 -0.982311 6.0583e-18)
(-18.4936 1.63197 -5.13096e-18)
(-14.493 3.73405 1.00927e-17)
(-10.551 5.37597 -4.95686e-18)
(-6.70346 6.60821 0)
(-2.99817 7.45816 0)
(0.528517 7.97528 0)
(3.84928 8.23755 3.88554e-18)
(6.91773 8.29169 -1.10831e-17)
(9.67452 8.15415 7.00334e-18)
(12.0567 7.85694 0)
(13.9954 7.44655 -4.33875e-18)
(15.4204 6.9676 4.20499e-18)
(16.2857 6.46044 2.46723e-18)
(16.5996 5.95398 -8.16971e-19)
(16.4389 5.45831 -5.57153e-19)
(15.9386 4.969 -4.2763e-19)
(15.2565 4.477 -7.61718e-19)
(14.5315 3.97876 0)
(13.8471 3.48584 0)
(13.2239 3.0184 2.96144e-20)
(12.6453 2.59472 -6.511e-20)
(12.0878 2.22232 0)
(11.5407 1.89669 0)
(11.0095 1.60697 -1.31755e-20)
(10.5085 1.34283 -1.33133e-20)
(10.0512 1.09824 0)
(9.64488 0.87147 0)
(9.29045 0.663175 -1.22423e-20)
(8.98439 0.474563 -1.98144e-20)
(8.72121 0.306286 1.8064e-19)
(8.495 0.158133 -3.72241e-19)
(8.3002 0.0291372 -6.16996e-20)
(8.13185 -0.0821496 5.10429e-19)
(7.98568 -0.177374 -6.08641e-19)
(7.85823 -0.258161 6.1142e-19)
(7.74694 -0.325965 -9.33483e-20)
(7.65006 -0.38201 -3.28289e-19)
(7.56638 -0.427306 7.20448e-19)
(7.49489 -0.462742 5.29152e-20)
(7.43438 -0.489202 -1.45602e-18)
(7.38331 -0.507667 8.2185e-19)
(7.33984 -0.519222 0)
(7.30198 -0.525133 1.84312e-19)
(7.26789 -0.526758 0)
(7.23602 -0.525827 -7.33981e-19)
(22.2627 -6.82946 0)
(63.2085 -15.7605 -6.08455e-20)
(89.111 -25.0826 6.49768e-20)
(80.4067 -20.1741 7.64666e-18)
(41.0522 -9.65492 -2.21985e-17)
(-1.97886 1.68866 1.42332e-17)
(-32.0895 9.4123 -3.13208e-19)
(-49.3072 13.2974 0)
(-59.5246 14.6298 0)
(-66.2719 14.559 0)
(-70.6816 13.6419 -3.14712e-19)
(-73.1259 12.0404 -1.01661e-19)
(-73.8137 9.8598 0)
(-72.9169 7.26584 -2.1036e-19)
(-70.4979 4.37315 2.46539e-19)
(-66.6615 1.51928 -5.03216e-17)
(-61.5119 -0.812108 5.00123e-17)
(-54.9592 -2.34334 2.9337e-19)
(-46.8428 -3.25384 0)
(-37.373 -3.64268 -2.30346e-19)
(-27.4373 -2.98512 2.10583e-19)
(-18.2178 -0.47717 -3.54692e-17)
(-10.0028 3.60951 2.82892e-18)
(-2.3342 7.5931 3.31392e-17)
(4.58954 10.2525 -6.03727e-21)
(9.93396 11.8049 -1.10228e-19)
(13.3972 12.934 2.06781e-17)
(15.498 14.0324 -2.05193e-17)