/*--------------------------------*- C++ -*----------------------------------*\
| =========                 |                                                 |
| \\      /  F ield         | OpenFOAM: The Open Source CFD Toolbox           |
|  \\    /   O peration     | Version:  2012                                  |
|   \\  /    A nd           | Website:  www.openfoam.com                      |
|    \\/     M anipulation  |                                                 |
\*---------------------------------------------------------------------------*/
FoamFile
{
    version     2.0;
    format      ascii;
    class       volScalarField;
    location    "0.19";
    object      p;
}
// * * * * * * * * * * * * * * * * * * * * * * * * * * * * * * * * * * * * * //

dimensions      [0 2 -2 0 0 0 0];


internalField   nonuniform List<scalar> 
42400
(
9476.76
9308.82
9070.13
8713.83
8228.23
7668.92
7082.4
6506.07
5955.54
5427.27
4914.6
4414.66
3928.65
3458.23
3003.59
2565.4
2147.88
1759.58
1410.1
1104.71
840.621
608.398
397.339
199.815
13.229
-160.149
-315.133
-445.027
-543.811
-607.947
-635.124
-627.951
-592.214
-536.047
-468.282
-396.805
-327.733
-265.144
-211.086
-165.919
-128.899
-98.8204
-74.4634
-54.7911
-38.9561
-26.2517
-16.069
-7.90759
-1.40187
3.67462
7.49867
10.5506
13.0884
15.0555
16.6549
18.0494
19.3527
20.6424
21.9564
23.2934
24.6199
25.8709
26.9823
27.8945
28.5676
28.9869
29.1614
29.1179
28.8927
28.5252
28.0531
27.5098
26.9234
26.3169
25.7089
25.1152
24.552
24.0416
23.6178
23.3385
1683.13
1801.25
1946.44
2088.23
2274.17
2522.02
2809.55
3069.39
3243.2
3305.33
3259.68
3126.29
2932.7
2707.18
2471.19
2237.51
2014.61
1809.84
1628.6
1472.14
1336.96
1215.8
1099.05
975.674
836.056
677.871
509.043
344.152
197.315
77.2628
-15.6573
-82.8823
-127.582
-153.902
-166.209
-168.663
-164.782
-157.09
-147.017
-135.142
-121.674
-106.888
-91.3117
-75.6588
-60.6346
-46.7808
-34.4295
-23.739
-14.7476
-7.41194
-1.61543
2.90062
6.12583
8.57304
10.4942
12.1144
13.6484
15.2522
17.0044
18.9037
20.884
22.8413
24.6634
26.2565
27.5618
28.5603
29.2665
29.7164
29.9548
30.027
29.9736
29.8289
29.6207
29.3708
29.0962
28.812
28.5331
28.2777
28.061
27.9158
-3491.98
-3402.36
-3307.09
-3200.7
-3060.18
-2875.08
-2640.16
-2376.59
-2118.38
-1894.6
-1728.96
-1633.01
-1601.07
-1614.16
-1653.87
-1700.86
-1729.04
-1718.4
-1667.09
-1584.07
-1474.61
-1335.63
-1163.08
-963.121
-757.525
-574.295
-431.207
-327.134
-251.544
-195.024
-150.981
-116.235
-88.7468
-66.9491
-49.6046
-35.7617
-24.7671
-16.2076
-9.7695
-5.13372
-1.9508
0.165193
1.60311
2.70178
3.69874
4.71225
5.75363
6.76847
7.68042
8.42792
8.98647
9.37753
9.65506
9.91426
10.3027
10.9677
12.0268
13.5342
15.4607
17.7003
20.0963
22.4772
24.6911
26.6312
28.2461
29.5329
30.5217
31.2576
31.7876
32.1541
32.3929
32.5328
32.5962
32.6
32.5573
32.4795
32.3789
32.2698
32.1625
32.0795
-6476.05
-6313.13
-6106.76
-5850.85
-5554.8
-5245.36
-4926.58
-4579.87
-4175.73
-3695.87
-3144.01
-2542.29
-1924.23
-1344.68
-883.226
-587.67
-429.035
-344.305
-293.718
-265.257
-255.135
-257.897
-269.398
-286.662
-303.514
-311.835
-306.58
-288.715
-262.06
-230.831
-198.336
-166.897
-138.036
-112.637
-91.0595
-73.2276
-58.8119
-47.3359
-38.2372
-30.9452
-24.9689
-19.9035
-15.4423
-11.3813
-7.61315
-4.11301
-0.913664
1.92445
4.34503
6.32342
7.88253
9.09655
10.163
11.1981
12.3512
13.7617
15.5038
17.5716
19.8851
22.314
24.7096
26.9379
28.905
30.568
31.9293
33.0212
33.8878
34.5717
35.1083
35.525
35.8429
36.0776
36.2409
36.3411
36.385
36.3796
36.3337
36.2584
36.1582
36.0527
6514.02
6269.81
5955.26
5544.1
4968.68
4299.32
3580.35
2845.55
2122.92
1439.24
822.049
295.976
-116.51
-400.324
-556.572
-627.859
-687.459
-766.181
-833.679
-862.173
-851.32
-806.974
-738.584
-660.822
-585.444
-517.97
-459.829
-410.968
-370.799
-337.916
-310.54
-287.03
-265.854
-245.396
-224.577
-202.845
-180.534
-158.151
-136.247
-115.307
-95.6855
-77.6029
-61.1822
-46.4736
-33.4801
-22.1733
-12.5008
-4.3876
2.26803
7.61982
11.8924
15.2876
17.9746
20.2563
22.3253
24.3159
26.2962
28.2674
30.1827
31.9737
33.5766
34.9522
36.0936
37.023
37.7789
38.4018
38.9239
39.3648
39.7342
40.0362
40.2732
40.4474
40.5606
40.6154
40.6149
40.5637
40.4689
40.3389
40.1744
39.9985
6412.56
6276.58
6035.31
5710.49
5400.28
5174.04
4978.38
4756.17
4505.56
4235.24
3940.41
3619.89
3279.57
2923.97
2549.45
2158.1
1771.39
1417.96
1111.17
845.45
609.44
394.109
196.905
19.6276
-135.67
-266.656
-370.539
-444.646
-487.906
-501.173
-488.093
-454.659
-408.047
-354.858
-300.784
-248.977
-201.854
-160.448
-124.935
-94.9663
-69.9371
-49.1678
-31.9949
-17.8189
-6.13363
3.46977
11.3383
17.7507
22.7057
26.6814
29.8453
32.3962
34.5086
36.3183
37.9223
39.3745
40.6883
41.8474
42.8221
43.5888
44.1464
44.5219
44.7642
44.9272
45.0529
45.1635
45.2645
45.3515
45.417
45.4542
45.4584
45.4267
45.357
45.2486
45.1018
44.9184
44.7024
44.4582
44.1821
43.9011
-5595.9
-5100.77
-4500.86
-3930.22
-3325.05
-2790.05
-2342.57
-1970.02
-1658.59
-1402.58
-1190.54
-1010.84
-860.225
-737.881
-635.642
-537.904
-426.641
-292.314
-138.738
19.7236
166.452
288.832
379.634
437.416
464.699
466.103
447.438
414.536
372.562
325.375
276.285
228.272
183.867
144.243
110.067
81.8909
59.7283
43.1793
31.6787
24.5058
20.8515
19.8878
20.8719
23.3036
26.6587
30.4043
34.1556
37.692
41.1195
44.1106
46.655
48.7934
50.5597
51.9819
53.074
53.8376
54.2776
54.4202
54.3215
54.0581
53.7092
53.3343
52.9682
52.625
52.3073
52.0117
51.7335
51.4675
51.2085
50.9518
50.6919
50.4243
50.1447
49.8496
49.5365
49.2041
48.8528
48.4825
48.0866
47.6946
-4318.29
-4257.37
-4179.07
-4065.32
-3903.34
-3729.8
-3545.58
-3326.07
-3056.79
-2753.22
-2447.3
-2173.54
-1960.46
-1814.42
-1706.7
-1586.53
-1416.71
-1196.46
-952.585
-719.391
-521.087
-367.286
-256.186
-178.89
-123.893
-80.9194
-42.0261
-3.26935
33.2937
62.3147
80.4443
88.3703
88.9369
85.0907
79.0914
72.7709
67.2049
63.1012
60.6246
59.6402
59.8916
61.0991
62.9597
64.9273
66.8282
68.613
70.1657
71.3905
72.2441
72.7038
72.7698
72.4643
71.831
70.934
69.8514
68.6633
67.4376
66.2212
65.0397
63.9053
62.8265
61.8116
60.8681
59.9997
59.2054
58.4801
57.8164
57.206
56.6403
56.1113
55.6105
55.1302
54.6627
54.2012
53.7397
53.2733
52.7992
52.3135
51.807
51.311
7098.65
6912.02
6640.56
6276.09
5841.85
5408.11
4996.7
4613.07
4268.6
3968.08
3696.38
3426.52
3133.67
2810.94
2472.01
2137.96
1822.4
1528.88
1252.81
985.923
723.053
464.042
214.804
-11.5927
-200.555
-347.924
-458.784
-531.842
-557.542
-534.58
-475.7
-397.67
-313.267
-231.923
-159.722
-99.2337
-49.6275
-9.54853
22.1943
46.7167
65.0974
78.3864
87.5643
93.6322
97.27
99.0262
99.3697
98.6785
97.2509
95.3231
93.079
90.6592
88.1657
85.6681
83.211
80.8255
78.5371
76.37
74.3452
72.4755
70.7642
69.2058
67.7897
66.5033
65.3338
64.2693
63.2983
62.4102
61.5944
60.8406
60.1388
59.4791
58.8517
58.2473
57.6573
57.0741
56.4917
55.9033
55.298
54.7072
-6730.47
-6351.42
-5892.03
-5454.07
-5015.73
-4610.13
-4213.96
-3818.68
-3421.55
-3013.61
-2585.2
-2141.52
-1711.42
-1341.11
-1076.13
-938.085
-905.564
-923.513
-934.761
-901.672
-810.143
-663.668
-475.5
-261.552
-38.1366
175.371
356.827
490.567
575.037
617.912
626.347
604.444
557.212
494.963
428.861
368.303
318.525
280.194
251.226
228.902
210.989
196
183.032
171.547
161.213
151.819
143.227
135.34
128.09
121.425
115.306
109.703
104.589
99.9426
95.7364
91.9412
88.5236
85.4484
82.6807
80.1877
77.9398
75.9103
74.0751
72.413
70.9046
69.5329
68.283
67.1416
66.0965
65.1366
64.2508
63.4281
62.6573
61.9268
61.2253
60.5422
59.8683
59.1933
58.5043
57.8319
-1765.42
-1851.15
-1966.33
-2103.64
-2271.83
-2441.25
-2581.62
-2673.38
-2721.68
-2743.22
-2741.35
-2681.42
-2497.49
-2147.01
-1681.53
-1222.95
-868.291
-639.989
-509.02
-437.134
-396.881
-370.995
-346.77
-313.353
-262.972
-193.687
-110.135
-20.4845
66.5138
145.474
212.976
267.327
307.712
333.553
345.158
344.676
335.493
320.848
302.931
282.803
261.831
241.126
221.433
203.254
186.851
172.278
159.458
148.239
138.441
129.882
122.394
115.827
110.053
104.961
100.456
96.4577
92.8985
89.7212
86.8773
84.3257
82.0305
79.9598
78.0852
76.3811
74.8249
73.3969
72.0808
70.8635
69.7347
68.6858
67.7092
66.7972
65.9413
65.1316
64.3571
63.6066
62.869
62.132
61.381
60.6453
4596.8
4626.94
4659.76
4665.62
4658.26
4652.48
4665.14
4672.47
4600.41
4356.97
3888.66
3248.96
2606.86
2119.06
1778.46
1473.14
1159.88
880.427
668.391
524.324
440.337
406.968
410.865
436.833
472.177
508.935
542.46
568.935
585.584
590.815
584.128
565.855
536.804
498.247
452.436
402.858
353.453
307.623
267.656
234.603
207.647
185.768
168.201
154.192
143.025
134.068
126.796
120.79
115.731
111.381
107.572
104.18
101.12
98.3293
95.7616
93.3849
91.1767
89.1213
87.2067
85.4219
83.755
82.1924
80.7189
79.3194
77.98
76.6898
75.4423
74.2353
73.0704
71.9518
70.8846
69.8724
68.9159
68.0119
67.1529
66.3284
65.5258
64.73
63.9239
63.1326
5656.62
5587.85
5478.3
5292.33
5020.92
4738.42
4508.78
4353.01
4251.55
4178.47
4115.2
4042.53
3938.3
3793.09
3607.42
3377.07
3104.63
2808.19
2508.62
2222.08
1959.45
1726.51
1523.75
1345.06
1181.42
1023.88
865.626
706.883
552.118
408.833
285.139
186.919
116.302
71.8165
49.4006
43.5196
48.087
57.2498
66.4517
73.3968
77.74
79.7966
80.6762
81.1904
81.8608
82.8636
84.1192
85.4462
86.6708
87.6803
88.4265
88.9054
89.1344
89.1378
88.9407
88.5691
88.0493
87.4076
86.6675
85.8485
84.9643
84.0236
83.0306
81.9873
80.8955
79.7592
78.5857
77.3867
76.1776
74.9766
73.8024
72.6716
71.596
70.5807
69.6234
68.7151
67.8418
66.9855
66.1264
65.2822
2758.82
2562.67
2299.91
2003.24
1659.4
1384.3
1210.44
1114.73
1057.87
1012.27
963.993
908.624
847.983
787.727
735.477
698.193
679.721
678.779
690.384
707.869
722.692
723.635
700.261
650.08
579.63
500.569
424.513
357.386
301.684
257.9
225.015
200.74
182.135
166.337
151.173
135.35
118.58
101.429
84.8183
70.0738
58.5734
51.2565
47.9461
48.2325
51.2708
56.0123
61.4855
66.9292
71.8531
76.028
79.4199
82.0993
84.1662
85.7125
86.8134
87.5329
87.9293
88.0563
87.9604
87.6781
87.2352
86.6484
85.928
85.0815
84.1163
83.0419
81.8723
80.6258
79.3259
77.9997
76.6761
75.3828
74.1432
72.9725
71.8757
70.8476
69.8742
68.9349
68.0067
67.0976
-9858.48
-9576.87
-9245.94
-8889.02
-8504.38
-8105.53
-7663.1
-7137.05
-6499.02
-5752.17
-4932.52
-4102.29
-3333.86
-2683.35
-2171.83
-1789.55
-1511.92
-1310.98
-1160.35
-1038.79
-932.122
-834.266
-745.249
-667.168
-600.531
-542.822
-489.836
-437.838
-384.758
-330.495
-275.983
-222.769
-172.73
-127.648
-88.7681
-56.487
-30.5445
-10.1658
5.86691
18.7043
29.4444
39.1249
48.3768
57.3758
66.0052
73.945
80.8534
86.4782
90.704
93.5743
95.2894
96.1381
96.3926
96.2567
95.8681
95.3189
94.6717
93.9682
93.2305
92.4621
91.6522
90.782
89.832
88.7875
87.6408
86.3929
85.0525
83.6355
82.164
80.6645
79.1671
77.7021
76.2972
74.973
73.7394
72.5935
71.5209
70.4989
69.5017
68.5268
879.725
795.667
658.642
465.525
223.85
-26.8349
-262.328
-475.657
-677.288
-883.777
-1105.75
-1344.53
-1590.96
-1826.19
-2028.02
-2177.6
-2262.69
-2278.54
-2228.81
-2125.71
-1986.98
-1829.39
-1662.99
-1491.56
-1317.39
-1143.58
-973.356
-810.258
-657.722
-518.418
-394.416
-286.952
-196.433
-122.401
-64.1228
-19.9672
12.2342
34.9198
50.43
60.7264
67.3889
71.7228
74.7468
77.2722
79.9038
82.9086
86.1397
89.46
92.6667
95.4557
97.7547
99.5761
100.91
101.738
102.069
101.946
101.441
100.635
99.6048
98.4128
97.0997
95.691
94.2025
92.6463
91.0339
89.3775
87.69
85.9856
84.2797
82.5893
80.9338
79.3344
77.812
76.3836
75.0575
73.8302
72.6862
71.6009
70.5472
69.5141
2234.04
2361.39
2554.6
2773.37
2999.99
3196.26
3349.52
3449.56
3493.29
3487.18
3441.1
3365.88
3271.99
3169.27
3066.64
2971.16
2883.18
2791.62
2675.21
2515.76
2312.87
2081.93
1841.71
1603.84
1372.52
1149.94
938.994
743.259
566.331
410.98
278.846
170.354
84.8148
20.5211
-24.2744
-52.1115
-65.9859
-68.225
-60.7424
-45.6105
-25.2043
-2.03115
21.8573
44.8012
65.6267
83.7182
98.9393
111.203
120.508
127.055
131.341
133.605
134.027
132.873
130.477
127.189
123.338
119.209
115.027
110.951
107.083
103.475
100.147
97.0934
94.2967
91.732
89.3714
87.1873
85.1551
83.2552
81.4746
79.8076
78.254
76.8153
75.4894
74.266
73.1249
72.0384
70.9778
69.9267
3824.18
3713.95
3580.66
3408.33
3165.71
2890.33
2605.27
2322.2
2046.94
1784.15
1537.56
1310.45
1105.57
924.548
764.351
610.293
436.743
216.181
-58.8314
-358.999
-628.71
-816.427
-904.792
-908.221
-853.556
-765.621
-662.572
-556.103
-453.289
-358.434
-273.682
-198.804
-131.505
-69.4165
-11.0986
42.1169
86.7945
119.767
140.127
149.371
150.447
146.751
141.15
135.749
131.789
129.687
129.264
130.046
131.411
132.941
134.007
134.253
133.517
131.783
129.145
125.776
121.899
117.745
113.522
109.396
105.48
101.839
98.4964
95.4517
92.686
90.1721
87.8798
85.7792
83.8439
82.0522
80.3887
78.8439
77.4133
76.0936
74.8788
73.755
72.6999
71.6846
70.6801
69.6668
-4809.12
-5069.48
-5346.06
-5553.78
-5739.89
-5859.59
-5925.56
-5949.8
-5934.98
-5883.89
-5797.47
-5670.16
-5486.71
-5227.6
-4881.18
-4451.37
-3964.2
-3456.24
-2947.05
-2426
-1874.62
-1302.76
-753.65
-278.595
89.9526
346.131
503.179
581.941
602.917
583.232
537.579
478.724
417.928
364.231
320.689
286.735
260.415
239.737
223.103
209.186
196.946
185.817
175.679
166.616
158.728
152.052
146.468
141.735
137.7
134.157
130.911
127.807
124.727
121.617
118.445
115.221
111.976
108.749
105.584
102.517
99.5765
96.7795
94.1363
91.6501
89.3193
87.1391
85.1027
83.2026
81.4316
79.7837
78.2551
76.8436
75.5479
74.3649
73.2864
72.2964
71.3702
70.4769
69.5854
68.6712
-4260.85
-3275.77
-2020.15
-863.538
200.918
1020.9
1635.5
2082.75
2385.98
2574.05
2688.19
2768.43
2837.16
2897.34
2943.81
2968.62
2965.02
2928.22
2857.85
2758.43
2635.56
2492.41
2330.61
2153.14
1964
1766.63
1562.66
1355.7
1153.09
963.634
793.179
645.252
521.505
421.547
343.329
282.716
235.385
198.037
168.548
145.596
128.283
115.844
107.525
102.559
100.096
99.2129
99.1333
99.3395
99.5597
99.6812
99.6638
99.4851
99.1243
98.564
97.7985
96.8336
95.6878
94.3889
92.969
91.4611
89.8958
88.2993
86.6926
85.092
83.5098
81.9559
80.4388
78.9669
77.5496
76.1969
74.9203
73.7308
72.6375
71.6447
70.7495
69.939
69.1899
68.4714
67.7494
66.994
-9395.55
-9178.67
-8887.65
-8507.18
-8030.08
-7494.36
-6929.13
-6358.48
-5797.45
-5251.69
-4720.69
-4200.99
-3691.86
-3197.34
-2724.66
-2282.04
-1878.88
-1528.14
-1242.9
-1028.68
-879.419
-784.035
-731.784
-713.218
-719.324
-741.116
-770.009
-798.505
-820.651
-832.126
-830.543
-815.381
-787.9
-749.252
-701.151
-646.635
-589.489
-533.38
-481.243
-434.862
-394.827
-360.837
-332.136
-307.897
-287.426
-270.208
-255.868
-244.084
-234.503
-226.684
-220.181
-214.681
-209.455
-204.219
-198.848
-193.3
-187.599
-181.805
-175.997
-170.251
-164.631
-159.174
-153.897
-148.796
-143.853
-139.044
-134.352
-129.767
-125.291
-120.933
-116.705
-112.621
-108.686
-104.903
-101.272
-97.7874
-94.4435
-91.2296
-88.1386
-85.1549
4892.58
4881.49
4875.91
4841.04
4768.56
4639.68
4455.14
4228.1
3979.94
3734.48
3513.35
3334.8
3212.3
3150.37
3140.5
3152.97
3133.32
3022.65
2796.43
2480.03
2122.92
1764.34
1425.77
1114.94
832.957
579.344
353.749
156.024
-14.1046
-157.227
-274.324
-366.656
-435.705
-483.598
-512.767
-526.487
-527.919
-520.252
-506.453
-488.881
-469.123
-448.094
-426.293
-404.042
-381.687
-359.673
-338.539
-318.883
-301.115
-285.4
-271.594
-259.431
-248.526
-238.528
-229.167
-220.266
-211.732
-203.53
-195.656
-188.116
-180.907
-174.014
-167.408
-161.05
-154.899
-148.92
-143.094
-137.42
-131.918
-126.62
-121.556
-116.748
-112.203
-107.917
-103.878
-100.066
-96.4649
-93.0502
-89.8065
-86.6954
9907.99
9781.58
9606.08
9297.37
8813.83
8148.14
7334.47
6437.94
5528.67
4655.78
3843.55
3098.95
2420.12
1804.03
1245.66
735.641
262.745
-179.713
-584.021
-927.807
-1187.18
-1350.17
-1422.89
-1424.55
-1378.04
-1303.35
-1215.6
-1125.43
-1039.66
-961.944
-893.671
-834.688
-783.661
-738.633
-698.208
-660.783
-625.625
-592.354
-560.819
-530.924
-502.537
-475.503
-449.692
-425.049
-401.6
-379.437
-358.673
-339.484
-321.855
-305.781
-291.202
-277.914
-265.749
-254.546
-244.161
-234.469
-225.367
-216.767
-208.594
-200.773
-193.233
-185.906
-178.733
-171.663
-164.666
-157.735
-150.889
-144.192
-137.694
-131.468
-125.583
-120.075
-114.954
-110.206
-105.804
-101.716
-97.9092
-94.3439
-90.9939
-87.7872
-12200.5
-11716
-11129.2
-10632
-10214.9
-9931.8
-9698.81
-9439.23
-9126.24
-8760.49
-8339.66
-7857.86
-7314.94
-6717.52
-6079.18
-5423.43
-4785.23
-4197.83
-3679.12
-3231.56
-2851.39
-2531.83
-2265.36
-2043.09
-1856.02
-1696.83
-1559.68
-1438.56
-1326.59
-1217.74
-1110.67
-1009.3
-917.959
-838.762
-771.095
-712.618
-661.155
-615.303
-574.124
-536.931
-503.175
-472.402
-444.24
-418.392
-394.665
-372.861
-352.858
-334.493
-317.745
-302.513
-288.692
-276.162
-264.791
-254.441
-244.972
-236.244
-228.115
-220.453
-213.128
-206.024
-199.035
-192.07
-185.056
-177.944
-170.717
-163.394
-156.034
-148.714
-141.561
-134.7
-128.226
-122.202
-116.652
-111.566
-106.914
-102.652
-98.7372
-95.1189
-91.7544
-88.5337
-10118.4
-9901.5
-9603.02
-9226.26
-8741.21
-8199.35
-7618.72
-7012.17
-6391.77
-5773.42
-5174.29
-4606.32
-4072.12
-3570.39
-3106.11
-2692.61
-2344.02
-2064.24
-1844.62
-1669.34
-1524.63
-1401.48
-1294.04
-1199.27
-1117.55
-1051.05
-999.917
-959.554
-921.992
-881.481
-835.154
-784.033
-731.804
-681.395
-634.272
-590.915
-551.426
-515.798
-483.891
-455.429
-430.028
-407.239
-386.686
-368.16
-351.1
-335.333
-320.749
-307.264
-294.807
-283.31
-272.691
-262.864
-253.732
-245.201
-237.183
-229.595
-222.361
-215.409
-208.666
-202.062
-195.52
-188.969
-182.34
-175.586
-168.681
-161.64
-154.517
-147.402
-140.417
-133.684
-127.313
-121.38
-115.918
-110.929
-106.388
-102.257
-98.4939
-95.0441
-91.848
-88.7717
13029.2
12883.2
12632.3
12186.2
11567.2
10845.8
10077.1
9289.65
8493.03
7685.49
6857.79
5990.75
5054.4
4038.39
3010.84
2119.47
1477.67
1083.39
846.637
678.753
533.556
396.503
266.325
145.144
35.159
-60.65
-137.606
-191.061
-219.699
-226.244
-219.509
-210.381
-207.752
-214.956
-230.347
-249.869
-269.281
-285.533
-297.146
-303.948
-306.535
-305.779
-302.467
-297.141
-290.645
-283.486
-276.014
-268.473
-261.014
-253.723
-246.633
-239.754
-233.078
-226.589
-220.269
-214.097
-208.048
-202.093
-196.197
-190.319
-184.413
-178.436
-172.35
-166.128
-159.77
-153.304
-146.788
-140.302
-133.96
-127.87
-122.124
-116.788
-111.891
-107.434
-103.4
-99.7591
-96.4741
-93.4928
-90.7622
-88.1803
2415.01
2631.97
2941.71
3276.72
3642.43
3955.07
4185.26
4317.31
4342.38
4257.33
4058.39
3736.37
3284.89
2729.13
2151.69
1665.03
1333.6
1129.25
974.411
813.012
634.222
449.221
270.303
105.833
-38.658
-159.711
-255.573
-325.784
-370.83
-392.279
-393.227
-378.231
-353.705
-325.533
-297.884
-273.715
-254.775
-241.639
-233.965
-230.776
-230.833
-232.951
-235.798
-238.138
-239.416
-239.359
-237.948
-235.345
-231.792
-227.53
-222.769
-217.669
-212.349
-206.894
-201.363
-195.795
-190.217
-184.639
-179.063
-173.481
-167.88
-162.242
-156.555
-150.817
-145.036
-139.246
-133.5
-127.875
-122.443
-117.284
-112.464
-108.027
-103.992
-100.36
-97.1161
-94.2353
-91.6805
-89.3942
-87.3053
-85.3698
-7187.59
-7422.98
-7698.2
-7912.72
-8061.21
-8097.49
-8029.33
-7870.6
-7631.56
-7320.56
-6946.94
-6531.31
-6111.31
-5738.14
-5457.49
-5288.26
-5213.47
-5185.63
-5138.64
-5006.04
-4747.75
-4358.34
-3861.4
-3292.18
-2690.31
-2103.21
-1583.05
-1168.59
-867.877
-662.35
-524.615
-431.716
-368.215
-324.609
-294.735
-274.334
-260.375
-250.957
-244.686
-240.446
-237.304
-234.415
-231.698
-229.026
-226.029
-222.559
-218.615
-214.27
-209.623
-204.776
-199.809
-194.781
-189.726
-184.662
-179.594
-174.52
-169.437
-164.337
-159.214
-154.065
-148.883
-143.67
-138.429
-133.174
-127.932
-122.74
-117.651
-112.733
-108.054
-103.666
-99.6255
-95.9663
-92.7021
-89.8284
-87.3329
-85.1893
-83.3581
-81.7813
-80.3791
-79.1356
-8936.18
-8722.81
-8414.25
-7988.13
-7447.41
-6892.92
-6400.29
-5997.74
-5680.86
-5445.93
-5296.24
-5227.85
-5226.61
-5279.1
-5377.43
-5511.46
-5648.45
-5730.2
-5697.56
-5519.55
-5199.69
-4766.05
-4258.5
-3718.78
-3177.7
-2654.23
-2163.65
-1721.6
-1341.69
-1031.74
-791.469
-613.173
-485.34
-395.704
-333.376
-290.064
-260.193
-239.821
-226.227
-217.511
-212.295
-209.514
-207.963
-206.885
-205.674
-203.9
-201.329
-197.906
-193.727
-188.969
-183.826
-178.458
-172.978
-167.456
-161.94
-156.46
-151.042
-145.703
-140.45
-135.284
-130.201
-125.19
-120.246
-115.371
-110.573
-105.876
-101.315
-96.9341
-92.784
-88.9221
-85.3888
-82.2217
-79.4462
-77.0082
-74.9504
-73.2479
-71.834
-70.6679
-69.7347
-68.9133
11975.9
11796
11523.3
11091.8
10482
9760.85
8981.03
8186
7405.37
6654.86
5940.08
5261.96
4621.26
4020.61
3465.18
2962.19
2508.71
2074.31
1610.11
1111.26
643.331
276.422
28.8846
-118.794
-192.285
-212.336
-196.568
-161.947
-124.709
-97.9662
-88.5993
-96.0551
-114.47
-136.869
-158.423
-177.14
-192.72
-205.284
-214.952
-221.797
-225.874
-227.27
-226.12
-222.658
-217.204
-210.144
-201.925
-193.012
-183.842
-174.791
-166.141
-158.069
-150.65
-143.882
-137.714
-132.066
-126.847
-121.971
-117.357
-112.938
-108.659
-104.48
-100.375
-96.3311
-92.3476
-88.4368
-84.6215
-80.9335
-77.4103
-74.091
-71.0111
-68.1974
-65.6675
-63.4933
-61.6261
-60.0628
-58.8214
-57.8685
-57.1264
-56.5249
-607.708
-376.784
-77.2515
240.456
578.694
880.551
1132.7
1336.62
1501.22
1635.58
1743.25
1821.74
1864.08
1862.44
1812.92
1716.82
1578.1
1401.36
1198.76
1000.47
844.608
749.69
706.697
693.523
689.927
682.832
665.197
633.363
585.227
519.672
437.054
339.987
234.669
129.702
33.1115
-49.6096
-115.889
-165.429
-199.402
-219.848
-229.484
-230.83
-226.169
-217.5
-206.465
-194.333
-182.034
-170.192
-159.176
-149.147
-140.124
-132.043
-124.803
-118.301
-112.443
-107.141
-102.312
-97.8813
-93.7798
-89.9487
-86.3379
-82.9061
-79.6196
-76.4531
-73.3893
-70.4194
-67.5429
-64.7677
-62.1085
-59.585
-57.2196
-55.0354
-53.0536
-51.2936
-49.7631
-48.4634
-47.3859
-46.5033
-45.7665
-45.1223
-8024.94
-7931.24
-7826.04
-7708.51
-7585.12
-7493.74
-7444.02
-7431.33
-7441.1
-7448.68
-7432.41
-7382.44
-7298.65
-7184.8
-7044.35
-6877.34
-6680.01
-6448.53
-6181.39
-5878.34
-5540.23
-5169.92
-4773.09
-4358.33
-3936.28
-3518.02
-3113.72
-2731.76
-2378.49
-2058.5
-1774.41
-1525.5
-1308.53
-1118.81
-951.503
-803.037
-671.827
-557.705
-460.884
-381.053
-316.698
-265.762
-225.861
-194.63
-170.008
-150.354
-134.454
-121.5
-110.778
-101.833
-94.3416
-88.0482
-82.7428
-78.2485
-74.4159
-71.1194
-68.2531
-65.7281
-63.4692
-61.4137
-59.5097
-57.7151
-55.9971
-54.3311
-52.7007
-51.0969
-49.5173
-47.966
-46.4518
-44.9877
-43.5895
-42.2743
-41.0597
-39.9614
-38.9927
-38.1624
-37.4734
-36.925
-36.519
-36.1917
-700.577
-860.402
-1053.42
-1247.42
-1479.03
-1722.68
-1974.77
-2225.93
-2467.73
-2692.59
-2888.48
-3045.5
-3165.91
-3258.51
-3326.66
-3367.38
-3378.08
-3355.93
-3300.35
-3211.81
-3091.63
-2941.06
-2760.44
-2550.39
-2313.76
-2057.3
-1792.09
-1531.34
-1286.25
-1063.5
-866.937
-699.175
-560.771
-449.927
-362.828
-294.499
-240.251
-196.457
-160.612
-131.066
-106.74
-86.8882
-70.9367
-58.3745
-48.7071
-41.4546
-36.1601
-32.3426
-29.7077
-28.0491
-27.1374
-26.7835
-26.835
-27.1677
-27.6812
-28.2949
-28.9456
-29.5841
-30.1734
-30.6867
-31.1057
-31.4193
-31.6224
-31.715
-31.7015
-31.59
-31.3914
-31.1191
-30.7881
-30.4145
-30.0145
-29.6042
-29.1988
-28.8116
-28.4535
-28.1326
-27.8547
-27.6221
-27.4279
-27.2705
3163.75
3258.7
3432.23
3664.63
3925.61
4166.22
4357.36
4468.39
4477.9
4407.78
4309.14
4202.49
4064.77
3876.19
3651.54
3422.69
3213.1
3029.66
2868.94
2720.22
2570.62
2409.51
2234.4
2055.39
1887.84
1739.35
1609.14
1490.34
1373.2
1250.01
1118.44
982.112
847.984
723.009
611.873
516.472
436.418
370.025
315.158
269.717
231.868
200.118
173.27
150.387
130.668
113.35
98.0781
84.5775
72.5221
61.7483
52.0883
43.4089
35.6074
28.6007
22.3197
16.7047
11.7024
7.26439
3.34518
-0.0978592
-3.10525
-5.71561
-7.96586
-9.89148
-11.5265
-12.9037
-14.0542
-15.0075
-15.7911
-16.4307
-16.9493
-17.3673
-17.7022
-17.9683
-18.1767
-18.3356
-18.45
-18.5152
-18.5195
-18.5513
11691.9
11460.3
11140.2
10692.8
10109.4
9483.58
8852.67
8195.89
7444.97
6530.57
5469.25
4390.29
3415.49
2568.52
1855.94
1314.16
953.182
745.718
655.379
649.59
709.791
837.393
1042.09
1310.29
1588.8
1818.1
1974.7
2059.03
2059.84
1967.64
1799.43
1592.28
1380.91
1186.22
1016.3
871.594
749.441
646.57
559.582
485.562
422.247
367.831
320.855
280.102
244.63
213.825
186.928
163.312
142.521
124.184
107.984
93.6541
80.9657
69.7227
59.7564
50.9217
43.0924
36.159
30.0254
24.6069
19.8279
15.6206
11.9236
8.68116
5.842
3.35943
1.19086
-0.702237
-2.35442
-3.79633
-5.05477
-6.15284
-7.11003
-7.94249
-8.66336
-9.28314
-9.80933
-10.243
-10.5824
-10.9073
-8377.7
-8286.13
-8195.66
-8044.08
-7765.94
-7283.97
-6589.83
-5753
-4859.41
-3975.89
-3191.43
-2623.15
-2311.98
-2171.82
-2086.35
-2001.21
-1912.75
-1818.67
-1700.48
-1539.45
-1331.73
-1074.98
-770.371
-457.71
-205.259
-41.3384
73.6574
202.919
373.335
555.096
699.297
781.923
808.173
794.76
756.976
705.129
645.953
584.679
524.989
469.009
417.768
371.581
330.333
293.676
261.17
232.353
206.775
184.023
163.739
145.616
129.394
114.852
101.801
90.0805
79.5512
70.0939
61.6047
53.9919
47.174
41.0771
35.6333
30.7795
26.4564
22.6086
19.184
16.1348
13.4174
10.9925
8.82562
6.88684
5.15054
3.59503
2.20195
0.955655
-0.157378
-1.14912
-2.03005
-2.80803
-3.4913
-4.13737
-8903.16
-8419.4
-7838.27
-7252.83
-6626.18
-5969.15
-5294.11
-4665
-4129.14
-3697.23
-3376.66
-3167.97
-3051.82
-2998.84
-2982.69
-2985.12
-2988.49
-2966.08
-2883.03
-2716.08
-2476.03
-2200.02
-1932.37
-1710.32
-1548.16
-1433.61
-1343.38
-1254.64
-1148.69
-1017.28
-865.701
-707.291
-554.997
-417.644
-298.391
-197.278
-113.081
-44.6868
9.49158
51.2904
82.563
105.035
120.247
129.557
134.15
135.047
133.112
129.059
123.478
116.85
109.568
101.945
94.2248
86.5952
79.1936
72.1183
65.4368
59.1913
53.4036
48.0788
43.2081
38.7719
34.7425
31.0872
27.7711
24.759
22.018
19.5183
17.2339
15.1432
13.228
11.4736
9.86772
8.39928
7.05795
5.83342
4.71529
3.69325
2.7553
1.86081
11970.6
11714.6
11337.7
10723
9745.33
8493.14
7122.64
5829.28
4730.32
3827.01
3067.2
2412.78
1852.57
1383.07
996.6
682.651
433.041
243.811
112.343
30.3031
-16.079
-44.915
-73.7326
-113.954
-169.562
-237.683
-308.544
-369.25
-411.47
-433.677
-436.871
-426.646
-406.886
-380.571
-348.634
-309.538
-261.72
-206.304
-147.246
-90.1276
-39.5442
2.15758
34.5512
58.4569
75.2524
86.4011
93.1627
96.5184
97.2282
95.9004
93.0421
89.0805
84.3742
79.2197
73.8578
68.48
63.2334
58.224
53.5212
49.1618
45.1566
41.4955
38.1546
35.1018
32.302
29.7212
27.329
25.1007
23.0173
21.0649
19.2342
17.5188
15.9141
14.4155
13.0176
11.7131
10.4928
9.34536
8.2587
7.20577
859.071
871.94
923.197
1024.91
1134.95
1224.53
1272.37
1270.43
1222.82
1145.22
1056.73
971.088
892.976
821.095
752.129
683.639
615.49
548.148
480.093
406.847
322.56
222.671
106.064
-23.9871
-158.62
-286.344
-396.362
-477.615
-520.854
-523.856
-491.905
-434.141
-360.909
-279.628
-195.104
-111.187
-32.0297
37.4235
92.4316
131.193
155.343
168.672
175.214
177.692
177.111
173.494
166.692
156.772
144.651
131.521
118.448
106.039
94.6626
84.4938
75.5657
67.8278
61.185
55.5227
50.719
46.6516
43.2006
40.2513
37.6974
35.4443
33.4123
31.5379
29.775
28.0927
26.4732
24.9081
23.396
21.939
20.5406
19.2032
17.9268
16.7071
15.5351
14.3966
13.2777
12.1517
-9284.91
-9079.89
-8827.73
-8493.57
-8027.39
-7436.13
-6746.33
-6000.86
-5239.51
-4492.54
-3786.48
-3143.37
-2577.85
-2095.78
-1696.04
-1372.73
-1116.72
-917.408
-764.145
-648.04
-562.904
-504.055
-468.683
-453.73
-455.415
-468.914
-488.503
-507.412
-519.425
-520.005
-506.789
-479.455
-438.838
-387.646
-329.303
-267.53
-206.429
-149.936
-100.85
-60.2844
-27.9261
-2.76186
16.351
30.4555
40.424
46.9704
50.9163
53.2333
54.3827
54.634
54.116
52.7089
50.8116
48.5577
46.0995
43.6108
41.246
39.1211
37.303
35.8075
34.6067
33.6409
32.8358
32.1122
31.4057
30.6691
29.8747
29.0133
28.0888
27.1138
26.105
25.0803
24.0555
23.0434
22.0515
21.0814
20.1259
19.1672
18.1775
17.0535
-79.6712
-72.2126
-65.3175
-58.8394
-52.9028
-47.6122
-43.0445
-39.2032
-36.0477
-33.5377
-31.6389
-30.308
-29.472
-28.999
-28.6925
-28.3149
-27.6224
-26.453
-24.7979
-22.8012
-20.6921
-18.6997
-16.9961
-15.6785
-14.7717
-14.2459
-14.0531
-14.1631
-14.5714
-15.2783
-16.2609
-17.4545
-18.7547
-20.0355
-21.1722
-22.0591
-22.6196
-22.8088
-22.6126
-22.0517
-21.1671
-20.0159
-18.6634
-17.1779
-15.6274
-14.0785
-12.5913
-11.2142
-9.97672
-8.88912
-7.94535
-7.13001
-6.42468
-5.81232
-5.27923
-4.81516
-4.41265
-4.06605
-3.77063
-3.5221
-3.31637
-3.14959
-3.01828
-2.91925
-2.84955
-2.80625
-2.78606
-2.78487
-2.79716
-2.81572
-2.83173
-2.83544
-2.81747
-2.76998
-2.69149
-2.5805
-2.44283
-2.28628
-2.1195
-1.95076
-1.78698
-1.63325
-1.49281
-1.36735
-1.25744
-1.1629
-1.08313
-1.01735
-0.964801
-0.9249
-0.897243
-0.881578
-0.877772
-0.885823
-0.905873
-0.938185
-0.983108
-1.04103
-1.11226
-1.19689
-1.29448
-1.40388
-1.52328
-1.65052
-1.78364
-1.92151
-2.06419
-2.21303
-2.37036
-2.53897
-2.72137
-2.91929
-3.13329
-3.36271
-3.60567
-3.85924
-4.11953
-4.38178
-4.64041
-4.8893
-5.12207
-5.33225
-5.51366
-5.66095
-5.77026
-5.83902
-5.86614
-5.85203
-5.7984
-5.7081
-5.5848
-5.43282
-5.2567
-5.06104
-4.85019
-4.62819
-4.39866
-4.16478
-3.92927
-3.69444
-3.46221
-3.23414
-3.01156
-2.79554
-2.58694
-2.3865
-2.1948
-2.01231
-1.83939
-1.67628
-1.52311
-1.3799
-1.24658
-1.12304
-1.00908
-0.904467
-0.808888
-0.721975
-0.643307
-0.572428
-0.508865
-0.452126
-0.401703
-0.35707
-0.317689
-0.283025
-0.25257
-0.225857
-0.202464
-0.181926
-0.163822
-0.147798
-0.133632
-0.120932
-0.109437
-0.0989664
-0.0893721
-0.0805491
-0.0724148
-0.0649017
-0.0579476
-0.0515036
-0.0455304
-0.0400047
-0.0349139
-0.0302445
-0.0259765
-0.0220751
-0.0185225
-0.0152738
-0.0123465
-0.00965689
-0.00730533
-0.00505057
-0.0032407
-0.00116656
-8.94083e-06
0.00233979
0.00206663
0.00517038
-80.96
-73.1397
-65.9145
-59.1608
-53.0212
-47.5994
-42.9679
-39.1071
-35.9444
-33.4286
-31.5179
-30.1677
-29.3111
-28.8286
-28.5302
-28.1829
-27.5348
-26.4092
-24.7809
-22.7906
-20.6742
-18.6721
-16.9684
-15.6677
-14.7956
-14.3184
-14.1834
-14.3568
-14.8322
-15.6092
-16.6637
-17.9296
-19.3
-20.6458
-21.8384
-22.7685
-23.3569
-23.5563
-23.3523
-22.7689
-21.848
-20.6498
-19.2416
-17.6924
-16.0701
-14.4419
-12.8712
-11.4113
-10.0974
-8.94347
-7.94488
-7.08569
-6.34582
-5.70626
-5.15141
-4.66949
-4.2519
-3.89222
-3.58522
-3.32626
-3.11104