/*--------------------------------*- C++ -*----------------------------------*\
| =========                 |                                                 |
| \\      /  F ield         | OpenFOAM: The Open Source CFD Toolbox           |
|  \\    /   O peration     | Version:  2012                                  |
|   \\  /    A nd           | Website:  www.openfoam.com                      |
|    \\/     M anipulation  |                                                 |
\*---------------------------------------------------------------------------*/
FoamFile
{
    version     2.0;
    format      ascii;
    class       volScalarField;
    location    "1.2";
    object      p;
}
// * * * * * * * * * * * * * * * * * * * * * * * * * * * * * * * * * * * * * //

dimensions      [0 2 -2 0 0 0 0];


internalField   nonuniform List<scalar> 
42400
(
-10964.2
-10855.7
-10769.3
-10589.3
-10255.2
-9815.46
-9374.16
-8988.46
-8638.6
-8266.07
-7818.8
-7265.13
-6591.08
-5802.01
-4933.54
-4038.93
-3126.54
-2164.57
-1232.31
-531.916
-150.265
26.0415
131.192
197.93
204.942
149.732
62.5488
-24.7222
-95.4823
-140.466
-152.249
-128.247
-72.2755
6.30777
94.5223
179.256
250.882
304.495
339.539
358.349
364.616
362.212
354.478
343.846
331.826
319.227
306.445
293.698
281.127
268.77
257.061
246.179
235.821
226.047
216.896
208.338
200.302
192.705
185.465
178.515
171.805
165.298
158.973
152.815
146.817
140.974
135.283
129.743
124.35
119.102
113.994
109.022
104.18
99.4631
94.8656
90.3814
86.0031
81.7201
77.5151
73.2874
576.584
550.431
504.736
558.313
758.03
1061.08
1369.23
1622.99
1803.59
1907.98
1937.07
1892.88
1780.73
1608.06
1380.87
1105.61
799.137
495.924
242.254
82.183
41.1686
106.804
226.42
337.045
400.981
416.269
401.564
374.995
346.211
318.855
294.512
274.826
261.021
253.559
251.914
254.928
261.839
271.22
281.367
290.512
297.085
299.945
298.553
293.151
284.939
275.17
265.009
255.496
247.274
239.807
232.426
224.773
216.85
208.837
201.013
193.573
186.594
180.06
173.91
168.065
162.448
156.998
151.67
146.436
141.284
136.21
131.218
126.312
121.497
116.779
112.161
107.65
103.249
98.9623
94.7939
90.7467
86.8246
83.0344
79.3894
75.885
8536.62
8313.44
8002.42
7705.12
7428.88
7143.85
6822.17
6469.95
6097.32
5712.72
5323.67
4938.56
4564.26
4204.84
3863.73
3544.34
3247.96
2971.04
2705.5
2445.68
2191.56
1945.45
1707.21
1473.04
1239.33
1007.62
784.345
577.175
392.598
235.293
107.086
7.72513
-64.1144
-110.234
-132.345
-132.538
-114.177
-80.3163
-35.118
15.8518
67.1598
114.661
155.832
189.526
215.4
233.88
245.333
249.841
247.598
239.667
227.158
211.948
196.365
182.417
171.439
163.591
158.29
154.665
151.879
149.318
146.627
143.653
140.365
136.798
133.01
129.064
125.015
120.911
116.792
112.692
108.637
104.651
100.749
96.9474
93.256
89.6843
86.2416
82.9381
79.7878
76.7895
3932.35
3762.22
3548.38
3310.6
3007.56
2708.24
2465.69
2309.68
2206.31
2093.53
1942.15
1757.3
1558.38
1364.14
1188.09
1037
911.026
805.779
716.203
638.238
570.202
512.835
467.852
435.161
411.039
389.371
364.297
331.977
291.052
242.18
188.199
133.447
82.1933
37.1313
0.137349
-27.7747
-45.8581
-54.1378
-54.0162
-46.9903
-34.4119
-17.6929
1.76961
22.6591
43.7213
63.7741
81.8149
97.2139
109.832
119.915
127.81
133.81
138.163
141.268
143.438
145.139
145.978
145.962
145.118
143.464
141.085
138.119
134.724
131.043
127.195
123.267
119.324
115.406
111.545
107.759
104.063
100.468
96.983
93.6148
90.3683
87.2479
84.2571
81.3997
78.6787
76.087
-3756.83
-3680.1
-3592.68
-3497.83
-3401.37
-3320.45
-3266.8
-3233.4
-3185.76
-3081.46
-2902.92
-2669.94
-2416.8
-2154.81
-1886.75
-1631.8
-1417.43
-1254.84
-1129.95
-1018.6
-907.651
-799.509
-703.557
-626.909
-571.346
-534.69
-512.662
-500.203
-492.476
-485.506
-475.91
-461.141
-440.693
-414.628
-383.722
-349.053
-312.202
-274.182
-234.897
-194.763
-154.375
-114.282
-74.9999
-37.0235
-0.844061
33.035
64.0822
91.7278
115.383
134.519
148.806
158.236
163.207
164.476
162.941
159.282
154.724
149.8
144.789
139.872
135.142
130.63
126.337
122.246
118.334
114.58
110.964
107.47
104.087
100.809
97.6354
94.5675
91.6087
88.763
86.0334
83.4216
80.9277
78.5505
76.2881
74.1287
-4013.8
-3948.63
-3837.68
-3637.79
-3374.51
-3050.2
-2676.4
-2246.65
-1763.58
-1263.44
-777.687
-323.199
88.8823
463.284
811.925
1130.06
1392.14
1568.62
1641.92
1610.84
1493.48
1318.92
1117.93
912.531
716.59
533.903
361.308
198.173
49.9856
-76.7031
-178.926
-257.21
-313.625
-350.575
-370.542
-376.018
-369.055
-351.488
-325.865
-293.781
-256.794
-216.505
-174.416
-131.904
-90.2036
-50.4017
-13.4292
19.946
49.1306
73.727
93.5598
108.693
119.431
126.292
129.922
131.052
130.365
128.432
125.709
122.542
119.179
115.778
112.435
109.2
106.092
103.111
100.246
97.4851
94.8142
92.2256
89.7163
87.288
84.9459
82.6957
80.5422
78.4871
76.5292
74.6642
72.8858
71.1721
5822.45
5680.49
5541.77
5407.08
5217.59
5018.27
4809.44
4610.59
4430.48
4234.34
3987.49
3696.84
3390.17
3077.55
2743.88
2359.13
1899.02
1364.67
792.139
237.865
-252.022
-662.928
-1001.75
-1273.06
-1468.37
-1563.1
-1542.91
-1437.12
-1295.36
-1146.18
-1001.03
-867.792
-750.498
-649.205
-561.83
-485.906
-419.396
-360.723
-308.188
-260.737
-217.342
-177.142
-139.735
-104.84
-72.3176
-42.1835
-14.5689
10.3315
32.3135
51.207
66.925
79.4894
88.9763
95.7775
100.187
102.625
103.53
103.296
102.276
100.751
98.9328
96.9739
94.9765
93.0023
91.082
89.2239
87.422
85.6635
83.9352
82.2281
80.5405
78.878
77.252
75.6758
74.1612
72.7152
71.3388
70.0272
68.7699
67.5415
-11534.5
-11195.7
-10829.2
-10460.4
-10026.2
-9508.71
-8907.69
-8253.61
-7564.61
-6834.49
-6057.5
-5241.72
-4410.82
-3598.36
-2838.45
-2156.14
-1563.93
-1066.45
-668.635
-375.757
-184.903
-76.0851
-17.0242
14.3557
19.5879
-0.880694
-33.5054
-62.8124
-81.0883
-87.6356
-83.3226
-68.6916
-46.8097
-24.0928
-6.5598
3.68745
7.9282
8.60124
7.83327
6.91911
6.67814
7.65653
10.1937
14.2565
19.6637
26.113
33.1988
40.5688
47.9358
54.9706
61.3739
66.9235
71.4872
75.0237
77.5669
79.2128
80.0913
80.3508
80.1416
79.6043
78.8613
78.0129
77.1343
76.2751
75.4603
74.6929
73.9588
73.2339
72.4916
71.7114
70.8846
70.0164
69.1245
68.2325
67.3631
66.5317
65.7435
64.9937
64.2677
63.5382
4642.8
4391.81
4005.35
3500.26
2903.15
2347.97
1876.25
1479.5
1137.15
835.352
566.494
326.025
112.351
-71.6768
-219.14
-322.19
-378.684
-395.209
-386.08
-362.57
-325.366
-268.197
-190.687
-104.767
-25.9433
36.6729
80.4909
100.994
91.5677
56.2256
13.8632
-18.574
-37.2291
-44.1823
-41.4076
-31.7808
-19.5075
-7.8852
1.34543
7.91463
12.3597
15.4122
17.7258
19.7956
21.957
24.4212
27.317
30.5937
34.0704
37.6036
41.0666
44.3389
47.3173
49.9277
52.1298
53.9163
55.3109
56.3591
57.1233
57.6749
58.0866
58.4262
58.7494
59.0952
59.4808
59.9001
60.326
60.7169
61.0273
61.2212
61.2817
61.2161
61.0528
60.8313
60.5903
60.3566
60.1408
59.9376
59.7277
59.4826
7531.33
7549.37
7622.76
7732.27
7832.58
7923.33
7996.63
8026.15
7980.74
7838.94
7598.12
7268.46
6856.96
6372.31
5835.16
5268.99
4691.21
4114.9
3554.69
3025.22
2539.33
2106.73
1732.44
1415.61
1151.74
934.544
756.753
610.459
488.508
386.466
301.736
231.681
174.49
129.8
97.1969
74.7218
59.903
49.8257
41.9468
35.001
28.5234
22.481
17.0856
12.63
9.35766
7.37962
6.67394
7.1107
8.49234
10.594
13.1907
16.075
19.0702
22.0369
24.8754
27.5241
29.9546
32.169
34.1883
36.0493
37.7971
39.4779
41.1322
42.7863
44.4465
46.0947
47.6897
49.1747
50.4907
51.5933
52.4659
53.1253
53.616
53.9966
54.322
54.6296
54.9336
55.2264
55.4833
55.6769
5742.13
5588.49
5364.5
5042.26
4570.77
4014.24
3460.84
3014.58
2736.19
2613.01
2593.41
2620.43
2633.14
2592.1
2507.03
2411.58
2324.87
2246.15
2167.56
2082.8
1988.65
1882.11
1761.9
1629.08
1486.02
1336.08
1183.04
1030.61
882.107
740.463
608.969
491.765
392.26
311.242
247.016
196.258
154.746
119.063
87.9517
61.2098
38.9219
20.8999
6.72027
-4.07704
-11.8725
-16.9812
-19.8158
-20.7717
-20.2218
-18.5109
-15.9452
-12.7883
-9.25709
-5.52266
-1.71263
2.08378
5.80972
9.43425
12.9459
16.3468
19.6472
22.8597
25.9933
29.0467
32.0031
34.8277
37.4699
39.872
41.9828
43.7734
45.2478
46.4455
47.432
48.2818
49.0592
49.8046
50.5299
51.2225
51.8534
52.3973
-9453.55
-9153.63
-8796.35
-8417.05
-8015.86
-7611.88
-7171.78
-6645.14
-5991.96
-5216.04
-4384.95
-3615.78
-3020.76
-2638.36
-2413.3
-2254.16
-2094.48
-1910.58
-1707.84
-1501.36
-1307.42
-1135.02
-987.155
-862.262
-756.719
-667.521
-592.732
-531.202
-481.801
-442.788
-411.515
-384.633
-358.989
-332.643
-305.167
-277.206
-249.848
-224.059
-200.421
-179.173
-160.344
-143.817
-129.348
-116.619
-105.334
-95.2012
-85.959
-77.4108
-69.4082
-61.844
-54.6409
-47.7419
-41.1059
-34.7033
-28.5126
-22.5187
-16.7111
-11.084
-5.63524
-0.366874
4.71499
9.59906
14.2674
18.6938
22.8433
26.6741
30.1412
33.2074
35.853
38.0852
39.943
41.4934
42.8187
44
45.1004
46.1556
47.1723
48.1341
49.0123
49.7868
-4932.06
-4878.1
-4825.12
-4774.78
-4727.54
-4670.67
-4585.41
-4446.93
-4231.05
-3935.11
-3599.6
-3305.74
-3139.64
-3137.44
-3249.56
-3375.48
-3439
-3417.86
-3321.69
-3167.67
-2969.91
-2743.48
-2503.33
-2264.91
-2040.57
-1835.56
-1647.66
-1471.59
-1303.82
-1144.16
-994.588
-857.554
-734.839
-627.097
-533.973
-454.533
-387.63
-332.051
-286.506
-249.59
-219.814
-195.706
-175.925
-159.351
-145.102
-132.527
-121.182
-110.72
-100.922
-91.6339
-82.7485
-74.1877
-65.8931
-57.8205
-49.939
-42.2311
-34.6934
-27.3367
-20.1838
-13.267
-6.62572
-0.303482
5.65379
11.1998
16.2902
20.8868
24.9627
28.5091
31.5409
34.0996
36.2511
38.0778
39.6664
41.0943
42.4182
43.6688
44.8518
45.9546
46.9563
47.8447
6194.77
6041.91
5837.34
5553.81
5163.81
4708.41
4213.18
3702.83
3197.64
2708.42
2235.94
1771.29
1306.46
849.301
420.332
35.8579
-297.167
-577.314
-805.48
-981.434
-1102.15
-1163.72
-1167.33
-1123.49
-1053.83
-981.933
-921.527
-872.938
-829.225
-783.549
-732.523
-676.313
-617.381
-558.887
-503.405
-452.375
-406.29
-364.943
-327.937
-294.889
-265.464
-239.376
-216.323
-195.991
-178.05
-162.166
-148
-135.314
-123.799
-113.189
-103.244
-93.7539
-84.5445
-75.4867
-66.5019
-57.5624
-48.6861
-39.9268
-31.3617
-23.0785
-15.1641
-7.69753
-0.744856
5.64205
11.4265
16.5884
21.1261
25.0586
28.4265
31.2901
33.7247
35.8128
37.6348
39.2596
40.7384
42.1021
43.3629
44.5189
45.5628
46.4893
-2994
-2522.87
-1888.02
-1237.4
-605.047
-94.3244
310.791
633.501
886.032
1078.77
1222.41
1325.24
1390.98
1420.21
1413.33
1372.27
1299.03
1195.34
1064.57
912.252
745.919
576.546
417.884
283.801
183.104
113.044
61.1559
14.1766
-34.6732
-84.8042
-131.474
-169.392
-195.235
-208.688
-211.99
-208.56
-201.659
-193.623
-185.755
-178.57
-172.12
-166.249
-160.749
-155.436
-150.172
-144.865
-139.436
-133.762
-127.776
-121.373
-114.447
-106.916
-98.7371
-89.9191
-80.5292
-70.6912
-60.5758
-50.3848
-40.3304
-30.613
-21.4017
-12.8231
-4.95831
2.15151
8.49689
14.0926
18.9727
23.1876
26.8007
29.8855
32.5207
34.7852
36.7523
38.4847
40.0316
41.4275
42.6931
43.8385
44.8675
45.7791
3073.68
2729.48
2245.91
1691.86
1106.31
641.985
300.425
38.7453
-148.542
-251.786
-284.882
-274.672
-246.654
-217.027
-192.294
-172.809
-156.67
-141.195
-122.36
-94.9642
-52.8832
10.1418
97.0548
202.305
310.63
404.268
468.712
497.52
491.86
458
404.311
338.963
269.366
201.126
138.039
82.302
34.858
-4.21875
-35.418
-59.5851
-77.7731
-91.1145
-100.705
-107.512
-112.303
-115.64
-117.861
-119.11
-119.361
-118.477
-116.287
-112.592
-107.255
-100.234
-91.6111
-81.6052
-70.5567
-58.8944
-47.0836
-35.5661
-24.7042
-14.7449
-5.81379
2.06255
8.92284
14.841
19.9073
24.2175
27.8687
30.956
33.5697
35.7931
37.6997
39.3519
40.7999
42.0819
43.2247
44.2455
45.1537
45.9537
2433.28
2429.48
2431.24
2438.46
2466.51
2526.92
2546.52
2426.55
2152.86
1790.77
1398.77
988.092
549.557
83.4386
-386.462
-819.472
-1175.3
-1427.88
-1567.12
-1592.52
-1508.83
-1327.66
-1072.84
-781.157
-492.485
-238.642
-36.3299
110.784
208.076
265.579
294.307
303.498
299.583
286.601
266.967
242.461
214.621
184.829
154.282
123.935
94.479
66.3623
39.8303
14.98
-8.16793
-29.5903
-49.1828
-66.704
-81.683
-93.6458
-102.684
-107.92
-109.089
-106.206
-99.5476
-89.6674
-77.3421
-63.4911
-49.0755
-34.9836
-21.9168
-10.3116
-0.328072
8.08499
15.0952
20.9045
25.7036
29.6585
32.9117
35.5864
37.789
39.611
41.1291
42.4069
43.4947
44.4316
45.2457
45.9559
46.573
47.1099
-1968.89
-2013.23
-2083.61
-2169.63
-2267.22
-2365.83
-2476.42
-2618.27
-2791.49
-2967.55
-3105.64
-3176.44
-3184.67
-3171.71
-3177.05
-3191.68
-3169.87
-3078.12
-2914.83
-2692.81
-2422.45
-2114.72
-1784.64
-1450.48
-1129.52
-834.683
-573.951
-351.364
-167.975
-22.6888
87.0329
165.093
216.222
244.477
254.763
252.014
239.703
220.417
196.184
168.697
139.368
109.317
79.3901
50.2491
22.2434
-4.17024
-28.5834
-50.5171
-69.3871
-84.5857
-95.2358
-101.351
-102.648
-99.1384
-91.2291
-79.6306
-65.3057
-49.4076
-33.1747
-17.7675
-4.07644
7.42095
16.6712
23.9224
29.5481
33.9113
37.3042
39.9454
41.9992
43.593
44.8283
45.7871
46.5348
47.1228
47.5908
47.968
48.2751
48.525
48.7252
48.8912
-3512.62
-3368.65
-3179.11
-2943.26
-2660.18
-2361.78
-2066.21
-1782.64
-1511.24
-1246.24
-982.341
-722.19
-483.69
-299.413
-197.633
-172.913
-182.431
-175.906
-124.864
-25.3305
113.503
280.515
462.054
641.651
803.29
935.334
1031.7
1090.33
1111.03
1095.12
1046.21
971.126
879.13
779.561
679.305
582.77
493.089
411.665
338.779
274.238
217.629
168.384
125.773
88.9909
57.2912
30.0936
7.00712
-12.1963
-27.5617
-39.036
-46.1415
-49.2607
-48.5632
-44.1846
-36.4855
-26.0636
-13.6973
-0.360501
12.802
24.644
34.3225
41.535
46.4898
49.6635
51.564
52.6114
53.112
53.2728
53.2285
53.0656
52.8392
52.5837
52.3199
52.0595
51.8084
51.5688
51.3406
51.1221
50.9112
50.7138
7593.59
7440.91
7203.94
6848.8
6359.83
5820.17
5289.66
4808.01
4391.29
4033.49
3716.16
3417.11
3120.9
2822.37
2522.51
2224.63
1934.59
1658.54
1401.09
1164.33
948.35
751.997
573.747
411.883
263.999
128.888
9.54077
-87.7383
-158.383
-202.094
-221.744
-221.891
-207.341
-182.807
-153.163
-122.396
-93.1912
-67.0943
-44.891
-26.8212
-12.6863
-1.99622
5.87173
11.5713
15.73
18.9169
21.6272
24.2764
27.1402
30.3225
33.7906
38.0435
42.9572
48.1292
53.3101
58.3152
63.0566
67.5988
71.9066
75.5645
77.9019
78.4764
77.385
75.1335
72.3147
69.391
66.6427
64.2034
62.1112
60.3509
58.8811
57.652
56.615
55.728
54.957
54.2758
53.6652
53.1112
52.6044
52.1392
4005.31
3918.71
3811.84
3687.81
3569.23
3467.73
3380.47
3295.07
3200.89
3092.25
2966.12
2818.79
2649.08
2461.72
2265.07
2064.96
1859.71
1643.05
1410.89
1168.3
932.349
731.97
595.143
526.536
494.27
454.058
387.174
304.515
221.595
146.425
82.4244
30.7187
-8.53267
-36.5081
-55.3333
-67.4808
-75.2428
-80.4231
-84.2458
-87.4116
-90.2227
-92.7225
-94.8388
-96.505
-97.7467
-98.6839
-99.4688
-100.22
-100.975
-101.716
-102.408
-102.948
-103.338
-103.543
-103.543
-103.333
-102.916
-102.303
-101.509
-100.554
-99.4535
-98.2252
-96.8843
-95.4442
-93.9168
-92.3121
-90.6392
-88.9058
-87.1189
-85.2851
-83.4101
-81.4998
-79.5594
-77.5941
-75.6087
-73.608
-71.5987
-69.5672
-67.5355
-65.4775
-11354.5
-10828.1
-10169.4
-9524.04
-8878.71
-8305.84
-7778.37
-7272.25
-6776.78
-6285.14
-5790.82
-5290.86
-4790.05
-4298.38
-3825.34
-3376.4
-2953.27
-2555.1
-2181.87
-1841.68
-1549.91
-1314.58
-1125.65
-961.103
-805.147
-657.076
-524.479
-412.674
-322.04
-250.322
-194.682
-152.466
-121.386
-99.4731
-84.9897
-76.3768
-72.24
-71.3647
-72.731
-75.5163
-79.0847
-82.9642
-86.8164
-90.4108
-93.6015
-96.3073
-98.5039
-100.197
-101.327
-102
-102.257
-102.153
-101.744
-101.093
-100.253
-99.2706
-98.1827
-97.0152
-95.7855
-94.5043
-93.1777
-91.8088
-90.3992
-88.9494
-87.4597
-85.9302
-84.3615
-82.7543
-81.1099
-79.4302
-77.7172
-75.9737
-74.2025
-72.4066
-70.5891
-68.7537
-66.9068
-65.0359
-63.156
-61.235
1772.03
1689.57
1578.93
1423.21
1198.61
942.004
705.241
538.975
465.402
471.951
524.31
583.593
618.395
612.267
564.756
484.015
379.871
262.759
145.688
40.9304
-45.8646
-115.114
-168.523
-207.92
-235.462
-252.765
-260.642
-260.251
-253.512
-242.264
-227.977
-212.165
-196.302
-181.433
-168.157
-156.797
-147.462
-140.089
-134.486
-130.388
-127.483
-125.448
-123.962
-122.744
-121.59
-120.37
-118.96
-117.273
-115.359
-113.153
-110.684
-108.013
-105.224
-102.415
-99.6841
-97.11
-94.7386
-92.58
-90.6157
-88.8121
-87.1315
-85.5389
-84.0045
-82.5045
-81.0202
-79.5372
-78.045
-76.5363
-75.0065
-73.4532
-71.8755
-70.2736
-68.6488
-67.0021
-65.335
-63.6498
-61.9522
-60.2308
-58.4927
-56.7011
6368.12
6284.07
6187.53
6050.34
5853.16
5594.14
5276.08
4901.81
4472
3984.07
3438.58
2848.86
2248.86
1689.52
1222.99
879.455
648.592
489.129
363.174
256.398
168.962
99.51
43.2891
-3.79903
-44.1808
-79.1959
-109.381
-134.796
-155.555
-172.053
-184.802
-194.256
-200.757
-204.555
-205.877
-204.991
-202.235
-197.995
-192.855
-187.337
-181.806
-176.501
-171.546
-166.933
-162.538
-158.152
-153.533
-148.479
-142.855
-136.608
-129.798
-122.604
-115.32
-108.301
-101.895
-96.3563
-91.7871
-88.1314
-85.2256
-82.8706
-80.8877
-79.1414
-77.5399
-76.024
-74.5559
-73.1115
-71.6743
-70.2343
-68.7852
-67.3237
-65.8491
-64.3615
-62.8607
-61.346
-59.8164
-58.2722
-56.7174
-55.1415
-53.543
-51.8809
-926.706
-681.133
-363.958
-82.1624
162.1
293.237
332.888
326.8
314.673
319.51
346.321
388.784
436.479
478.583
505.041
507.849
482.841
431.122
358.753
274.468
186.872
102.325
24.4047
-45.3007
-106.261
-158.406
-201.825
-236.742
-263.55
-282.864
-295.517
-302.436
-304.407
-302.152
-296.363
-287.767
-277.147
-265.377
-253.195
-241.246
-230.003
-219.64
-210.074
-201.11
-192.535
-184.084
-175.409
-166.265
-156.526
-146.222
-135.55
-124.87
-114.653
-105.377
-97.3965
-90.8565
-85.6841
-81.6627
-78.5235
-76.0126
-73.934
-72.1365
-70.5243
-69.0296
-67.6045
-66.2188
-64.8545
-63.5006
-62.1502
-60.7993
-59.4447
-58.0846
-56.7175
-55.3428
-53.9589
-52.5647
-51.1633
-49.7456
-48.302
-46.786
-5961.07
-5842.64
-5681.79
-5466.54
-5184.78
-4873.02
-4552.89
-4236.03
-3924.51
-3616.83
-3312.01
-3011.15
-2717.43
-2435.64
-2171.36
-1929.82
-1715.2
-1529.46
-1372.17
-1240.97
-1132.12
-1041.3
-964.316
-897.576
-838.165
-783.727
-732.397
-683.066
-635.056
-588.012
-541.955
-497.161
-454.06
-413.017
-374.409
-338.705
-305.963
-276.267
-249.705
-226.348
-206.11
-188.976
-174.786
-163.171
-153.606
-145.455
-138.2
-131.433
-124.641
-117.622
-110.354
-102.954
-95.7185
-89.0246
-83.2345
-78.5135
-74.8816
-72.1695
-70.101
-68.4098
-66.8994
-65.4613
-64.0352
-62.601
-61.1599
-59.7194
-58.2887
-56.8765
-55.4891
-54.13
-52.8001
-51.498
-50.2206
-48.9631
-47.7191
-46.4827
-45.2525
-44.0192
-42.7634
-41.4315
57.0859
-47.5384
-182.961
-328.714
-507.888
-689.11
-867.998
-1043.73
-1214.14
-1376.04
-1524.14
-1652.69
-1756.76
-1832.76
-1878.06
-1890.78
-1869.42
-1813.44
-1723.46
-1601.23
-1449.57
-1272.89
-1078.26
-876.154
-679.561
-501.231
-350.525
-231.47
-143.518
-83.2856
-45.848
-26.1947
-20.0675
-23.7523
-33.9545
-47.749
-63.1213
-78.5118
-92.5616
-104.561
-114.387
-121.956
-127.263
-130.431
-131.661
-131.186
-129.187
-125.857
-121.643
-116.806
-111.551
-106.078
-100.54
-95.0328
-89.6066
-84.4266
-79.6125
-75.2395
-71.3242
-67.8333
-64.7129
-61.9106
-59.3803
-57.0838
-54.9895
-53.0713
-51.3071
-49.6789
-48.1708
-46.7691
-45.4606
-44.2332
-43.0745
-41.9719
-40.9122
-39.8834
-38.8784
-37.8863
-36.8793
-35.7994
6147.29
6115.91
6078.44
6011.57
5898.03
5752.2
5585.49
5407.02
5219.68
5021.02
4807.46
4577.35
4331.62
4073.04
3805.73
3533.92
3261.81
2992.64
2727.97
2467.49
2209.55
1952.56
1696.71
1444.65
1201.34
973.327
765.477
583.653
429.717
302.289
198.406
114.084
45.7687
-9.84033
-55.274
-92.1224
-121.289
-143.235
-158.5
-167.829
-172.214
-172.533
-169.734
-164.741
-158.341
-151.148
-143.597
-135.964
-128.4
-120.967
-113.693
-106.608
-99.7669
-93.2331
-87.0589
-81.2807
-75.9194
-70.9826
-66.4649
-62.3507
-58.6178
-55.242
-52.1984
-49.4627
-47.0114
-44.8216
-42.871
-41.1378
-39.6007
-38.2385
-37.0305
-35.9564
-34.996
-34.1289
-33.3349
-32.5947
-31.8955
-31.2235
-30.5448
-29.8089
1769.21
1880.35
2017.86
2138.26
2221.91
2234.22
2174.57
2055.71
1893.27
1703.98
1504.54
1310.07
1131.85
976.492
846.435
741.591
658.737
591.801
533.391
474.501
405.566
318.969
212.404
91.1293
-33.6164
-149.593
-248.59
-328.691
-390.711
-436.494
-468.028
-486.4
-492.173
-485.786
-468.093
-441.233
-408.286
-372.517
-336.699
-302.565
-270.929
-242.342
-217.117
-195.22
-176.396
-160.257
-146.36
-134.273
-123.616
-114.079
-105.422
-97.4676
-90.0972
-83.2343
-76.8344
-70.8747
-65.3461
-60.2435
-55.5637
-51.3004
-47.4427
-43.9762
-40.8832
-38.144
-35.7369
-33.6394
-31.828
-30.2788
-28.9677
-27.8702
-26.9617
-26.2175
-25.6127
-25.1221
-24.7211
-24.3873
-24.1016
-23.8474
-23.5885
-23.305
-3662.31
-3850.68
-4098.52
-4340.42
-4547.98
-4658.22
-4666.11
-4595.15
-4473.45
-4316.84
-4127.61
-3905.41
-3653.62
-3380.2
-3096.73
-2816.46
-2549.87
-2302.57
-2074.72
-1862.96
-1664.43
-1480.96
-1320.35
-1185.63
-1076.25
-980.675
-883.267
-773.844
-652.174
-525.406
-403.572
-295.97
-209.427
-146.232
-104.452
-80.1078
-68.9325
-67.1326
-71.5469
-79.584
-89.0866
-98.4029
-106.267
-111.788
-114.524
-114.476
-111.989
-107.596
-101.871
-95.3242
-88.3614
-81.2786
-74.2816
-67.5108
-61.0625
-55.0029
-49.3767
-44.213
-39.5266
-35.3202
-31.5861
-28.3082
-25.4643
-23.0285
-20.9728
-19.2676
-17.8834
-16.7902
-15.9587
-15.3597
-14.9641
-14.7434
-14.6685
-14.71
-14.8395
-15.0446
-15.291
-15.5595
-15.8163
-16.1008
-4339.7
-4140.85
-3855.74
-3514.06
-3105.66
-2722.4
-2434.31
-2280.32
-2248.34
-2300.16
-2403.02
-2531.49
-2661.01
-2768.56
-2838.16
-2860.7
-2836.32
-2773.46
-2682.11
-2562.7
-2402.45
-2187.53
-1922.93
-1642.73
-1392.3
-1196.95
-1052.6
-941.98
-854.033
-780.037
-715.605
-659.351
-609.686
-564.873
-523.007
-482.279
-441.704
-401.051
-360.627
-321.076
-283.182
-247.71
-215.263
-186.178
-160.502
-138.046
-118.497
-101.507
-86.7549
-73.9615
-62.8866
-53.3148
-45.0474
-37.9004
-31.7081
-26.3288
-21.6478
-17.5755
-14.0442
-11.0022
-8.40859
-6.22942
-4.43496
-2.99809
-1.89307
-1.09481
-0.578405
-0.318776
-0.290506
-0.467733
-0.824
-1.33226
-1.96539
-2.69691
-3.50459
-4.35023
-5.22415
-6.10729
-6.97121
-7.92318
2810.33
2710.87
2579.82
2429.96
2249.45
2022.47
1721.32
1361.44
990.34
656.295
396.785
235.991
182.581
223.528
326.915
446.983
526.91
495.362
295.93
-57.8325
-477.637
-845.043
-1060.35
-1092.89
-998.816
-863.391
-737.413
-631.329
-542.145
-467.556
-407.24
-360.828
-326.941
-302.032
-283.401
-268.476
-255.461
-242.461
-227.909
-211.005
-191.737
-170.712
-148.876
-127.232
-106.625
-87.645
-70.6124
-55.6245
-42.6194
-31.4399
-21.8886
-13.7642
-6.88058
-1.07352
3.79861
7.8565
11.2024
13.923
16.0918
17.7714
19.0156
19.8702
20.3751
20.5648
20.4701
20.119
19.5375
18.7502
17.7813
16.655
15.3957
14.0283
12.578
11.0704
9.53319
7.99123
6.46795
4.99181
3.60635
2.21324
4375.07
4301.35
4158.14
3962.2
3808.02
3747.31
3748.39
3737.05
3649.31
3460.24
3180.38
2842.46
2485.31
2144.64
1845.06
1594.82
1385.92
1208.1
1061.02
940.868
826.775
691.555
527.126
354.133
205.68
102.55
44.5311
18.7173
10.5527
9.23863
8.6249
7.3383
7.32289
10.9195
19.3647
32.9356
50.62
67.5701
79.4187
84.8505
85.0126
81.9215
77.3378
72.4425
67.9116
64.0694
61.0196
58.737
57.1274
56.0639
55.4106
55.037
54.8268
54.6828
54.5277
54.3029
53.9658
53.4878
52.8506
52.0447
51.0666
49.9177
48.6026
47.1287
45.5051
43.7428
41.8541
39.8526
37.753
35.572
33.3282
31.0417
28.7322
26.4207
24.1284
21.8764
19.6851
17.5762
15.5764
13.7091
-5353.9
-5259.67
-5198.17
-5208.63
-5236.54
-5218.47
-5085.33
-4820.7
-4460.9
-4071.29
-3717.92
-3439.15
-3234.3
-3077.5
-2940.05
-2803.42
-2658.53
-2501.71
-2331.51
-2144.87
-1935.22
-1696.19
-1426.93
-1132.35
-822.98
-517.631
-239.658
-8.11611
166.652
282.741
344.715
361.872
345.978
309.88
268.285
232.367
204.226
183.254
167.909
156.623
148.329
142.248
137.688
134.068
130.955
128.062
125.225
122.366
119.462
116.517
113.544
110.557
107.568
104.584
101.605
98.6308
95.6561
92.6756
89.6829
86.6717
83.6366
80.5732
77.4784
74.3511
71.1916
68.0023
64.7879
61.5556
58.3145
55.076
51.853
48.6591
45.5095
42.419
39.4017
36.4703
33.6348
30.9069
28.2624
25.8733
-5711.94
-5499.43
-5200.78
-4797.05
-4262.53
-3626.26
-2901
-2126.56
-1365.94
-682.303
-118.491
308.135
602.696
786.673
889.888
941.879
964.885
969.273
956.344
924.707
873.337
800.457
700.337
562.777
388.024
232.151
192.066
282.942
418.573
525.099
580.729
588.942
564.887
528.667
495.597
467.454
440.483
412.145
382.574
353.332
325.675
300.276
277.42
257.147
239.344
223.795
210.238
198.394
187.992
178.785
170.554
163.114
156.308
150.007
144.106
138.521
133.184
128.043
123.055
118.189
113.421
108.732
104.109
99.5437
95.0313
90.5691
86.1597
81.8073
77.5185
73.3022
69.1693
65.1316
61.2015
57.3903
53.7078
50.1604
46.7509
43.482
40.3357
37.4556
8342.21
8217.76
8067.46
7910.24
7771.02
7826.3
8060.64
8300.77
8284.23
7818.06
6973.26
6011.61
5129.73
4358.58
3652.65
2985.19
2359.06
1781.43
1256.79
787.296
371.027
4.62028
-313.916
-591.353
-827.617
-998.385
-1088.09
-1106.34
-1060.25
-958.804
-820.739
-664.668
-504.639
-349.876
-208.177
-86.7067
10.2287
82.7044
134.088
168.954
191.632
205.632
213.57
217.307
218.131
216.926
214.294
210.65
206.282
201.391
196.123
190.587
184.861
179.01
173.081
167.114
161.138
155.179
149.257
143.384
137.571
131.824
126.148
120.548
115.028
109.592
104.244
98.991
93.8424
88.8091
83.904
79.141
74.5339
70.0943
65.8302
61.7436
57.8329
54.0812
50.502
47.1031
-11906
-10972.6
-9783.67
-8611.62
-7524.53
-6537.43
-5396.7
-3929.15
-2372.73
-1228.1
-702.687
-574.807
-582.196
-625.65
-687.646
-764.016
-850.313
-939.521
-1026.45
-1110.08
-1191.81
-1275.3
-1366.51
-1463.12
-1518.89
-1468.33
-1321.44
-1148.28
-988.387
-844.757
-713.342
-590.852
-475.709
-367.892
-268.413
-178.585
-99.3428
-30.9577
26.91
74.9808
114.154
145.394
169.672
187.935
201.08
209.939
215.264
217.724
217.899
216.279
213.274
209.219
204.383
198.979
193.175
187.1
180.851
174.503
168.115
161.72
155.345
149.011
142.73
136.513
130.366
124.3
118.325
112.451
106.695
101.075
95.6104
90.3225
85.2295
80.3447
75.6726
71.2079
66.9381
62.8391
58.9135
55.1393
2668.02
2566.96
2451.23
2244.18
1832.1
1171.51
290.88
-763.247
-1833.04
-2661.27
-3101.93
-3185.83
-3029.9
-2755.68
-2435.24
-2092.29
-1735
-1376.13
-1034.97
-731.699
-482.934
-297.798
-176.425
-110.123
-83.5054
-78.8339
-80.4018
-74.9892
-55.4638
-23.1322
17.1368
60.7985
105.009
147.469
185.204
215.361
236.871
250.9
259.444
264.337
266.898
267.724
267.3
265.884
263.55
260.339
256.319
251.592
246.281
240.507
234.382
228.001
221.434
214.742
207.985
201.186
194.371
187.564
180.772
174.012
167.289
160.609
153.977
147.401
140.89
134.456
128.113
121.881
115.783
109.842
104.089
98.5466
93.2355
88.1624
83.3188
78.6825
74.223
69.9126
65.7252
61.6789
10793
10481.6
10095.1
9841.43
9832.49
10116.1
10472.4
10790.4
11027.2
11051.8
10733.4
10048.5
9081.68
7977.88
6875.94
5867.04
4992
4257.29
3650.28
3148.83
2727.66
2363.86
2041.25
1751.87
1495.33
1275.14
1093.63
949.508
839.769
757.81
689.993
624.509
557.555
490.836
427.663
371.013
324.421
290.137
268.199
257.396
254.606
256.617
260.175
263.005
264.044
263.127
260.561
256.769
252.115
246.855
241.187
235.234
228.881
222.249
215.425
208.495
201.514
194.526
187.548
180.601
173.697
166.846
160.058
153.345
146.72
140.196
133.789
127.515
121.395
115.452
109.707
104.179
98.8742
93.7888
88.9032
84.1889
79.6153
75.1579
70.8067
66.6019
6340.36
6001.4
5544.95
5035.23
4435.28
3889
3417.96
3023.87
2705.57
2455.11
2260.76
2112.63
2003.62
1927.43
1876.08
1839.68
1804.9
1747.84
1631.17
1427.56
1153.7
863.908
619.101
465.82
403.317
383.944
365.515
341.471
324.103
320.831
328.851
341.271
354.379
370.465
392.118
416.105
435.08
443.614
441.378
432.002
420.785
410.373
400.661
390.242
377.886
363.3
347.027
329.953
312.913
296.48
280.757
265.802
252.252
239.967
228.778
218.533
209.083
200.29
192.027
184.19
176.697
169.484
162.505
155.728
149.129
142.698
136.433
130.336
124.418
118.688
113.152
107.814
102.664
97.6883
92.8619
88.1575
83.5467
79.0009
74.4965
69.943
-61.4564
-55.6826
-50.4205
-45.653
-41.3616
-37.5093
-34.0595
-30.9669
-28.1874
-25.6814
-23.4179
-21.3757
-19.5412
-17.9039
-16.4513
-15.1652
-14.021
-12.9889
-12.0371
-11.136
-10.2589
-9.41155
-8.56638
-7.74686
-6.95505
-6.19832
-5.48236
-4.81205
-4.1901
-3.61572
-3.08639
-2.59878
-2.14981
-1.73729
-1.36005
-1.01747
-0.709109
-0.434316
-0.192066
0.0192435
0.201709
0.357662
0.489457
0.59936
0.689414
0.761273
0.816143
0.854851
0.877933
0.885632
0.877894
0.854443
0.814856
0.75849
0.684224
0.590111
0.47307
0.328699
0.151419
-0.0648247
-0.325164
-0.632024
-0.983567
-1.37294
-1.78858
-2.2153
-2.63587
-3.03248
-3.38801
-3.68689
-3.91555
-4.06301
-4.12112
-4.08509
-3.95568
-3.73731
-3.43932
-3.0752
-2.66153
-2.21619
-1.75641
-1.2972
-0.850477
-0.424786
-0.0255944
0.344125
0.683206
0.991672
1.27026
1.52009
1.74247
1.93883
2.11069
2.25968
2.38754
2.49608
2.58717
2.66262
2.72416
2.77344
2.81194
2.84099
2.86177
2.87531
2.88245
2.88389
2.88022
2.87191
2.85935
2.84278
2.82228
2.79785
2.76936
2.73664
2.6994
2.65726
2.60972
2.55623
2.4962
2.42896
2.3537
2.26941
2.17492
2.06889
1.94988
1.81625
1.66625
1.49799
1.30963
1.09944
0.865935
0.607892
0.324448
0.015212
-0.319587
-0.678993
-1.06126
-1.46383
-1.88334
-2.31554
-2.75533
-3.19678
-3.63326
-4.05758
-4.46217
-4.83935
-5.18181
-5.48244
-5.7342
-5.93105
-6.0678
-6.14064
-6.14707
-6.08599
-5.95775
-5.76417
-5.50849
-5.19523
-4.83002
-4.4194
-3.97061
-3.4914
-2.98985
-2.47407
-1.95207
-1.43147
-0.919451
-0.422563
0.0533429
0.503204
0.922848
1.30908
1.65972
1.97358
2.25032
2.49032
2.69445
2.864
3.00059
3.10604
3.18228
3.23128
3.25489
3.25477
3.23225
3.18828
3.12335
3.03758
2.93076
2.80248
2.65221
2.47937
2.28338
2.06359
1.81929
1.54991
1.25429
0.932855
0.582561
0.207655
-57.4545
-51.9853
-46.9897
-42.4539
-38.3844
-34.7439
-31.4958
-28.5885
-25.9686
-23.587
-21.4059
-19.4023
-17.5663
-15.8953
-14.3884
-13.0412
-11.8417
-10.7696
-9.79996
-8.907
-8.0669
-7.26419
-6.49815
-5.7671
-5.07788
-4.43075
-3.82615
-3.26461
-2.7454
-2.26738
-1.82775
-1.42336
-1.05185
-0.711946
-0.403165
-0.125381
0.121571
0.338174
0.525486
0.685192
0.819397
0.930337
1.02022
1.09109
1.14467
1.18227
1.20475
1.21265
1.2062
1.18533
1.14968
1.0987
1.03171
0.947754
0.845275
0.72179
0.573544
0.395363
0.180907
-0.07639
-0.381691
-0.736867
-1.139
-1.57982
-2.04619
-2.5214
-2.98685
-3.42359
-3.81355
-4.14034
-4.38964
-4.54972
-4.61147
-4.56933
-4.42405
-4.18048
-3.84925
-3.44581
-2.98929
-2.50025
-1.99827
-1.50018
-1.01895