/*--------------------------------*- C++ -*----------------------------------*\
| =========                 |                                                 |
| \\      /  F ield         | OpenFOAM: The Open Source CFD Toolbox           |
|  \\    /   O peration     | Version:  2012                                  |
|   \\  /    A nd           | Website:  www.openfoam.com                      |
|    \\/     M anipulation  |                                                 |
\*---------------------------------------------------------------------------*/
FoamFile
{
    version     2.0;
    format      ascii;
    class       volVectorField;
    location    "0.99";
    object      U;
}
// * * * * * * * * * * * * * * * * * * * * * * * * * * * * * * * * * * * * * //

dimensions      [0 1 -1 0 0 0 0];


internalField   nonuniform List<vector> 
42400
(
(5.26937 -4.16719 -4.62169e-17)
(24.1735 -20.4574 -6.64107e-17)
(46.2961 -43.7907 6.77901e-17)
(60.7708 -59.291 0)
(61.6744 -63.3142 0)
(52.2648 -56.736 4.76621e-19)
(34.6822 -43.0487 0)
(11.4053 -25.5052 -4.74432e-19)
(-12.6189 -7.7125 0)
(-30.7997 5.89587 -4.79075e-19)
(-39.2107 12.4762 -4.75106e-19)
(-38.4808 12.5058 4.62785e-19)
(-32.1412 9.00793 5.3697e-17)
(-23.9758 5.40007 -5.46594e-17)
(-16.5503 3.87241 3.95758e-19)
(-10.6724 4.92024 0)
(-5.43274 7.02952 0)
(-0.0101426 8.88997 0)
(5.2935 10.9192 0)
(9.66076 13.8917 0)
(12.4554 17.9063 0)
(13.5866 22.4179 6.91484e-19)
(13.4265 26.6565 5.57145e-17)
(12.457 30.0702 -2.17039e-18)
(11.1196 32.4377 -5.39733e-17)
(9.7512 33.7762 4.92962e-19)
(8.54177 34.2463 4.39882e-19)
(7.5624 34.0458 -7.88234e-19)
(6.79052 33.3663 0)
(6.16407 32.3701 0)
(5.64728 31.1578 -2.98528e-17)
(5.25281 29.7665 3.01759e-17)
(5.02122 28.1838 -4.636e-19)
(4.98881 26.3575 1.925e-17)
(5.14205 24.2518 -1.90573e-17)
(5.41976 21.8855 0)
(5.73593 19.3407 0)
(6.00705 16.7466 0)
(6.17986 14.2451 0)
(6.24199 11.9597 5.99693e-18)
(6.20764 9.9676 -6.01977e-18)
(6.10043 8.29009 3.9235e-18)
(5.94596 6.90437 -9.33584e-19)
(5.7667 5.75985 -5.63424e-18)
(5.58054 4.79713 2.47582e-18)
(5.40059 3.96186 -1.64029e-18)
(5.23517 3.21197 3.07531e-18)
(5.08741 2.51949 -1.356e-18)
(4.95625 1.86791 -4.20632e-20)
(4.83962 1.24984 7.24453e-19)
(4.73628 0.661821 -1.27915e-18)
(4.64516 0.0997655 1.11872e-19)
(4.56675 -0.439866 4.27783e-19)
(4.5022 -0.960499 -3.30851e-21)
(4.45451 -1.46663 0)
(4.42657 -1.96039 0)
(4.42026 -2.44152 0)
(4.4372 -2.90756 -1.32915e-20)
(4.47877 -3.35404 -1.40434e-20)
(4.54608 -3.77481 0)
(4.63963 -4.1625 -7.69322e-20)
(4.75896 -4.50904 8.81294e-20)
(4.90252 -4.80623 6.19661e-20)
(5.06789 -5.04663 -6.08182e-20)
(5.25243 -5.22453 0)
(5.45414 -5.33696 0)
(5.67216 -5.38461 2.6473e-20)
(5.90658 -5.37221 -2.58781e-20)
(6.15748 -5.30825 -1.56859e-20)
(6.42327 -5.20384 0)
(6.69901 -5.07131 0)
(6.97567 -4.92247 -1.40722e-20)
(7.24102 -4.76748 -1.303e-20)
(7.48209 -4.61425 0)
(7.68815 -4.46832 -1.02217e-20)
(7.85288 -4.33305 -2.49821e-21)
(7.9748 -4.20994 2.42319e-21)
(8.05653 -4.09874 1.10396e-20)
(8.10214 -4.00024 -1.84584e-20)
(8.10632 -3.93378 -2.12949e-20)
(-0.213159 -0.378055 0)
(0.562747 -2.49291 -5.35996e-17)
(-2.46659 -8.81999 5.52528e-17)
(-8.28997 -15.0837 0)
(-21.2669 -18.8321 0)
(-42.8671 -15.6977 -5.82793e-17)
(-68.4501 -9.28912 5.91315e-17)
(-86.1398 -8.67609 4.77002e-19)
(-84.9795 -20.8188 0)
(-67.1067 -42.0823 4.84235e-19)
(-43.847 -63.0404 4.8128e-19)
(-22.3425 -78.6314 6.10961e-17)
(-4.19923 -88.3475 -6.6657e-18)
(9.62787 -92.4438 -5.78813e-17)
(18.2247 -90.857 -4.51411e-17)
(22.0214 -84.4605 4.50769e-17)
(23.3022 -75.9412 0)
(24.0272 -67.5425 -2.89762e-19)
(24.267 -59.2785 0)
(23.0696 -49.8413 0)
(19.2898 -38.0956 0)
(12.4871 -24.2773 2.89568e-17)
(3.50889 -10.282 -5.05908e-18)
(-6.04077 1.70959 -2.69605e-17)
(-14.323 10.5682 0)
(-19.8156 16.1848 -2.96287e-19)
(-21.9841 19.0413 -4.41021e-19)
(-21.4204 19.9442 7.89767e-19)
(-19.2985 19.7645 5.57761e-18)
(-16.7025 19.1966 -5.6397e-18)
(-14.3103 18.6649 1.84341e-19)
(-12.4208 18.3475 1.61066e-19)
(-11.096 18.2471 5.63447e-18)
(-10.252 18.277 -5.36648e-18)
(-9.72178 18.2795 -5.78026e-18)
(-9.29142 18.0638 5.59338e-18)
(-8.72934 17.4804 0)
(-7.87459 16.4408 -1.15196e-19)
(-6.69577 14.9668 0)
(-5.29048 13.1855 -1.82713e-19)
(-3.83645 11.2853 3.14083e-18)
(-2.51508 9.45149 -3.30902e-18)
(-1.45181 7.80887 1.88156e-19)
(-0.692585 6.40419 -1.52252e-19)
(-0.21376 5.22098 6.03138e-20)
(0.0490641 4.20848 -9.62422e-20)
(0.171185 3.30913 7.48096e-20)
(0.218578 2.47646 3.84473e-19)
(0.240042 1.68174 -3.97791e-19)
(0.266945 0.910911 0)
(0.31991 0.160101 -1.02937e-20)
(0.409849 -0.568149 2.48623e-20)
(0.546656 -1.26537 -1.86662e-19)
(0.731344 -1.93125 1.75991e-19)
(0.962465 -2.56376 3.80632e-20)
(1.24431 -3.15509 -4.17879e-19)
(1.57702 -3.70151 4.86088e-19)
(1.95749 -4.20066 1.33359e-20)
(2.38057 -4.64973 1.4087e-20)
(2.83912 -5.04558 -3.70827e-19)
(3.32454 -5.38491 3.6498e-19)
(3.8276 -5.66458 -1.24946e-20)
(4.33906 -5.882 -2.25275e-20)
(4.85023 -6.03541 0)
(5.35313 -6.12421 2.16884e-19)
(5.84038 -6.14927 -5.21077e-21)
(6.30492 -6.11326 -2.78912e-19)
(6.7398 -6.0208 0)
(7.13811 -5.87861 5.1895e-20)
(7.49323 -5.69557 -3.5255e-20)
(7.7994 -5.48233 -2.062e-19)
(8.05274 -5.25057 2.14875e-19)
(8.25199 -5.01208 1.90697e-19)
(8.39899 -4.7776 -2.00746e-19)
(8.49844 -4.55572 3.57011e-20)
(8.55696 -4.3521 -1.24716e-19)
(8.58194 -4.16915 8.05214e-20)
(8.58076 -4.00614 -1.10395e-20)
(8.55878 -3.86348 1.06395e-19)
(8.51264 -3.76044 -7.43726e-20)
(-14.6977 11.9917 -1.93563e-18)
(-47.4219 39.1839 4.183e-20)
(-85.2481 70.0748 -9.60891e-20)
(-117.166 95.9176 3.61974e-20)
(-138.19 112.255 0)
(-149.714 121.068 -3.06366e-18)
(-150.662 121.963 4.29021e-18)
(-138.199 112.61 -1.18395e-18)
(-111.604 91.403 -4.21215e-18)
(-75.0319 60.2469 -2.49725e-18)
(-35.4439 23.9379 6.70303e-18)
(1.03509 -12.3952 2.8641e-19)
(30.4314 -44.8098 2.71127e-19)
(50.3091 -70.7996 -9.02604e-18)
(59.6554 -88.8684 9.2098e-18)
(59.8288 -99.53 1.70613e-19)
(54.7316 -105.275 4.07082e-18)
(47.9931 -108.814 -1.84669e-18)
(40.8168 -111.358 -1.49247e-18)
(32.4217 -111.945 -1.59016e-20)
(20.8998 -108.482 -4.28317e-20)
(5.17773 -99.7266 -6.01025e-20)
(-12.1794 -87.1786 0)
(-25.5687 -74.8616 2.06131e-19)
(-30.598 -66.4247 -1.05987e-17)
(-27.7796 -62.215 2.28785e-17)
(-21.6082 -59.5447 -1.26356e-17)
(-16.1653 -55.7632 1.15446e-17)
(-12.8257 -50.1066 -1.16924e-17)
(-11.2715 -43.1167 -8.02626e-18)
(-10.8441 -35.6239 1.37145e-17)
(-10.973 -28.3248 -1.40207e-18)
(-11.2352 -21.7452 -4.7113e-18)
(-11.3749 -16.2384 0)
(-11.3007 -11.9186 0)
(-11.0293 -8.65105 -1.32493e-19)
(-10.6214 -6.19608 0)
(-10.0635 -4.35512 1.33758e-19)
(-9.35093 -3.01361 1.96304e-18)
(-8.53262 -2.09169 -3.35224e-18)
(-7.69872 -1.49749 1.78499e-18)
(-6.93785 -1.13775 0)
(-6.29637 -0.93896 0)
(-5.77086 -0.854958 5.19223e-19)
(-5.3257 -0.861692 -4.57209e-19)
(-4.91673 -0.946995 5.63713e-20)
(-4.50651 -1.10248 0)
(-4.07124 -1.31984 0)
(-3.59955 -1.59025 -2.43793e-19)
(-3.08807 -1.90395 2.42615e-19)
(-2.53641 -2.24832 1.03364e-20)
(-1.95201 -2.61533 0)
(-1.34101 -2.99879 4.81452e-19)
(-0.702117 -3.38645 -3.9797e-19)
(-0.0381248 -3.76696 7.32705e-19)
(0.642812 -4.13782 -7.39614e-19)
(1.33551 -4.49407 6.41442e-19)
(2.03538 -4.83032 -1.29178e-18)
(2.7377 -5.1417 1.18408e-18)
(3.4376 -5.42344 -4.07241e-20)
(4.12995 -5.67074 -5.1211e-19)
(4.80913 -5.8786 -4.422e-19)
(5.46876 -6.04186 4.56779e-19)
(6.10151 -6.15548 0)
(6.69909 -6.21495 -3.40936e-19)
(7.25252 -6.21692 1.0874e-21)
(7.75265 -6.15996 4.51768e-19)
(8.19093 -6.04508 0)
(8.56032 -5.87657 -8.5526e-20)
(8.85619 -5.66208 -3.08878e-19)
(9.07725 -5.41233 2.87863e-19)
(9.22601 -5.14049 0)
(9.30878 -4.8609 0)
(9.33504 -4.58741 2.80048e-20)
(9.31619 -4.33165 -2.54735e-20)
(9.26398 -4.10162 -1.56515e-19)
(9.18916 -3.90091 2.58795e-19)
(9.10069 -3.72892 0)
(9.00419 -3.58515 -3.06214e-20)
(8.89694 -3.48474 -1.38155e-19)
(2.80226 -1.95935 -1.09342e-17)
(4.55176 -3.73881 1.55372e-17)
(3.46159 2.42388 -7.69746e-18)
(-0.330022 9.38657 -5.74366e-18)
(-1.99481 18.6694 5.65541e-18)
(-2.57957 28.3861 0)
(-2.49888 38.447 1.13259e-17)
(-1.7766 48.2689 -1.10902e-17)
(-0.676524 56.8114 3.55243e-17)
(0.341176 63.4061 -3.61368e-17)
(0.665505 67.7039 5.45414e-17)
(-0.0736678 69.6301 -1.15111e-16)
(-1.86923 69.2523 1.19295e-16)
(-4.43478 66.765 -1.16188e-16)
(-7.44117 62.5435 1.05647e-16)
(-10.5391 57.1485 -4.96718e-17)
(-13.2719 51.1026 -2.89612e-17)
(-14.9899 44.3687 4.70233e-17)
(-14.3716 36.1869 -1.83312e-17)
(-10.0447 25.9386 1.53936e-20)
(-2.34515 14.247 -5.82951e-20)
(6.24257 3.20597 6.31072e-18)
(13.7323 -4.98197 -6.18382e-18)
(20.11 -9.83911 2.1914e-20)
(26.0474 -12.641 0)
(31.6806 -14.8553 1.31611e-19)
(36.4281 -17.1664 0)
(39.6521 -19.4265 7.63901e-18)
(41.076 -20.9469 -5.82726e-19)
(40.5189 -20.9937 -7.02312e-18)
(37.8777 -19.4018 -5.08191e-18)
(33.2728 -16.3242 5.0013e-18)
(26.7823 -11.8859 1.07408e-19)
(18.699 -6.59997 1.13073e-20)
(10.2504 -1.55889 1.5919e-18)
(3.19324 2.17743 -1.65651e-18)
(-1.52243 4.16891 0)
(-4.08009 4.67716 -3.61045e-18)
(-5.20604 4.28931 3.61512e-18)
(-5.57933 3.50895 -5.56965e-20)
(-5.61527 2.6337 1.86238e-19)
(-5.51054 1.80174 0)
(-5.33881 1.06151 0)
(-5.1167 0.418183 0)
(-4.84141 -0.14031 1.48696e-19)
(-4.50576 -0.630467 -1.97417e-18)
(-4.10659 -1.06732 1.91368e-18)
(-3.64414 -1.46266 0)
(-3.12384 -1.82758 0)
(-2.55395 -2.17192 -1.202e-18)
(-1.94164 -2.50258 1.11577e-18)
(-1.2925 -2.82438 -9.44634e-19)
(-0.615365 -3.14461 7.34975e-19)
(0.0821113 -3.46578 -1.06431e-19)
(0.798551 -3.78605 5.47301e-19)
(1.53038 -4.10413 -6.92878e-19)
(2.2737 -4.41763 9.71101e-19)
(3.02465 -4.7229 -9.00025e-19)
(3.77898 -5.01516 0)
(4.53174 -5.28868 4.31842e-20)
(5.27702 -5.53685 5.79237e-19)
(6.00776 -5.75237 -7.73272e-20)
(6.7156 -5.92755 -1.03404e-18)
(7.3909 -6.05464 9.12025e-19)
(8.02283 -6.12641 -3.97906e-19)
(8.59971 -6.1368 -4.42707e-19)
(9.10968 -6.08157 3.27728e-19)
(9.54146 -5.95945 5.60471e-20)
(9.88545 -5.77299 4.32831e-19)
(10.1353 -5.52893 -4.29492e-19)
(10.2892 -5.23867 1.04087e-19)
(10.3509 -4.91786 4.64833e-19)
(10.3299 -4.58515 -3.98563e-19)
(10.2412 -4.26 0)
(10.1031 -3.9599 3.34395e-19)
(9.9349 -3.69759 -8.90012e-20)
(9.75395 -3.4792 -6.45979e-19)
(9.57365 -3.30389 2.65327e-19)
(9.40126 -3.16846 -2.15829e-19)
(9.23365 -3.08278 2.11333e-19)
(10.395 -4.56321 3.0947e-17)
(16.0304 -7.54449 0)
(10.6866 -1.668 0)
(8.75614 1.35974 9.79751e-20)
(16.0046 1.134 0)
(24.6108 2.44806 0)
(29.0509 7.3873 0)
(29.8002 14.4119 -4.19685e-19)
(29.1408 21.6109 0)
(28.5121 28.0405 -5.40728e-20)
(28.4567 33.4434 8.39202e-17)
(29.0544 37.8607 -1.62952e-16)
(30.1509 41.4437 7.99608e-17)
(31.5003 44.3709 0)
(32.8678 46.768 -4.43613e-19)
(34.0945 48.6251 3.54836e-19)
(35.4596 49.78 0)
(38.1207 49.6306 1.74776e-17)
(43.1477 46.8479 -2.27858e-17)
(49.4995 40.9584 1.06749e-17)
(54.4726 34.0333 -5.24226e-18)
(56.1125 28.5297 -1.70038e-19)
(54.4591 24.6812 0)
(50.6841 21.5412 1.65236e-17)
(45.7935 18.4918 -1.72277e-17)
(40.1675 15.3293 1.39979e-17)
(33.9048 11.9779 -1.43676e-17)
(27.2428 8.4984 -1.07774e-17)
(20.5045 5.05412 1.08943e-17)
(13.7324 1.7552 0)
(6.82722 -1.19865 5.40032e-18)
(-0.0647057 -3.32589 -5.46442e-18)
(-6.42067 -4.42165 -3.24271e-22)
(-11.4842 -4.8 1.28072e-18)
(-14.6337 -4.84654 -1.30364e-18)
(-15.8049 -4.76391 -2.32427e-20)
(-15.5147 -4.60286 7.27914e-20)
(-14.4393 -4.33891 1.80985e-18)
(-13.0724 -3.96871 -1.81718e-18)
(-11.678 -3.53698 -2.40106e-18)
(-10.3616 -3.10984 -3.43246e-19)
(-9.15164 -2.74303 2.827e-18)
(-8.04501 -2.46778 0)
(-7.02514 -2.29121 -1.61738e-19)
(-6.07441 -2.20347 2.11314e-18)
(-5.17626 -2.18677 -4.79395e-18)
(-4.31849 -2.2234 4.29653e-18)
(-3.49235 -2.29928 -1.93364e-18)
(-2.69159 -2.40467 0)
(-1.91033 -2.53761 -9.57445e-20)
(-1.1445 -2.70004 1.31467e-18)
(-0.388155 -2.89186 -1.31117e-18)
(0.368708 -3.10706 -8.42308e-21)
(1.13234 -3.34028 8.61048e-19)
(1.90469 -3.59014 -6.699e-19)
(2.68744 -3.85202 6.31677e-19)
(3.48059 -4.1201 5.14489e-19)
(4.28218 -4.38834 -1.1139e-18)
(5.08857 -4.6506 7.65691e-19)
(5.89459 -4.9006 -7.9732e-19)
(6.69358 -5.13168 0)
(7.47718 -5.33661 3.34879e-20)
(8.23511 -5.50752 4.72225e-19)
(8.95504 -5.63596 -4.05598e-19)
(9.62259 -5.71316 -1.07528e-19)
(10.2217 -5.73088 0)
(10.7356 -5.68244 -4.58466e-19)
(11.148 -5.56379 3.92672e-19)
(11.4455 -5.37464 5.67197e-20)
(11.6192 -5.11976 6.00672e-20)
(11.6671 -4.8097 -1.16922e-19)
(11.5959 -4.461 4.35244e-21)
(11.4213 -4.09527 5.05442e-19)
(11.1675 -3.73692 -4.35466e-19)
(10.8642 -3.40949 5.09129e-20)
(10.5418 -3.13142 0)
(10.227 -2.91253 3.97734e-19)
(9.93824 -2.75265 -3.10763e-19)
(9.68355 -2.64572 0)
(9.4582 -2.59288 2.25594e-19)
(-10.0325 6.3414 6.45685e-19)
(-31.8784 12.5449 6.38141e-17)
(-36.8538 15.5858 -5.95082e-17)
(-17.4641 -1.74428 1.16935e-16)
(16.3203 -20.1758 -5.7726e-17)
(35.1469 -27.319 -7.21709e-19)
(33.4479 -20.6473 -4.61993e-17)
(23.2082 -7.81172 4.8037e-17)
(14.1166 4.71447 6.45057e-19)
(8.29147 14.7207 6.65371e-19)
(4.85767 22.3771 3.43652e-17)
(2.55044 28.4763 2.79955e-17)
(0.241327 33.6856 -6.43506e-17)
(-2.83794 38.3754 5.33212e-17)
(-6.95435 42.6256 -1.01692e-16)
(-12.0378 46.2481 4.94346e-17)
(-17.859 48.9154 0)
(-23.8716 50.2282 0)
(-29.1028 49.7656 -3.07612e-17)
(-32.5441 47.4428 4.77695e-18)
(-33.9596 43.6029 2.62941e-17)
(-34.1032 38.9786 -1.76558e-17)
(-33.87 34.2699 3.23322e-17)
(-33.6743 29.7577 -1.437e-17)
(-33.5031 25.5082 -1.00001e-17)
(-33.2581 21.4864 1.14039e-18)
(-32.8354 17.6446 9.50351e-18)
(-32.1294 13.9738 -1.99969e-20)
(-31.063 10.4963 3.64876e-20)
(-29.6184 7.20259 -9.40766e-20)
(-27.7531 4.09073 0)
(-25.4186 1.23717 -6.06779e-18)
(-22.6011 -1.26859 1.1506e-17)
(-19.3353 -3.38028 -5.41893e-18)
(-15.7797 -5.07995 0)
(-12.222 -6.33831 3.71878e-18)
(-8.9945 -7.12317 -3.73784e-18)
(-6.36256 -7.41796 0)
(-4.44465 -7.24968 0)
(-3.1903 -6.71288 2.98157e-18)
(-2.46704 -5.96066 -3.07475e-18)
(-2.0956 -5.14063 -1.05941e-20)
(-1.90424 -4.37117 0)
(-1.75719 -3.72437 -2.29427e-18)
(-1.56698 -3.22376 3.36949e-19)
(-1.29225 -2.85733 2.40528e-18)
(-0.92666 -2.59783 1.28161e-19)
(-0.486628 -2.42337 -2.35479e-19)
(0.00269728 -2.31862 0)
(0.527284 -2.27343 1.5002e-18)
(1.0848 -2.28015 -2.64272e-18)
(1.67683 -2.33631 1.31254e-18)
(2.30724 -2.43909 1.30342e-19)
(2.98063 -2.58273 9.28389e-19)
(3.69758 -2.75908 -2.10704e-19)
(4.45428 -2.95915 -1.26909e-18)
(5.24347 -3.17446 4.40013e-19)
(6.0557 -3.39774 0)
(6.88049 -3.62295 0)
(7.70701 -3.8449 -3.91406e-20)
(8.52432 -4.05822 -3.33064e-20)
(9.32071 -4.25692 0)
(10.0831 -4.43385 -3.81387e-19)
(10.7963 -4.58028 3.75133e-19)
(11.443 -4.6864 4.56267e-19)
(12.0041 -4.74224 7.55166e-20)
(12.4595 -4.73873 -3.56457e-19)
(12.7906 -4.66904 4.63255e-19)
(12.9821 -4.5299 -4.52369e-19)
(13.0252 -4.32289 -4.56143e-22)
(12.9198 -4.05553 -4.30917e-19)
(12.6766 -3.742 4.18966e-19)
(12.3185 -3.40298 4.04593e-19)
(11.8791 -3.06404 -5.03316e-19)
(11.3992 -2.75211 3.52395e-19)
(10.9207 -2.49031 -3.91554e-19)
(10.479 -2.29289 3.32615e-19)
(10.097 -2.16224 -6.19945e-19)
(9.78165 -2.09148 2.4101e-20)
(9.52382 -2.0749 2.42006e-20)
(-15.3866 9.51443 -2.68373e-17)
(-20.3016 8.83428 -3.97928e-19)
(7.41105 -3.3533 3.95609e-17)
(50.077 -31.6032 -7.92689e-17)
(93.5066 -59.6316 4.01213e-17)
(125.678 -85.0911 -3.89431e-17)
(139.895 -102.283 3.95787e-19)
(135.995 -108.995 4.09447e-17)
(119.732 -107.947 -3.88881e-17)
(98.6471 -103.392 3.88843e-17)
(77.753 -98.3288 -3.50265e-17)
(58.7665 -93.7686 3.58606e-17)
(41.1841 -89.2905 -2.94839e-17)
(23.7338 -83.9057 2.96414e-17)
(5.55718 -76.8833 -3.82376e-19)
(-13.129 -68.2373 -3.2772e-19)
(-30.6374 -58.8191 -2.23986e-17)
(-43.7775 -50.2527 2.28416e-17)
(-49.3902 -44.4037 3.00373e-19)
(-47.3298 -41.922 8.16662e-20)
(-41.4156 -41.1817 1.34961e-17)
(-36.0238 -39.5702 -1.35147e-17)
(-32.6235 -36.1042 0)
(-30.4784 -31.7643 -1.06496e-19)
(-28.6112 -27.4111 0)
(-26.4956 -23.2771 0)
(-23.9969 -19.4174 -6.9877e-21)
(-21.1862 -15.9116 -4.73496e-18)
(-18.1802 -12.8315 4.74898e-18)
(-15.081 -10.2156 1.36941e-18)
(-11.9538 -8.07708 -1.28707e-18)
(-8.82297 -6.4086 -1.00955e-19)
(-5.70857 -5.17171 9.35485e-20)
(-2.6861 -4.29754 0)
(0.0875695 -3.69091 1.08069e-19)
(2.40066 -3.23478 0)
(4.05399 -2.80563 0)
(4.94121 -2.29258 1.05158e-19)
(5.05323 -1.66074 0)
(4.53381 -0.935153 0)
(3.64691 -0.181168 -2.24335e-18)
(2.68702 0.513276 2.08764e-18)
(1.88438 1.06065 0)
(1.36626 1.41435 0)
(1.15732 1.5708 0)
(1.20843 1.55524 1.59536e-19)
(1.43626 1.40808 -1.27558e-19)
(1.76414 1.18141 -1.73863e-18)
(2.1434 0.921473 1.84853e-18)
(2.55291 0.650453 -1.50518e-18)
(2.99907 0.374396 1.67472e-18)
(3.50181 0.0919573 -1.56259e-19)
(4.07827 -0.198993 -7.02154e-20)
(4.73358 -0.497793 0)
(5.45971 -0.800467 0)
(6.23943 -1.10153 5.2349e-19)
(7.05183 -1.39616 -2.63316e-20)
(7.87689 -1.68153 -5.02044e-19)
(8.69804 -1.95692 3.53496e-19)
(9.50274 -2.22274 -3.52339e-19)
(10.2815 -2.47912 -4.81509e-19)
(11.026 -2.72445 4.75396e-20)
(11.7265 -2.95429 8.46034e-19)
(12.37 -3.16123 -4.17321e-19)
(12.9392 -3.33551 -2.7119e-20)
(13.4134 -3.46637 -5.11479e-20)
(13.7702 -3.5436 -4.42155e-19)
(13.9886 -3.5591 8.91269e-19)
(14.0527 -3.50814 -4.48333e-19)
(13.9542 -3.39034 -5.95144e-20)
(13.6958 -3.21054 -4.72392e-19)
(13.2929 -2.97955 5.15108e-19)
(12.7743 -2.71453 0)
(12.1814 -2.43837 5.3902e-20)
(11.5638 -2.17718 0)
(10.9716 -1.95558 -3.44103e-19)
(10.4466 -1.79107 2.3369e-20)
(10.0137 -1.68972 3.01002e-19)
(9.67708 -1.64669 -1.87502e-19)
(9.42126 -1.65399 -2.97414e-20)
(8.88548 -1.14694 -5.93509e-17)
(18.357 -0.328905 8.93276e-17)
(15.2541 5.37527 2.53923e-19)
(2.68566 15.3525 8.33013e-17)
(-16.2877 25.0119 -8.51404e-17)
(-35.5355 33.7108 7.79135e-17)
(-51.335 39.8956 -1.53255e-16)
(-61.5154 43.3814 7.49493e-17)
(-65.9649 44.7202 -6.36775e-17)
(-65.9245 44.7486 6.45367e-17)
(-62.8868 44.0893 0)
(-57.8407 42.953 3.24095e-19)
(-51.3739 41.3923 -3.95343e-19)
(-43.8775 39.517 0)
(-35.8582 37.5481 0)
(-27.926 35.6881 0)
(-20.6814 34.0853 0)
(-14.643 32.8756 1.68181e-19)
(-10.0497 31.9512 0)
(-6.74123 30.8674 -2.66826e-18)
(-4.14496 29.2111 2.52253e-18)
(-1.66178 26.823 -6.99309e-19)
(1.12878 23.4663 5.81704e-19)
(4.34304 19.0915 5.41235e-18)
(7.65603 14.4966 -5.49134e-18)
(10.3697 10.7672 7.58061e-18)
(11.8623 8.45052 -7.69471e-18)
(11.9944 7.45211 7.64687e-18)
(11.1125 7.36774 -2.8015e-19)
(9.76439 7.74596 -7.69203e-18)
(8.43107 8.21746 0)
(7.39734 8.54194 -2.4203e-19)
(6.74111 8.60678 -2.28167e-19)
(6.38563 8.39919 0)
(6.17319 7.9677 -1.07802e-19)
(5.94259 7.38649 0)
(5.58982 6.73277 0)
(5.09128 6.08178 -5.38101e-18)
(4.48541 5.49735 1.00929e-17)
(3.83983 5.02117 -4.96341e-18)
(3.22552 4.66245 -4.13551e-18)
(2.70373 4.40341 4.27811e-18)
(2.31637 4.2143 1.12121e-19)
(2.07902 4.0588 0)
(1.9846 3.90282 -3.1982e-18)
(2.01506 3.72419 2.84804e-18)
(2.15202 3.51018 0)
(2.38253 3.25473 0)
(2.70923 2.95473 1.80149e-18)
(3.14398 2.62091 -2.02149e-18)
(3.69509 2.26569 -1.65782e-18)
(4.35825 1.90062 1.54123e-18)
(5.11661 1.5356 1.16006e-18)
(5.94389 1.17845 -2.00963e-18)
(6.80973 0.834766 9.20163e-19)
(7.68467 0.507308 1.77015e-19)
(8.54411 0.195792 0)
(9.3708 -0.102828 -6.69462e-20)
(10.1555 -0.393436 3.48544e-19)
(10.8957 -0.681213 -7.0608e-19)
(11.593 -0.969692 3.43532e-19)
(12.2485 -1.25895 0)
(12.8584 -1.54458 2.95536e-20)
(13.4113 -1.81791 0)
(13.8877 -2.06738 2.70889e-20)
(14.2623 -2.28054 3.01444e-20)
(14.5088 -2.4461 5.88799e-20)
(14.6046 -2.55534 4.61018e-19)
(14.5353 -2.603 -3.94114e-19)
(14.2973 -2.5877 5.424e-20)
(13.8998 -2.51222 4.32555e-19)
(13.3657 -2.38395 -5.2486e-19)
(12.7311 -2.21538 3.83327e-19)
(12.0434 -2.02414 -3.72826e-19)
(11.3566 -1.83174 3.59774e-19)
(10.7229 -1.66019 -2.79517e-19)
(10.1833 -1.52712 -2.6214e-19)
(9.75901 -1.44145 2.54135e-19)
(9.44843 -1.40216 -5.93254e-20)
(9.22815 -1.40577 5.28689e-20)
(6.32998 -4.15077 -1.60275e-17)
(0.0247431 -5.6582 -2.24011e-17)
(-17.5042 -1.39375 4.31705e-17)
(-26.3237 -2.70202 -3.97029e-17)
(-18.4159 -9.56425 1.89204e-17)
(-0.392784 -19.4337 -2.60071e-19)
(20.5575 -28.8476 -7.79701e-18)
(38.2335 -35.4386 1.17183e-17)
(49.5389 -38.3047 -3.4666e-18)
(54.7198 -37.9494 7.6648e-20)
(55.842 -35.4824 4.06194e-19)
(54.8613 -31.8164 -9.10434e-18)
(52.661 -27.4429 9.24883e-18)
(49.2882 -22.4908 -1.18246e-17)
(44.3911 -16.8524 1.20664e-17)
(37.8649 -10.5057 1.29117e-17)
(30.0806 -3.8312 -1.31618e-17)
(21.6828 2.71702 -1.73176e-19)
(13.3567 8.66485 0)
(5.54598 13.8071 -7.662e-18)
(-1.44083 17.9613 7.88215e-18)
(-7.34441 20.9542 -1.82868e-19)
(-11.6631 22.5632 2.79498e-19)
(-13.6232 22.5548 -7.99989e-20)
(-12.9112 20.9292 -1.1791e-19)
(-10.3105 18.1606 0)
(-7.19484 15.0063 1.96527e-19)
(-4.5595 12.0591 3.20162e-19)
(-2.68004 9.57922 9.50492e-18)
(-1.40455 7.5942 -9.78374e-18)
(-0.497898 6.04135 -8.78741e-18)
(0.203596 4.84185 9.00641e-18)
(0.777298 3.92713 2.8352e-20)
(1.25163 3.25558 7.03858e-18)
(1.63 2.80132 -1.31729e-17)
(1.9091 2.53729 6.30451e-18)
(2.08644 2.43651 5.12145e-18)
(2.16779 2.47282 -5.28543e-18)
(2.16922 2.61749 3.00482e-20)
(2.11605 2.84139 1.17267e-19)
(2.03635 3.11061 -1.31963e-19)
(1.95759 3.39105 3.54956e-18)
(1.90768 3.65496 -4.02593e-19)
(1.91263 3.88102 -3.26368e-18)
(1.99566 4.0548 2.9006e-18)
(2.17686 4.16856 -2.70901e-18)
(2.47402 4.22213 0)
(2.89572 4.21296 -2.10078e-18)
(3.44307 4.14331 2.09006e-18)
(4.10762 4.01793 -1.44827e-18)
(4.87218 3.84035 2.71177e-19)
(5.71113 3.61547 1.59625e-19)
(6.59339 3.34916 1.42291e-19)
(7.4862 3.04937 1.25338e-19)
(8.35886 2.72481 9.03751e-19)
(9.18619 2.38361 -4.49086e-20)
(9.95151 2.03181 0)
(10.6485 1.67247 5.92897e-19)
(11.2811 1.30588 -4.61232e-19)
(11.8611 0.930967 0)
(12.4028 0.547518 4.14678e-19)
(12.9155 0.158275 -3.09374e-19)
(13.3973 -0.230026 0)
(13.8328 -0.607121 3.9049e-20)
(14.1951 -0.960846 0)
(14.4525 -1.27912 4.73387e-19)
(14.5762 -1.55147 -1.00248e-18)
(14.5457 -1.76987 4.71352e-19)
(14.3528 -1.92898 -5.61947e-20)
(14.0027 -2.02622 -5.42433e-20)
(13.5135 -2.06212 3.79432e-19)
(12.9154 -2.04072 -3.21172e-19)
(12.2493 -1.97023 3.62806e-20)
(11.5632 -1.86334 3.21591e-20)
(10.9071 -1.73658 -6.56861e-20)
(10.326 -1.6082 -3.36148e-20)
(9.85084 -1.49461 -2.21891e-19)
(9.49295 -1.40668 1.74072e-20)
(9.24307 -1.34831 1.8746e-19)
(9.07344 -1.32484 2.83066e-20)
(-4.95353 2.48886 0)
(-16.1162 6.43302 2.2869e-19)
(-21.8753 11.5816 3.82507e-19)
(-15.8444 11.6104 3.91492e-17)
(-1.38244 10.136 -8.25159e-17)
(10.8331 10.0637 8.95227e-17)
(15.4162 13.6163 -4.68371e-17)
(12.7186 20.3425 0)
(6.12514 28.0675 -4.4181e-19)
(-0.493824 34.1605 5.68575e-17)
(-4.83343 37.1132 -5.86243e-17)
(-7.12175 37.2357 -5.57333e-17)
(-8.79915 35.6542 1.10545e-16)
(-10.8761 33.2666 -4.62068e-18)
(-13.6311 30.6547 -5.84513e-18)
(-16.9588 28.1276 -4.48611e-17)
(-20.594 25.8732 -3.19199e-19)
(-24.1269 24.114 2.85384e-17)
(-27.1784 22.8668 -2.88259e-17)
(-29.4607 22.0543 -1.00139e-19)
(-30.7165 21.5045 -1.56755e-19)
(-30.7151 20.9959 -7.91039e-20)
(-29.2647 20.3181 1.31347e-17)
(-26.442 19.3317 -2.09336e-18)
(-22.7364 18.0732 -1.13457e-17)
(-18.8225 16.7072 -1.41444e-19)
(-15.1804 15.3918 7.32487e-18)
(-11.9467 14.2055 -1.38242e-17)
(-9.07761 13.1692 1.14479e-17)
(-6.49592 12.2885 -5.05896e-18)
(-4.13497 11.5595 0)
(-1.97555 10.9648 5.68373e-18)
(-0.00695695 10.48 -1.00854e-17)
(1.75069 10.0896 4.52739e-18)
(3.25704 9.78514 -3.58406e-18)
(4.47526 9.57212 3.65997e-18)
(5.37826 9.46418 1.36588e-19)
(5.96279 9.47062 0)
(6.25624 9.58557 8.6022e-20)
(6.31455 9.78297 2.97673e-18)
(6.21325 10.0192 -3.14307e-18)
(6.03657 10.2406 4.88975e-20)
(5.8671 10.403 -5.12172e-20)
(5.76893 10.4679 0)
(5.7847 10.4109 0)
(5.93279 10.2204 -2.09842e-18)
(6.20967 9.89997 2.30356e-18)
(6.59432 9.46638 1.23258e-19)
(7.05802 8.9556 1.56556e-18)
(7.57122 8.38972 -3.03081e-18)
(8.10268 7.7868 1.27899e-18)
(8.6271 7.16077 0)
(9.12934 6.52365 -1.03203e-18)
(9.60103 5.88592 9.43086e-19)
(10.0374 5.25687 0)
(10.4374 4.64357 -7.48167e-19)
(10.8037 4.04923 6.94289e-19)
(11.1454 3.47368 -5.84608e-19)
(11.4787 2.91439 4.84589e-19)
(11.8226 2.36779 0)
(12.1911 1.83149 -1.22e-19)
(12.5842 1.30608 -4.70168e-20)
(12.9827 0.795771 3.60116e-19)
(13.3516 0.307642 -6.52417e-20)
(13.649 -0.14984 -3.20959e-19)
(13.8369 -0.568119 0)
(13.889 -0.939217 -3.12222e-20)
(13.7938 -1.25595 0)
(13.5541 -1.51215 0)
(13.1846 -1.70331 3.57693e-19)
(12.7097 -1.82744 -3.48844e-19)
(12.1619 -1.88608 -2.46636e-19)
(11.5794 -1.88501 -7.59506e-21)
(11.0027 -1.83439 2.01652e-19)
(10.4704 -1.74815 2.07774e-19)
(10.0129 -1.64226 -1.74185e-19)
(9.64761 -1.53226 2.18276e-20)
(9.37626 -1.43041 1.11665e-19)
(9.18602 -1.34501 -2.25863e-19)
(9.05276 -1.28866 6.28489e-20)
(-17.6582 5.60036 -8.39293e-17)
(-30.4394 4.64407 6.26334e-17)
(-15.901 -2.37625 5.91556e-17)
(9.87092 -18.7243 -6.05004e-17)
(39.3912 -33.9215 -3.81206e-19)
(71.0844 -51.0639 -3.77885e-19)
(101.077 -68.1794 0)
(121.122 -80.9756 -3.71442e-17)
(122.994 -84.9618 3.78467e-17)
(107.374 -80.0893 0)
(84.0648 -71.1452 1.87986e-17)
(62.4753 -62.5375 -3.38415e-17)
(46.1578 -55.4693 3.14221e-18)
(34.6606 -49.4626 1.95854e-17)
(26.4845 -43.9655 -8.71777e-18)
(20.3769 -38.7338 -3.62118e-19)
(15.5453 -33.5851 4.28614e-19)
(11.576 -28.4992 0)
(8.28513 -23.5044 -2.31402e-18)
(5.60632 -18.6211 2.13044e-18)
(3.53924 -13.8709 1.88804e-19)
(2.12269 -9.31827 -5.36876e-19)
(1.42879 -5.0313 8.18564e-19)
(1.50881 -1.0901 1.22674e-19)
(2.31944 2.45966 -9.45313e-20)
(3.72921 5.62725 1.37231e-19)
(5.53925 8.47015 6.7605e-19)
(7.53443 11.0382 1.73528e-19)
(9.51225 13.3533 -2.08093e-18)
(11.3091 15.4314 -1.10101e-19)
(12.8253 17.2738 1.17212e-18)
(14.005 18.8663 1.16137e-18)
(14.8704 20.1831 -1.18893e-18)
(15.4809 21.2081 0)
(15.8821 21.9368 -2.64606e-20)
(16.0806 22.3722 -2.4964e-20)
(16.0487 22.5217 0)
(15.7616 22.4262 1.03788e-18)
(15.2182 22.1686 -1.0079e-18)
(14.4152 21.8024 4.05147e-20)
(13.4015 21.4017 0)
(12.2234 20.9883 -4.82349e-20)
(10.9547 20.5729 -4.10625e-19)
(9.67174 20.1368 5.08074e-19)
(8.44452 19.6478 0)
(7.33453 19.0719 1.05292e-18)
(6.39247 18.388 -1.24448e-18)
(5.65508 17.596 0)
(5.13472 16.6999 0)
(4.83649 15.7087 9.45089e-20)
(4.7506 14.6198 9.01297e-20)
(4.85955 13.4359 0)
(5.14603 12.1849 -1.47168e-18)
(5.58237 10.8828 1.53975e-18)
(6.13584 9.56723 1.38431e-18)
(6.7681 8.27636 -1.61079e-19)
(7.44669 7.04317 -2.38702e-18)
(8.15082 5.89024 2.11691e-18)
(8.87225 4.83155 -3.21115e-20)
(9.60575 3.87181 -7.79817e-19)
(10.3372 3.00832 6.98119e-20)
(11.038 2.23425 0)
(11.6684 1.54125 0)
(12.1883 0.921215 -3.50968e-19)
(12.5675 0.367486 3.6869e-19)
(12.7919 -0.124173 0)
(12.8628 -0.554972 -1.67031e-20)
(12.7926 -0.92323 0)
(12.6005 -1.22545 -1.4752e-19)
(12.3089 -1.45813 1.44003e-19)
(11.9427 -1.61968 -1.54221e-20)
(11.5292 -1.71189 -2.01248e-19)
(11.0973 -1.74058 1.66877e-19)
(10.6754 -1.7155 -6.80738e-21)
(10.2884 -1.64947 0)
(9.95391 -1.55693 0)
(9.68019 -1.45203 0)
(9.46553 -1.34677 3.46287e-20)
(9.3001 -1.25136 -4.97607e-21)
(9.16906 -1.17997 -2.98496e-20)
(-13.4464 7.30666 5.9024e-17)
(-23.7223 15.462 8.59801e-17)
(-17.3861 17.3782 -8.80124e-17)
(-8.99983 19.2524 8.44387e-17)
(-4.1336 21.6592 -8.66516e-17)
(-0.165835 24.2591 -3.18292e-19)
(3.42404 25.6528 -3.01226e-19)
(6.25945 25.6197 0)
(7.9598 24.7009 1.50414e-19)
(8.69414 23.2775 0)
(8.89247 20.6769 -1.78601e-19)
(9.00533 15.9845 -4.49144e-17)
(9.59374 10.1302 4.57998e-17)
(10.8533 5.06389 3.1659e-17)
(12.2979 1.2644 -3.22745e-17)
(13.0858 -1.65742 2.17146e-17)
(12.8907 -3.8714 -2.23113e-17)
(11.9201 -5.39123 0)
(10.545 -6.36902 0)
(9.1114 -7.0017 0)
(7.89081 -7.43171 -5.3024e-18)
(7.05216 -7.75362 8.67169e-18)
(6.67367 -8.0085 -1.58955e-18)
(6.73753 -8.22827 -2.45099e-18)
(7.14757 -8.42125 6.01966e-19)
(7.76472 -8.5692 0)
(8.43626 -8.63428 -1.74729e-20)
(8.97702 -8.60211 0)
(9.22713 -8.46175 1.19835e-18)
(9.07905 -8.23772 -1.20236e-18)
(8.49774 -7.98195 6.761e-21)
(7.49889 -7.73786 0)
(6.11983 -7.50579 1.6302e-19)
(4.41368 -7.23737 -7.43471e-19)
(2.47612 -6.88756 6.08741e-19)
(0.469978 -6.4614 -1.33511e-18)
(-1.39993 -6.00795 2.95609e-18)
(-2.95611 -5.5736 -1.62175e-18)
(-4.12355 -5.17663 0)
(-4.93255 -4.81692 0)
(-5.42838 -4.45013 0)
(-5.69428 -4.08318 1.78366e-18)
(-5.77228 -3.70458 -5.05475e-18)
(-5.6796 -3.30089 3.22278e-18)
(-5.42368 -2.86663 0)
(-5.00993 -2.40414 -1.79452e-18)
(-4.44521 -1.92136 1.77516e-18)
(-3.74122 -1.43972 8.27554e-19)
(-2.91947 -0.988503 -4.38122e-19)
(-1.99655 -0.578992 -3.23055e-19)
(-1.00074 -0.214238 -2.539e-19)
(0.0520703 0.116405 1.44365e-19)
(1.14113 0.41963 0)
(2.24006 0.672361 0)
(3.34078 0.876183 5.07143e-19)
(4.43889 1.02794 -4.56792e-19)
(5.53155 1.12554 0)
(6.61253 1.17067 0)
(7.66629 1.16595 -3.40365e-21)
(8.66601 1.11411 -6.70495e-20)
(9.577 1.01752 0)
(10.3644 0.878323 0)
(11.0022 0.699224 -4.56328e-21)
(11.479 0.484561 -5.70613e-21)
(11.7992 0.241308 -9.24852e-20)
(11.9793 -0.0203547 1.19057e-19)
(12.0412 -0.287171 6.00507e-21)
(12.0063 -0.543874 -7.08438e-20)
(11.892 -0.775167 4.71737e-20)
(11.7125 -0.968084 -3.79082e-20)
(11.4807 -1.11396 1.59242e-20)
(11.2113 -1.20936 8.30937e-21)
(10.9207 -1.25597 9.09697e-21)
(10.6262 -1.2597 3.21328e-20)
(10.3435 -1.22938 -5.31532e-20)
(10.0841 -1.17542 4.5313e-20)
(9.854 -1.10817 0)
(9.65417 -1.0368 1.51969e-20)
(9.48101 -0.970203 0)
(9.32844 -0.919342 -7.27023e-20)
(2.51215 -1.30252 0)
(-6.17449 6.16203 -1.24314e-19)
(-13.1288 5.2651 1.31624e-19)
(5.16698 1.80091 -3.57823e-18)
(32.9054 -7.74442 4.3257e-18)
(52.3597 -13.0868 2.62592e-19)
(57.2935 -12.7448 3.03615e-19)
(47.5115 -6.34748 0)
(25.26 4.85802 0)
(-4.31605 17.9216 0)
(-33.8549 29.0063 1.7867e-19)
(-56.0913 34.9754 2.78181e-19)
(-67.0497 35.0941 0)
(-67.764 30.9789 -1.21268e-19)
(-62.1737 24.8438 -2.65327e-19)
(-54.2485 18.3933 -1.88425e-17)
(-46.399 12.4855 1.91858e-17)
(-39.5188 7.40984 8.87383e-20)
(-33.6058 3.17227 0)
(-28.3002 -0.309641 -4.8134e-20)
(-23.2213 -3.14454 2.53741e-20)
(-18.1196 -5.42242 -6.35575e-18)
(-12.9202 -7.1987 1.93967e-18)
(-7.71348 -8.51261 4.54287e-18)
(-2.71212 -9.40522 3.13382e-20)
(1.79362 -9.92069 -6.91839e-22)
(5.45563 -10.0798 -1.76238e-19)
(7.88276 -9.91952 1.76502e-19)
(8.81035 -9.50364 1.94642e-20)
(8.2571 -8.961 -4.842e-21)
(6.61695 -8.44465 -1.03416e-21)
(4.53877 -8.0816 -7.22089e-19)
(2.63158 -7.95838 7.29879e-19)
(1.2369 -8.06472 7.33627e-20)
(0.39561 -8.30691 -2.48457e-20)
(-0.023629 -8.5645 6.63257e-20)