/*--------------------------------*- C++ -*----------------------------------*\
| =========                 |                                                 |
| \\      /  F ield         | OpenFOAM: The Open Source CFD Toolbox           |
|  \\    /   O peration     | Version:  2012                                  |
|   \\  /    A nd           | Website:  www.openfoam.com                      |
|    \\/     M anipulation  |                                                 |
\*---------------------------------------------------------------------------*/
FoamFile
{
    version     2.0;
    format      ascii;
    class       volScalarField;
    location    "0.53";
    object      p;
}
// * * * * * * * * * * * * * * * * * * * * * * * * * * * * * * * * * * * * * //

dimensions      [0 2 -2 0 0 0 0];


internalField   nonuniform List<scalar> 
42400
(
903.511
1093.93
1330.58
1548.49
1788.57
2039.44
2260.44
2389.5
2395.74
2281.02
2060.9
1759.35
1410.53
1054.54
729.576
462.518
263.219
127.029
41.0253
-9.94521
-39.1041
-55.5847
-64.8002
-68.3037
-65.4033
-56.4514
-43.6077
-29.1702
-15.2328
-3.27264
5.67562
10.8783
12.1912
10.1537
5.94419
1.07336
-3.19906
-6.45381
-9.28695
-13.073
-18.0781
-24.0825
-30.4975
-36.6364
-41.9842
-46.2069
-49.1782
-50.9083
-51.5073
-51.1455
-50.018
-48.3182
-46.2228
-43.8842
-41.4232
-38.928
-36.4623
-34.0706
-31.783
-29.6213
-27.6053
-25.745
-24.0566
-22.5517
-21.2381
-20.1196
-19.1952
-18.4605
-17.9077
-17.5279
-17.3101
-17.2386
-17.2933
-17.4468
-17.6671
-17.9104
-18.1193
-18.2245
-18.1227
-17.7895
-163.388
-193.413
-273.152
-453.646
-742.947
-1124.81
-1560.96
-2015.8
-2456.03
-2846.63
-3150.84
-3335.87
-3385.21
-3306.87
-3128.75
-2882.93
-2595.78
-2288.32
-1978.87
-1682.46
-1408.91
-1163
-946.09
-757.765
-597.139
-462.447
-353.22
-269.012
-208.906
-170.889
-151.581
-146.465
-150.287
-157.629
-163.723
-165.387
-160.999
-152.19
-140.92
-129.114
-118.736
-110.702
-104.803
-100.331
-96.5917
-93.0302
-89.272
-85.1478
-80.7595
-76.1999
-71.5071
-66.7601
-62.0502
-57.4909
-53.1593
-49.0088
-45.0478
-41.2855
-37.729
-34.382
-31.2482
-28.3324
-25.6401
-23.1775
-20.9524
-18.9666
-17.2195
-15.7108
-14.4385
-13.3975
-12.5794
-11.9733
-11.5631
-11.3267
-11.2354
-11.2522
-11.3333
-11.4267
-11.4885
-11.4799
-9425.4
-9181.35
-8897.59
-8577.96
-8198.49
-7731.63
-7132.17
-6372.84
-5451.83
-4391.99
-3243.4
-2097.05
-1083.36
-321.655
148.63
380.534
461.053
452.333
383.871
273.77
140.424
1.48564
-129.52
-244.125
-338.274
-411.242
-464.557
-500.954
-523.45
-534.626
-536.261
-529.533
-515.395
-494.872
-469.137
-439.661
-407.78
-373.283
-338.203
-304.702
-274.247
-247.079
-222.964
-201.555
-182.428
-165.338
-150.102
-136.234
-123.392
-111.528
-100.732
-91.0164
-82.311
-74.4668
-67.335
-60.8739
-54.9874
-49.5893
-44.6112
-40.0057
-35.7406
-31.7952
-28.1574
-24.821
-21.7806
-19.0379
-16.5955
-14.4535
-12.6104
-11.0628
-9.80389
-8.82216
-8.10009
-7.61294
-7.32834
-7.20671
-7.20267
-7.26848
-7.35741
-7.47346
10961
10818.1
10605.1
10258.3
9744.19
9176.07
8590.79
7989.81
7357.35
6664.45
5888.02
5021.92
4090.15
3151.94
2282.81
1540.13
941.78
474.434
114.25
-160.652
-368.429
-526.424
-649.076
-745.79
-820.715
-874.764
-908.091
-921.46
-917.376
-899.23
-869.798
-830.783
-783.016
-726.748
-661.847
-589.238
-511.436
-433.543
-361.507
-301.88
-258.411
-230.427
-214.03
-204.348
-197.184
-189.406
-178.945
-165.177
-149.385
-133.358
-118.456
-105.262
-93.7886
-83.8078
-75.0521
-67.2877
-60.3251
-54.0193
-48.2641
-42.9835
-38.1239
-33.6478
-29.5297
-25.753
-22.3074
-19.187
-16.3891
-13.912
-11.7536
-9.91007
-8.3737
-7.13176
-6.165
-5.44692
-4.94376
-4.6155
-4.41792
-4.30561
-4.2352
-4.18466
-8958.17
-8275.13
-7458.19
-6759.19
-6125.3
-5593.65
-5112.29
-4656.18
-4212.58
-3769.2
-3314.68
-2842.27
-2355.15
-1867.82
-1403.28
-986.549
-636.167
-359.485
-152.159
-1.69953
104.542
176.914
222.166
244.49
247.027
232.537
204.16
165.287
119.239
69.5573
17.4942
-34.1948
-83.5047
-128.863
-169.47
-204.152
-232.37
-253.604
-268.011
-276.201
-278.412
-274.362
-263.919
-247.834
-227.756
-205.637
-183.129
-161.592
-141.735
-124.271
-109.409
-96.8618
-86.2052
-77.0783
-69.193
-62.2919
-56.1447
-50.5672
-45.4323
-40.6606
-36.2059
-32.0439
-28.1621
-24.5546
-21.2195
-18.1572
-15.3695
-12.8595
-10.6297
-8.68133
-7.01265
-5.61704
-4.48167
-3.58643
-2.90388
-2.40007
-2.03665
-1.77337
-1.56697
-1.38733
-10112.8
-9818.58
-9388.24
-8843.48
-8180.77
-7468.02
-6707.83
-5892.75
-5028.6
-4149.45
-3313.6
-2579.79
-1981.65
-1521.24
-1175.95
-909.481
-681.494
-466.835
-266.255
-93.8127
40.2402
134.999
196.161
231.025
245.383
243.609
229.611
206.859
178.324
146.524
113.43
80.4385
48.2317
17.2321
-12.0108
-39.1395
-63.0428
-82.7984
-98.5981
-110.514
-118.526
-122.852
-123.92
-122.306
-118.661
-113.573
-107.431
-100.449
-92.8534
-84.9957
-77.281
-70.047
-63.4873
-57.652
-52.4912
-47.8944
-43.7328
-39.8921
-36.2921
-32.8781
-29.6187
-26.498
-23.5108
-20.6589
-17.9488
-15.3905
-12.9966
-10.7812
-8.75873
-6.94224
-5.34174
-3.96192
-2.80038
-1.84637
-1.08056
-0.476129
-0.00104089
0.380185
0.707659
0.996227
13380.3
13144
12864.4
12461
11828.8
10954.8
9790.21
8345.78
6760.74
5256.74
3993.81
2986.94
2169.35
1486.37
924.776
494.597
198.924
14.9559
-95.2096
-167.804
-227.665
-285.969
-343.232
-395.294
-437.733
-467.435
-483.271
-486.032
-477.892
-461.498
-439.34
-413.445
-385.365
-356.335
-327.341
-299.164
-272.59
-248.521
-226.672
-206.604
-187.619
-169.402
-151.694
-134.422
-117.74
-101.967
-87.4978
-74.7218
-63.9308
-55.2209
-48.4449
-43.2752
-39.3252
-36.2438
-33.7481
-31.5943
-29.6205
-27.7119
-25.8011
-23.878
-21.9212
-19.94
-17.9507
-15.9705
-14.0168
-12.1069
-10.2583
-8.48943
-6.81896
-5.26523
-3.84445
-2.56874
-1.44425
-0.469675
0.364089
1.07324
1.67932
2.20929
2.69312
3.12329
-331.428
1.53719
465.674
944.615
1390.47
1744.88
2021.86
2223.86
2327.75
2306.38
2154.81
1899.82
1584.09
1247.99
918.745
611.359
329.381
74.1175
-152.902
-348.208
-508.683
-633.859
-725.909
-788.096
-823.475
-834.361
-822.599
-790.326
-740.415
-676.404
-602.405
-523.051
-443.357
-368.363
-302.304
-247.313
-203.901
-170.728
-145.511
-125.984
-110.213
-96.8437
-85.0706
-74.4498
-64.7765
-55.999
-48.1542
-41.3158
-35.5466
-30.861
-27.2042
-24.4581
-22.4612
-21.0284
-19.9699
-19.1099
-18.3069
-17.4545
-16.496
-15.6361
-14.7
-13.6982
-12.6483
-11.5556
-10.4217
-9.2483
-8.03996
-6.80554
-5.55854
-4.31609
-3.09719
-1.92055
-0.803259
0.244168
1.21413
2.10516
2.92156
3.67549
4.37556
4.99119
-3735.34
-4010.56
-4360.58
-4708.89
-5034.13
-5277.11
-5422.37
-5466.48
-5421.3
-5310.78
-5162.24
-5001.98
-4846.17
-4694.12
-4524.35
-4304.97
-4011.97
-3641.93
-3210.88
-2742.64
-2261.74
-1793.19
-1362.14
-991.296
-696.145
-481.238
-340.037
-258.47
-219.428
-206.186
-205.091
-207.235
-208.299
-206.893
-202.756
-196.173
-186.933
-175.001
-160.563
-143.953
-125.906
-107.423
-89.5342
-73.0845
-58.6261
-46.4137
-36.4634
-28.6298
-22.6745
-18.3179
-15.2729
-13.2617
-12.023
-11.3152
-10.9238
-10.6772
-10.4661
-10.2592
-10.0772
-9.71871
-9.35103
-9.00136
-8.64612
-8.26329
-7.83118
-7.3292
-6.74035
-6.05256
-5.25938
-4.36036
-3.36148
-2.27541
-1.12128
0.0762108
1.28829
2.48514
3.64102
4.73768
5.74679
6.63008
-10169.6
-9690.11
-9026.28
-8187.73
-7131.43
-6009.71
-4957.41
-4079.25
-3409.43
-2926.55
-2594.12
-2373.8
-2214.45
-2049.74
-1821.86
-1517.31
-1172.32
-842.382
-569.197
-371.507
-249.523
-190.835
-176.914
-188.064
-207.384
-223.178
-229.118
-223.299
-206.668
-181.61
-151.481
-120.074
-90.7617
-65.7901
-45.918
-30.7302
-19.2772
-10.5367
-3.53536
2.44503
7.57489
11.9495
15.6053
18.5203
20.6638
22.027
22.6354
22.5484
21.8527
20.654
19.0692
17.2247
15.2468
13.2574
11.3596
9.62202
8.06663
6.6685
5.3693
4.11695
2.82
1.47949
0.105503
-1.25048
-2.52002
-3.63024
-4.51059
-5.09989
-5.35135
-5.23617
-4.74659
-3.89837
-2.73163
-1.30914
0.288623
1.97284
3.65822
5.27005
6.73107
8.00439
18029.9
17751.1
17348.1
16709.9
15775.6
14673.8
13467.4
12208.3
10947.4
9720.27
8538.66
7385.75
6220.72
4994.21
3685.12
2356.25
1156.58
234.025
-355.4
-655.18
-757.987
-752.243
-695.979
-618.056
-531.537
-445.779
-368.874
-304.111
-249.413
-200.205
-153.088
-107.143
-63.3754
-23.5092
10.9745
39.2692
61.2482
77.2705
87.9218
93.973
96.4987
96.361
94.239
90.7271
86.2462
81.1566
75.7352
70.1894
64.673
59.2942
54.1231
49.198
44.5288
40.1008
35.8784
31.8113
27.8433
23.9306
20.047
16.1966
12.4126
8.7444
5.16016
1.80898
-1.23009
-3.87712
-6.04875
-7.66983
-8.68026
-9.04088
-8.74063
-7.80368
-6.29422
-4.31752
-2.01225
0.464969
2.95115
5.30518
7.40225
9.20709
-2990.16
-2799.2
-2586.43
-2380.3
-2169.44
-1950.06
-1731.59
-1541.84
-1412.55
-1346.6
-1308.68
-1264.96
-1233.46
-1265.22
-1364.2
-1453.35
-1428.54
-1230.33
-874.258
-433.038
2.75843
365.793
631.156
809.946
930.866
1020.04
1085.84
1118.85
1107.81
1054.28
971.643
875.418
776.726
681.66
593.261
513.211
442.258
380.416
327.507
282.789
245.265
213.882
187.623
165.537
146.862
130.936
117.203
105.222
94.6601
85.2386
76.7316
68.9565
61.7629
55.0267
48.6459
42.5392
36.6448
30.9211
25.3476
19.9237
14.6638
9.60407
4.89107
0.516065
-3.43648
-6.8728
-9.70462
-11.8464
-13.2192
-13.7603
-13.4357
-12.251
-10.2654
-7.62197
-4.49912
-1.12515
2.25924
5.43574
8.232
10.6
-14691.6
-14281.7
-13778.5
-13187.5
-12500.4
-11722.2
-10832.9
-9856.1
-8869.17
-7950.75
-7115.96
-6330.48
-5584.24
-4902.86
-4297.08
-3739.21
-3196.52
-2658.45
-2130.74
-1631.36
-1182.14
-802.977
-506.816
-295.417
-157.769
-72.6156
-16.1294
29.2277
70.9267
108.862
140.767
164.772
180.601
189.052
191.506
189.381
184.135
177.12
169.065
160.597
152.148
143.949
136.093
128.583
121.371
114.398
107.611
100.96
94.3782
87.8282
81.3071
74.7716
68.2097
61.6193
55.0064
48.388
41.7919
35.2565
28.8296
22.5663
16.5244
10.7646
5.35751
0.372234
-4.11538
-8.02313
-11.2628
-13.7416
-15.3666
-16.0543
-15.7452
-14.4232
-12.1375
-9.02073
-5.29108
-1.23504
2.83409
6.62983
9.9402
12.6941
7406.82
7101.55
6689.35
6140.84
5343.93
4408.46
3429.49
2549.46
1898.16
1494.39
1233.65
993.85
730.148
460.653
210.811
-0.943341
-156.915
-245.344
-267.975
-237.041
-171.061
-89.8827
-10.3249
56.6149
106.111
137.993
154.904
160.164
156.745
147.15
133.282
117.504
101.986
88.3993
77.6744
70.1362
65.6827
63.9719
64.5303
66.8154
70.2533
74.27
78.3261
81.9554
84.7964
86.6096
87.2761
86.7777
85.1655
82.534
78.9736
74.624
69.6006
64.0309
58.0197
51.6848
45.1466
38.5245
31.9355
25.489
19.2821
13.403
7.92994
2.93563
-1.51328
-5.35245
-8.51506
-10.9284
-12.514
-13.1928
-12.898
-11.5956
-9.31229
-6.16241
-2.36104
1.79015
5.94928
9.80159
13.1242
15.8363
12716.5
12689.9
12675.2
12562.3
12307.4
11865.9
11222.8
10353.8
9256.4
7994.14
6691.69
5476.81
4421.88
3537.23
2801.94
2188.33
1670.36
1226.92
845.752
522.605
254.913
38.7908
-131.575
-263.021
-362.366
-435.128
-484.366
-510.632
-514.646
-498.901
-468.679
-429.619
-386.699
-342.392
-297.657
-252.965
-208.836
-165.889
-124.792
-86.2532
-50.9835
-19.6388
7.25524
29.3851
46.7124
59.4854
68.1866
73.4364
75.8859
76.1347
74.6847
71.9403
68.2055
63.7017
58.6287
53.1424
47.3815
41.4773
35.5542
29.7319
24.1229
18.8268
13.9301
9.50458
5.60697
2.28221
-0.430209
-2.489
-3.84566
-4.44422
-4.22926
-3.16458
-1.2614
1.39134
4.609
8.12191
11.6212
14.8268
17.5508
19.7329
-9821.63
-9573.75
-9247.54
-8826.13
-8307.5
-7700.04
-6973.43
-6063.48
-4909.29
-3537.16
-2125.6
-919.182
-63.3649
461.58
742.875
852.299
840.329
749.289
616.272
472.106
339.409
233.95
164.437
129.54
117.307
111.074
99.8266
82.5361
63.7731
47.7588
36.7632
30.7035
28.6166
29.679
33.3801
39.4627
47.1881
55.6606
64.0949
71.865
78.5051
83.7085
87.3182
89.3046
89.7473
88.8218
86.7757
83.8883
80.4268
76.6109
72.5959
68.4733
64.2825
60.0308
55.7122
51.3225
46.8705
42.3842
37.9115
33.5174
29.2772
25.2685
21.5631
18.2196
15.2815
12.7788
10.7334
9.16694
8.1071
7.59031
7.65637
8.33306
9.61194
11.4229
13.6213
16.0021
18.3408
20.4476
22.2079
23.5997
3743.64
3602.62
3386.42
3046.96
2538
1898.97
1201.66
546.629
34.3302
-276.071
-397.655
-415.607
-427.566
-479.055
-559.536
-639.41
-697.051
-722.243
-709.385
-656.125
-561.748
-427.117
-258.283
-73.3727
97.4052
227.069
307.782
348.726
365.07
368.092
363.82
354.945
342.39
326.298
306.688
283.672
258.216
231.833
206.139
182.479
161.7
144.11
129.539
117.483
107.318
98.4695
90.5225
83.2374
76.5133
70.3314
64.7026
59.6314
55.0987
51.0575
47.4372
44.155
41.1289
38.2912
35.5972
33.0294
30.5937
28.3123
26.214
24.3262
22.6699
21.2593
20.1051
19.2198
18.6214
18.3344
18.3844
18.7856
19.5237
20.5426
21.7437
23.0029
24.2018
25.2556
26.1269
26.8224
-887.714
-105.364
965.684
2062.73
3164.14
4175.23
5065.29
5755.31
6185.18
6352.12
6303.19
6109.15
5834.65
5524.26
5202.65
4880.98
4563.71
4250.47
3939.53
3627.03
3307.53
2976.48
2635.78
2297.96
1982.99
1705.04
1461.44
1238.27
1024.78
821.387
634.35
470.329
334.297
228.732
152.927
102.918
72.603
55.5666
46.6327
42.5798
41.2407
41.3818
42.1796
43.0016
43.3902
43.0998
42.0953
40.5162
38.6059
36.6261
34.7878
33.2187
31.9618
30.9953
30.259
29.6806
29.1945
28.753
28.3292
27.9145
27.5134
27.1365
26.7945
26.4941
26.238
26.0276
25.8666
25.7637
25.7333
25.7932
25.9593
26.2372
26.6156
27.064
27.5388
27.997
28.4096
28.7675
29.0778
29.3538
5343.9
4934.59
4377.05
3610.17
2504.47
1201.6
-102.637
-1209.64
-2029.92
-2606.97
-3034.8
-3372.2
-3626.54
-3785.79
-3840.61
-3789.56
-3639.59
-3405.51
-3107.66
-2768.53
-2409.99
-2051.5
-1708.9
-1392.65
-1107.49
-853.345
-628.019
-429.387
-257.153
-113.072
0.672132
83.2806
136.653
165.121
174.198
169.408
155.666
137.25
117.022
96.9285
78.0381
61.2376
47.0372
35.4727
26.3429
19.3689
14.2827
10.8332
8.78877
7.94257
8.1079
9.10976
10.7763
12.932
15.3949
17.9813
20.5195
22.8669
24.9241
26.6386
28.0006
29.0328
29.7781
30.2878
30.613
30.8002
30.8899
30.917
30.9112
30.8967
30.8894
30.8958
30.9139
30.9375
30.9637
30.997
31.0472
31.1234
31.2296
31.3638
-13779.8
-13272.7
-12602.3
-11788.6
-10792.1
-9708.53
-8598.57
-7505.83
-6454.55
-5455.64
-4529.6
-3705.36
-3011.17
-2466.39
-2071.36
-1804.25
-1631.17
-1519.67
-1445.52
-1391.93
-1347.13
-1303.48
-1257.41
-1208.38
-1156.81
-1103.38
-1046.92
-983.799
-910.505
-826.247
-733.657
-637.73
-543.518
-454.979
-374.945
-304.672
-244.589
-194.918
-155.27
-124.397
-100.592
-82.6779
-69.5631
-60.2133
-53.5993
-48.7687
-44.922
-41.4391
-37.8817
-33.9797
-29.6043
-24.7371
-19.4421
-13.8424
-8.11109
-2.43726
2.99362
8.02301
12.5383
16.479
19.8314
22.6175
24.8831
26.6879
28.0985
29.1828
30.0048
30.6216
31.0808
31.4203
31.6705
31.8568
32.0028
32.1304
32.2565
32.3915
32.5388
32.6978
32.8669
33.0433
175.875
272.252
429.795
623.721
836.706
1010.21
1124.74
1182.11
1194.7
1172.66
1120.28
1039.5
934.048
811.303
682.007
556.974
442.078
337.009
240.533
156.144
90.1338
47.0634
27.7774
28.3911
42.8164
63.1595
82.2786
95.161
99.3839
94.8491
83.0592
66.3624
47.4078
28.7333
12.4065
-0.216184
-8.62048
-13.0319
-14.1626
-12.9401
-10.3021
-7.06677
-3.86206
-1.09122
1.09533
2.72606
3.93431
4.84795
5.51784
5.91552
5.97799
5.66011
4.96168
3.92442
2.6156
1.11097
-0.51535
-2.19596
-3.87233
-5.49578
-7.02795
-8.44081
-9.71601
-10.8439
-11.8222
-12.6544
-13.3483
-13.9144
-14.3647
-14.7113
-14.9657
-15.1383
-15.2379
-15.2723
-15.2479
-15.1704
-15.0445
-14.8773
-14.671
-14.45
2118.98
1929.28
1715.04
1493.06
1220.91
918.058
561.388
140.61
-327.08
-815.346
-1306.35
-1790.2
-2254.32
-2673.64
-2999.64
-3173.46
-3180.65
-3078.38
-2946.44
-2819.1
-2686.62
-2534.68
-2360.15
-2165.58
-1956.02
-1738.22
-1521.24
-1313.82
-1121.9
-948.798
-795.423
-661.889
-547.573
-451.206
-370.888
-304.342
-249.271
-203.603
-165.629
-134.021
-107.775
-86.1296
-68.4665
-54.2531
-43.0035
-34.2681
-27.638
-22.7534
-19.3066
-17.0364
-15.7178
-15.1526
-15.1647
-15.5987
-16.3204
-17.2171
-18.197
-19.1874
-20.1335
-20.9958
-21.7485
-22.3765
-22.8744
-23.2434
-23.4898
-23.6237
-23.6572
-23.6029
-23.4761
-23.2861
-23.0416
-22.7498
-22.4154
-22.0418
-21.6314
-21.1863
-20.7084
-20.2011
-19.6668
-19.1207
-10322
-9850.89
-9269.43
-8598.87
-7727.64
-6653.31
-5404.07
-4096.64
-2887.93
-1894.65
-1144.36
-601.837
-229.466
-9.44337
72.9012
43.4289
-62.789
-210.952
-372.133
-524.638
-654.29
-753.807
-820.892
-856.125
-861.291
-838.889
-793.849
-733.184
-664.084
-591.954
-520.595
-452.065
-387.693
-328.835
-276.183
-229.988
-190.217
-156.598
-128.681
-105.902
-87.6495
-73.3026
-62.2577
-53.9517
-47.8758
-43.5832
-40.6908
-38.8768
-37.8745
-37.4648
-37.468
-37.737
-38.1528
-38.62
-39.065
-39.4332
-39.6869
-39.8038
-39.7743
-39.5991
-39.286
-38.8475
-38.2997
-37.6597
-36.9437
-36.1688
-35.3518
-34.5082
-33.6485
-32.7844
-31.9227
-31.0655
-30.2117
-29.3583
-28.5017
-27.6383
-26.7661
-25.8846
-24.9952
-24.1014
-756.695
-947.603
-1286.16
-1744.26
-2223.81
-2575.91
-2755.96
-2810.23
-2805.47
-2767.68
-2688.72
-2558.33
-2377.97
-2157.14
-1907.96
-1646.52
-1391.46
-1158.83
-958
-790.73
-653.017
-538.202
-439.615
-351.937
-272.125
-200.367
-138.059
-86.5608
-46.579
-17.514
2.27319
14.9566
22.2832
25.8628
26.6061
25.0696
21.5765
16.3893
10.0855
3.15094
-4.25708
-11.876
-19.4575
-26.7827
-33.6718
-39.9892
-45.6442
-50.5862
-54.7975
-58.2838
-61.0662
-63.1751
-64.6456
-65.5163
-65.8298
-65.6335
-64.9811
-63.9353
-62.5723
-60.9673
-59.1907
-57.3079
-55.3712
-53.4195
-51.4811
-49.5768
-47.7235
-45.9349
-44.221
-42.5875
-41.0343
-39.5554
-38.1406
-36.7771
-35.4522
-34.1554
-32.8791
-31.6184
-30.373
-29.1351
6186.16
6175.6
6168.63
6113.84
5969.75
5716.57
5367.81
4947.15
4480.29
3997.54
3526.12
3082.87
2672.48
2290.81
1931.07
1588.46
1264.69
968.377
710.231
497.916
334.388
219.512
151.822
128.038
141.094
177.343
220.753
258.693
284.479
296.562
296.302
285.855
267.638
243.84
216.255
186.319
155.281
124.208
93.6665
64.1504
36.4321
11.3335
-11.0909
-30.6586
-47.3314
-61.238
-72.6106
-81.7234
-88.8444
-94.2084
-98.0081
-100.398
-101.504
-101.443
-100.332
-98.3005
-95.4941
-92.0831
-88.2608
-84.2276
-80.169
-76.2259
-72.487
-68.9897
-65.7306
-62.6826
-59.8166
-57.1113
-54.5572
-52.1533
-49.8972
-47.7812
-45.7894
-43.9029
-42.1025
-40.3722
-38.6992
-37.0731
-35.4898
-33.9304
7130.68
7069.14
6998.22
6901.74
6763.22
6590.09
6385.89
6156.26
5907.69
5645.68
5371.6
5077.9
4749.67
4376.93
3970.01
3553.8
3150.19
2767.19
2400.94
2042.85
1685.58
1327.09
973.238
641.373
360.117
157.67
39.1205
-13.2005
-24.8622
-17.9143
-4.6359
8.85111
19.1402
24.2546
23.2429
16.0219
3.31663
-13.4776
-32.6047
-52.3284
-71.3467
-89.0634
-104.194
-116.584
-126.462
-134.126
-139.875
-143.946
-146.524
-147.746
-147.716
-146.509
-144.18
-140.785
-136.441
-131.237
-125.342
-118.982
-112.426
-105.936
-99.7255
-93.919
-88.5433
-83.5543
-78.8859
-74.4929
-70.3638
-66.5172
-62.9837
-59.8127
-56.964
-54.3863
-51.9982
-49.7621
-47.6479
-45.6321
-43.6968
-41.8265
-40.014
-38.2258
-6459.62
-6363.85
-6213.02
-5984.78
-5683.13
-5345.59
-4998.37
-4657.43
-4324.83
-3989
-3633.82
-3250.75
-2845.72
-2438.24
-2055.41
-1722.01
-1451.04
-1246.92
-1111.67
-1047.03
-1051.19
-1108.49
-1184.01
-1240.95
-1263.22
-1247.93
-1187.19
-1084.72
-965.79
-855.967
-767.008
-697.044
-639.12
-587.279
-538.229
-491.209
-446.985
-406.794
-371.688
-341.925
-316.872
-295.428
-277.057
-261.222
-247.581
-235.875
-225.832
-217.153
-209.506
-202.548
-195.946
-189.395
-182.636
-175.469
-167.738
-159.446
-150.675
-141.6
-132.483
-123.629
-115.32
-107.742
-100.941
-94.8371
-89.3059
-84.2033
-79.4778
-75.1345
-71.1471
-67.4436
-64.013
-60.8379
-57.9241
-55.2358
-52.7364
-50.3808
-48.1541
-46.0285
-43.9889
-41.9844
-4266.93
-4172.62
-4073.18
-3984.26
-3904.74
-3852.88
-3842.8
-3883.22
-3971.15
-4094.77
-4228.62
-4339.83
-4399.13
-4391.89
-4318.87
-4188.79
-4012.7
-3798.14
-3550.25
-3279.46
-3005.84
-2754.93
-2548.45
-2397.54
-2296.09
-2210
-2089.74
-1910.77
-1690.85
-1464.55
-1255.17
-1070.34
-909.499
-770.429
-652.057
-554.803
-479.315
-424.854
-388.252
-364.461
-348.223
-335.397
-323.408
-311.12
-298.38
-285.47
-272.736
-260.416
-248.606
-237.286
-226.366
-215.714
-205.192
-194.695
-184.077
-173.312
-162.457
-151.659
-141.126
-131.115
-121.873
-113.565
-106.214
-99.7056
-93.8555
-88.5461
-83.686
-79.205
-75.0795
-71.2866
-67.8004
-64.5904
-61.6241
-58.8663
-56.2838
-53.8562
-51.5424
-49.3213
-47.1841
-45.0695
8845.26
8670.12
8424.45
8072.76
7572.14
6981.23
6302.21
5532.48
4676.57
3742.74
2749.52
1726.98
713.819
-249.006
-1126.94
-1893.44
-2527.33
-3008.74
-3319.34
-3447.81
-3401.4
-3213.44
-2938.75
-2639.47
-2364.04
-2127.79
-1916.87
-1713.1
-1511.43
-1319.53
-1147.78
-1003.14
-888.395
-802.777
-742.873
-703.366
-677.782
-659.533
-643.006
-624.079
-600.373
-571.409
-538.152
-502.12
-465.04
-428.252
-392.933
-359.83
-329.376
-301.709
-276.718
-254.155
-233.725
-215.12
-198.144
-182.605
-168.359
-155.315
-143.537
-133.034
-123.709
-115.476
-108.221
-101.784
-96.0018
-90.746
-85.9354
-81.5205
-77.467
-73.744
-70.3188
-67.158
-64.2286
-61.4974
-58.9345
-56.5117
-54.2029
-51.984
-49.8458
-47.7027
-9201.41
-8790.76
-8226.69
-7546.01
-6731.07
-5891.52
-5069.41
-4290.1
-3569.85
-2921.16
-2350.55
-1853.63
-1418.18
-1032.16
-689.196
-389.186
-137.505
56.5473
184.212
242.628
240.676
197.067
132.024
58.2851
-21.2123
-108.03
-200.936
-294.701
-384.49
-467.147
-539.147
-597.124
-639.559
-666.38
-678.349
-676.96
-664.229
-642.665
-614.971
-583.274
-548.847
-512.784
-476.166
-439.789
-403.956
-369.001
-335.19
-303.006
-272.996
-245.636
-221.249
-199.978
-181.813
-166.606
-154.095
-143.915
-135.628
-128.768
-122.775
-117.235
-111.962
-106.867
-101.942
-97.2091
-92.6962
-88.4234
-84.4041
-80.6438
-77.1396
-73.8806
-70.8495
-68.0252
-65.3963
-62.9194
-60.5828
-58.3638
-56.2421
-54.2011
-52.2327
-50.1959
-3345.69
-3509.66
-3723.09
-3965.98
-4252.38
-4554.54
-4818.74
-4966.74
-4943.54
-4745.57
-4416.52
-4006.15
-3547.83
-3062.8
-2570.65
-2091.53
-1643.62
-1240.63
-891.735
-601.232
-368.653
-189.998
-59.5395
28.7246
80.413
101.716
99.4121
80.9458
53.5805
23.4251
-5.08147
-29.3789
-48.6171
-63.1945
-74.1403
-83.6851
-93.3254
-104.254
-116.831
-130.512
-144.267
-156.983
-167.681
-175.713
-180.802
-182.983
-182.509
-179.768
-175.214
-169.328
-162.579
-155.392
-148.118
-141.013
-134.239
-127.878
-121.955
-116.458
-111.352
-106.591
-102.132
-97.9414
-93.9936
-90.273
-86.7681
-83.4701
-80.3714
-77.4638
-74.738
-72.183
-69.7862
-67.534
-65.4128
-63.408
-61.505
-59.6877
-57.9423
-56.2596
-54.6272
-52.8402
3518.01
3706.83
3952.2
4160.01
4313.64
4347.5
4227.08
3921.82
3424.07
2771.84
2043.9
1324.47
671.538
115.972
-325.672
-650.862
-870.179
-1001.48
-1065.5
-1083.9
-1077.32
-1061.98
-1045.69
-1026.93
-999.676
-960.283
-908.553
-846.611
-777.305
-703.561
-628.256
-554.034
-483.166
-417.491
-358.351
-306.586
-262.562
-226.222
-197.13
-174.553
-157.559
-145.073
-135.985
-129.271
-124.108
-119.918
-116.35
-113.215
-110.416
-107.897
-105.612
-103.517
-101.567
-99.7149
-97.9125
-96.1155
-94.2869
-92.4012
-90.4472
-88.4276
-86.3573
-84.2594
-82.1603
-80.0858
-78.0573
-76.0915
-74.1994
-72.3875
-70.6583
-69.0117
-67.4459
-65.9583
-64.5454
-63.2024
-61.9212
-60.689
-59.4937
-58.3262
-57.1675
-55.7727
2731.11
2638.32
2495.24
2299.05
2049.76
1819.49
1646.6
1544.3
1505.05
1513.46
1552.29
1590.37
1585.97
1511.03
1353.76
1102.58
746.735
292.239
-230.905
-773.729
-1265.59
-1624.91
-1802.57
-1816.12
-1728.75
-1598.37
-1453.91
-1305.72
-1159
-1017.73
-884.892
-762.396
-651.313
-552.162
-464.998
-389.513
-325.093
-270.862
-225.779
-188.73
-158.619
-134.417
-115.201
-100.157
-88.59
-79.9142
-73.6404
-69.3505
-66.6722
-65.263
-64.8075
-65.0248
-65.6754
-66.5624
-67.5273
-68.4452
-69.2231
-69.7993
-70.1425
-70.2496
-70.1399
-69.8473
-69.4115
-68.8715
-68.2609
-67.6062
-66.9275
-66.2401
-65.5557
-64.8843
-64.2346
-63.6138
-63.0271
-62.4748
-61.95
-61.4367
-60.9161
-60.3694
-59.7605
-58.8821
-10004.7
-9761.98
-9481.99
-9193.42
-8925.78
-8632.68
-8249.71
-7765.21
-7223.54
-6673.28
-6124.83
-5539.14
-4856.55
-4052.47
-3166.58
-2268.95
-1413.65
-631.853
41.6159
559.636
887.48
1034.72
1059.26
1017.15
939.04
837.368
723.643
611.176
509.39
422.394
350.753
293.152
247.405
211.089
181.93
158.009
137.827
120.312
104.713
90.4614
77.0995
64.3328
52.0149
40.1272
28.7618
18.0848
8.27702
-0.527825
-8.28643
-15.058
-20.9842
-26.2459
-31.0116
-35.3949
-39.4363
-43.1144
-46.3766
-49.1774
-51.5003
-53.3656
-54.8259
-55.9546
-56.83
-57.5215
-58.0828
-58.5509
-58.9509
-59.301
-59.6171
-59.9138
-60.2052
-60.5031
-60.8141
-61.1368
-61.4576
-61.7492
-61.9735
-62.0875
-62.0594
-61.8111
3617.11
3610.51
3513.68
3234.55
2745.62
2251.87
1925.41
1776.18
1707.54
1643.38
1560.27
1465.68
1377.41
1310.23
1271.38
1264.16
1288.68
1339.43
1404.75
1470.27
1523.82
1556.2
1559.96
1530.12
1468.28
1383.15
1285.33
1182.91
1080.33
980.691
886.794
799.837
719.958
646.664
579.201
516.778
458.751
404.714
354.491
307.994
265.171
226.031
190.637
159.014
131.114
106.789
85.7659
67.6172
51.7959
37.7242
24.9085
13.028
1.95713
-8.26762
-17.487
-25.5297
-32.2411
-37.5401
-41.4632
-44.1795
-45.9674
-47.1544
-48.0439
-48.8563
-49.7105
-50.6404
-51.6329
-52.6627
-53.7108
-54.7701
-55.8432
-56.9354
-58.0474
-59.169
-60.2723
-61.3083
-62.2075
-62.8778
-63.2343
-63.2103
11827.6
11609.2
11271.3
10697.9
9784.05
8808.26
7961.25
7228.59
6520.46
5812.99
5124.85
4482.42
3913.41
3430.54
3027.33
2688.8
2401.81
2155.67
1938.61
1739.32
1551.33
1372.79
1203.92
1045.68
899.858
769.879
659.015
568.657
499.486
450.13
417.084
396.473
384.122
375.922
368.248
358.323
344.441
325.973
303.208
277.057
248.692
219.357
190.218
162.274
136.407
112.707
91.3651
72.3873
55.6028
40.7585
27.5685
15.7524
5.0675
-4.65196
-13.4538
-21.2501
-27.8502
-33.053
-36.7631
-39.0815
-40.3181
-40.9134
-41.303
-41.7994
-42.5484
-43.562
-44.7872
-46.1609
-47.6364
-49.1868
-50.8
-52.4694
-54.1857
-55.9281
-57.6569
-59.3076
-60.7885
-61.9781
-62.6993
-62.8888
-3104.99
-2683.92
-2172.63
-1719.41
-1302.18
-875.934
-405.716
62.4494
475.652
804.666
1036.14
1171.72
1226.04
1215.28
1151.73
1044.09
902.721
738.303
560.989
380.415
205.827
44.5864
-98.6937
-220.477
-316.205
-381.862
-415.965
-421.551
-405.092
-372.803
-329.489
-278.84
-223.9
-167.455
-112.348
-61.5531
-17.8091
16.9776
42.1129
58.0628
66.1155
67.9568
65.3747
59.9074
52.5545
44.7992
37.2045
30.0498
23.4469
17.3417
11.5821
5.98939
0.422274
-5.1689
-10.7099
-16.0038
-20.7744
-24.7496
-27.7591
-29.8097
-31.0994
-31.9526
-32.7058
-33.6031
-34.7535
-36.1544
-37.7474
-39.466
-41.2611
-43.1061
-44.992
-46.9182
-48.8824
-50.8706
-52.8486
-54.7546
-56.4949
-57.9425
-58.9628
-59.2633
-4385.53
-4392.34
-4404.31
-4416.65
-4423.15
-4430.01
-4420.54
-4383.83
-4321.02
-4239.63
-4149.27
-4057.84
-3970.82
-3891.31
-3819.2
-3747.84
-3667.13
-3565.73
-3435.06
-3268.43
-3056.41
-2794.07
-2498.99
-2207.91
-1940.16
-1681.18
-1405.77
-1115.88
-838.369
-596.973
-401.484
-252.556
-146.837
-78.836
-41.4909
-26.7579
-26.6012
-34.072
-44.0102
-53.176
-59.9324
-63.7577
-64.8418
-63.5271
-59.8945
-55.0044
-49.4563
-43.6491
-37.9533
-32.6894
-28.1193
-24.4376
-21.7588
-20.1041
-19.3969
-19.4725
-20.1089
-21.0734
-22.174
-23.2955
-24.4047
-25.524
-26.6922
-27.9361
-29.2629
-30.666
-32.1336
-33.6541
-35.2193
-36.8263
-38.477
-40.1752
-41.9204
-43.7013
-45.4895
-47.2302
-48.8516
-50.2437
-51.3748
-51.6966
-1745.16
-1610.75
-1424.28
-1184.01
-893.816
-599.748
-329.914
-98.5102
91.1314
239.032
346.635
416.815
455.997
474.381
483.978
497.316
526.33
582.861
677.416
812.677
971.982
1116.44
1201.4
1205.47
1136.25
1009.32
830.924
617.088
399.874
205.845
49.0101
-64.418
-134.343
-167.304
-173.506
-163.195
-144.672
-123.792
-104.23
-87.8128
-75.1377
-65.9247
-59.4101
-54.8157
-51.8432
-49.429
-47.0438
-44.4857
-41.692
-38.7132
-35.6766
-32.7453
-30.0815
-27.8183
-26.0411
-24.7791
-24.0073
-23.6557
-23.6259
-23.8119
-24.1223
-24.4973
-24.9142
-25.38
-25.9154
-26.5409
-27.268
-28.0982
-29.0259
-30.044
-31.1457
-32.325
-33.5733
-34.8725
-36.195
-37.5104
-38.7698
-39.8795
-40.8788
-41.2165
7717.5
7479.28
7184.71
6829.96
6366.16
5851.66
5323.31
4817.57
4359.99
3961.09
3614.91
3305.8
3014.62
2724.24
2424.33
2114.35
1805.15
1518.84
1279.46
1098.27
971.109
885.364
832.188
809.472
814.213
835.662
856.223
859.188
836.499
787.642
715.63
627.299
531.493
436.177
347.085
267.548
199.022
141.696
94.9342
57.6151
28.4228
6.04591
-10.7414
-23.0183
-31.5592
-37.2754
-40.7555
-42.494
-42.9047
-42.335
-41.0814
-39.3953
-37.4859
-35.5195
-33.6168
-31.8538
-30.2661
-28.8584
-27.6163
-26.5199
-25.554
-24.7133
-24.0032
-23.4352
-23.0209
-22.7672
-22.6741
-22.7347
-22.9382
-23.2725
-23.7242
-24.28
-24.9245
-25.6398
-26.3965
-27.1483
-27.8549
-28.4709
-29.0036
-29.1996
-14.0587
-13.4811
-12.8041
-12.0982
-11.3918
-10.7139
-10.0559
-9.40907
-8.76387
-8.11718
-7.47411
-6.84647
-6.24866
-5.6955
-5.20078
-4.77505
-4.42814
-4.16684
-3.99816
-3.92691
-3.95802
-4.09262
-4.32787
-4.65551
-5.06109
-5.52337
-6.01331
-6.493
-6.92192
-7.26023
-7.47498
-7.54719
-7.47724
-7.28694
-7.0179
-6.72662
-6.47733
-6.33243
-6.34251
-6.53895
-6.93183
-7.51259
-8.25951
-9.14415
-10.1362
-11.2047
-12.3149
-13.4257
-14.4884
-15.4493
-16.2549
-16.8575
-17.2213
-17.3301
-17.1779
-16.7784
-16.1596
-15.3573
-14.4116
-13.3642
-12.2595
-11.1443
-10.0658
-9.06547
-8.17425
-7.40914
-6.77442
-6.26508
-5.87106
-5.58071
-5.38304
-5.26885
-5.23109
-5.26494
-5.36767
-5.53848
-5.77838
-6.09002
-6.47786
-6.94837
-7.50996
-8.17214
-8.94362
-9.82974
-10.8302
-11.9381
-13.1395
-14.4146
-15.738
-17.0797
-18.4053
-19.6773
-20.8565
-21.9038
-22.7819
-23.4585
-23.9088
-24.1176
-24.0814
-23.8096
-23.3263
-22.66
-21.8457
-20.9203
-19.9186
-18.8703
-17.7989
-16.7214
-15.65
-14.5939
-13.5609
-12.5585
-11.5938
-10.6737
-9.8041
-8.98982
-8.23402
-7.53817
-6.90205
-6.32393
-5.80077
-5.32851
-4.90239
-4.51731
-4.16815
-3.85007
-3.55872
-3.29033
-3.04177
-2.81047
-2.5944
-2.39195
-2.20188
-2.02319
-1.85508
-1.69687
-1.54797
-1.40783
-1.27594
-1.15182
-1.035
-0.92505
-0.821577
-0.7242
-0.632565
-0.546333
-0.465186
-0.388828
-0.316993
-0.249439
-0.185946
-0.126302
-0.0703023
-0.0177532
0.0315458
0.077792
0.12116
0.161837
0.199947
0.235661
0.269098
0.300369
0.329561
0.356728
0.381897
0.405081
0.426277
0.445479
0.462674
0.477843
0.490947
0.501932
0.510726
0.517266
0.521526
0.523544
0.523446
0.521444
0.517828
0.512932
0.507109
0.500688
0.493927
0.486968
0.479796
0.472214
0.463861
0.454207
0.442671
0.428519
0.411208
0.389781
0.36412
0.332476
0.296344
0.250951
0.203711
0.138942
0.085739
-0.00692819