/*--------------------------------*- C++ -*----------------------------------*\
| =========                 |                                                 |
| \\      /  F ield         | OpenFOAM: The Open Source CFD Toolbox           |
|  \\    /   O peration     | Version:  2012                                  |
|   \\  /    A nd           | Website:  www.openfoam.com                      |
|    \\/     M anipulation  |                                                 |
\*---------------------------------------------------------------------------*/
FoamFile
{
    version     2.0;
    format      ascii;
    class       surfaceScalarField;
    location    "0.53";
    object      phi;
}
// * * * * * * * * * * * * * * * * * * * * * * * * * * * * * * * * * * * * * //

dimensions      [0 3 -1 0 0 0 0];
oriented        oriented;


internalField   nonuniform List<scalar> 
84340
(
5.99512e-05
0.000127537
-0.000187489
0.000100336
0.000321907
-0.000362291
0.000166861
0.000331875
-0.000398401
0.0002975
0.000220314
-0.000350953
0.000464164
3.58191e-05
-0.000202483
0.000616989
-0.000166508
1.36834e-05
0.000686343
-0.000313599
0.000244245
0.000608163
-0.000376924
0.000455103
0.000341309
-0.000358109
0.000624963
-0.000127068
-0.000273377
0.000741754
-0.000770931
-0.000152858
0.000796721
-0.00152773
-3.04546e-05
0.000787255
-0.00230005
5.34548e-05
0.000718862
-0.00298511
8.1062e-05
0.000604001
-0.00350214
5.97e-05
0.000457326
-0.00381042
1.45728e-05
0.00029371
-0.00390733
-2.91728e-05
0.00012608
-0.00381737
-5.69971e-05
-3.29603e-05
-0.00358493
-6.91709e-05
-0.000163271
-0.00325791
-7.10687e-05
-0.000255948
-0.00288493
-6.99214e-05
-0.000303062
-0.0024962
-7.02433e-05
-0.000318482
-0.00210543
-7.69954e-05
-0.000313772
-0.00171423
-9.37209e-05
-0.000297483
-0.00133289
-0.00012282
-0.000258518
-0.000993907
-0.000163256
-0.00017573
-0.000722856
-0.000209075
-6.19763e-05
-0.000507288
-0.000254835
3.92673e-05
-0.000322106
-0.000298078
0.000112895
-0.000146205
-0.000334036
0.000158135
3.09786e-05
-0.000354718
0.000177535
0.000206082
-0.000350076
0.000174972
0.000365688
-0.000312681
0.000153076
0.000489168
-0.000239542
0.000116062
0.000553281
-0.000134509
7.03967e-05
0.000538891
-1.02557e-05
2.46455e-05
0.00043912
0.00011247
-1.26985e-05
0.000264158
0.000211439
-3.64778e-05
4.33815e-05
0.000267984
-4.72075e-05
-0.000200678
0.000294151
-5.00924e-05
-0.000436254
0.000286533
-5.09563e-05
-0.000642283
0.000259892
-5.38623e-05
-0.000809425
0.000227678
-6.05356e-05
-0.000935777
0.000197654
-7.13025e-05
-0.00102394
0.000173022
-8.48555e-05
-0.00107697
0.000154436
-0.000101408
-0.00109855
0.000141325
-0.000119745
-0.00109232
0.000132964
-0.000139198
-0.00106189
0.000128844
-0.000159272
-0.00101143
0.000128398
-0.000178863
-0.000944578
0.000131014
-0.000197862
-0.000864887
0.000136026
-0.000215717
-0.000775625
0.000142763
-0.000232025
-0.000679166
0.000150045
-0.000246504
-0.000577951
0.000157812
-0.000259027
-0.000473559
0.000165155
-0.000269548
-0.000366905
0.000171409
-0.000278063
-0.000258376
0.000176019
-0.000284548
-0.000147901
0.000178401
-0.000288875
-3.51475e-05
0.000178009
-0.000290762
8.02986e-05
0.000174315
-0.000289761
0.000198763
0.000166822
-0.000285286
0.000320429
0.000155054
-0.00027672
0.000445325
0.000138612
-0.000263507
0.000573378
0.000117174
-0.000245227
0.000704527
9.04697e-05
-0.000221618
0.000838795
5.82589e-05
-0.000192527
0.00097612
2.04785e-05
-0.000157804
0.00111676
-2.3465e-05
-0.000117172
0.00126091
-7.39492e-05
-7.01992e-05
0.0014088
-0.00013093
-1.69662e-05
0.00155849
-0.000194999
4.53074e-05
0.00170876
-0.000266346
0.000116079
0.00185729
-0.000345007
0.000196474
0.00200059
-0.000430747
0.000287448
0.00213414
-0.000522901
0.000389355
0.00225216
-0.000620085
0.000502064
0.0023472
-0.000720498
0.000625456
0.00241104
-0.000819784
0.000755943
-0.000920098
0.000902395
0.00242874
-0.000203446
0.000330983
-0.000485213
0.000603674
-0.000779509
0.000626171
-0.0011097
0.000550505
-0.00150977
0.000435893
-0.00200492
0.000328642
-0.00259256
0.000274039
-0.00327475
0.000305266
-0.00406501
0.000432145
-0.00496641
0.000628029
-0.0059326
0.000813335
-0.00683016
0.000867101
-0.00746519
0.000688486
-0.00767333
0.000289206
-0.00742074
-0.000192891
-0.00680593
-0.000600239
-0.00598043
-0.000854677
-0.0050715
-0.000965921
-0.00416088
-0.000979792
-0.00329626
-0.000935687
-0.0025071
-0.000859082
-0.00181095
-0.000766392
-0.0012183
-0.000669649
-0.000734834
-0.000577188
-0.000363166
-0.000494488
-0.00010168
-0.000424742
5.90207e-05
-0.000369775
0.00013364
-0.000329454
0.000136022
-0.00030046
7.83443e-05
-0.000276357
-2.7472e-05
-0.000248902
-0.000167577
-0.000209971
-0.000326728
-0.000153531
-0.000489176
-7.70934e-05
-0.00064065
1.69647e-05
-0.000770359
0.000119454
-0.000868369
0.00021048
-0.000955929
0.000299
-0.00104999
0.000362048
-0.00114524
0.000389398
-0.00123628
0.000377572
-0.00131895
0.00034256
-0.00138796
0.000296695
-0.00143926
0.000248953
-0.00146873
0.000202489
-0.00147418
0.000159889
-0.00145513
0.000122277
-0.00141147
8.93021e-05
-0.00134786
6.5233e-05
-0.00126948
5.00157e-05
-0.00117946
4.09939e-05
-0.00108069
3.72658e-05
-0.000975286
3.73556e-05
-0.000866065
4.08232e-05
-0.000755894
4.76409e-05
-0.000644506
5.37668e-05
-0.000531796
5.86994e-05
-0.000418038
6.22615e-05
-0.000302904
6.32667e-05
-0.000186139
6.12431e-05
-6.7596e-05
5.57726e-05
5.27989e-05
4.64271e-05
0.000175159
3.26944e-05
0.000299523
1.42473e-05
0.00042574
-9.04361e-06
0.000553637
-3.74284e-05
0.000683167
-7.12716e-05
0.000814301
-0.000110655
0.000946563
-0.000155727
0.00107919
-0.00020658
0.00121146
-0.000263197
0.00134194
-0.000325479
0.00146878
-0.000393182
0.00158962
-0.000465845
0.00170162
-0.000542746
0.0018016
-0.000622879
0.0018865
-0.000704986
0.00195344
-0.000787442
0.00200309
-0.000869437
-0.000943342
0.00202634
0.000658374
-0.000327391
0.00170192
-0.000439875
0.00274663
-0.000418538
0.00373566
-0.000438519
0.0046164
-0.000444846
0.00535585
-0.000410816
0.00594372
-0.000313823
0.00638545
-0.000136469
0.00669261
0.000124989
0.00687214
0.0004485
0.00691627
0.000769201
0.00679664
0.000986727
0.00646743
0.0010177
0.00589361
0.000863021
0.00508634
0.000614378
0.00410419
0.000381912
0.00303079
0.000218725
0.00194864
0.000116224
0.000918696
5.01542e-05
-1.71834e-05
1.92708e-07
-0.000838044
-3.82219e-05
-0.00153564
-6.88007e-05
-0.00211093
-9.43538e-05
-0.00257239
-0.000115727
-0.00293432
-0.000132558
-0.00321504
-0.000144026
-0.00343533
-0.000149477
-0.00361648
-0.000148308
-0.00377723
-0.000139707
-0.00393051
-0.000123085
-0.00408163
-9.77801e-05
-0.00422669
-6.49103e-05
-0.0043523
-2.79182e-05
-0.00443757
8.16971e-06
-0.00445957
3.8972e-05
-0.00440443
6.43097e-05
-0.00428314
8.9195e-05
-0.00407626
9.21134e-05
-0.0038094
9.51861e-05
-0.00351486
9.48576e-05
-0.00322412
8.68332e-05
-0.00295255
7.09943e-05
-0.00270696
5.11071e-05
-0.00248875
3.07376e-05
-0.00229445
8.19013e-06
-0.00212011
-1.44477e-05
-0.00196203
-3.58082e-05
-0.00181175
-6.09799e-05
-0.00166181
-8.47019e-05
-0.00151063
-0.000101166
-0.00136184
-0.000107798
-0.00121928
-0.000105291
-0.00108581
-9.61157e-05
-0.000961863
-8.31286e-05
-0.000845297
-6.8925e-05
-0.000735831
-5.56998e-05
-0.000632123
-4.50084e-05
-0.000532037
-3.78241e-05
-0.000434014
-3.47562e-05
-0.000336644
-3.61278e-05
-0.00023877
-4.21011e-05
-0.000139554
-5.27899e-05
-3.85364e-05
-6.83232e-05
6.45303e-05
-8.88198e-05
0.000169887
-0.000114401
0.000277648
-0.000145189
0.000387672
-0.000181295
0.000499786
-0.00022277
0.000613657
-0.000269598
0.000728744
-0.000321667
0.000844296
-0.00037875
0.000959291
-0.000440474
0.00107243
-0.000506321
0.00118221
-0.000575627
0.00128707
-0.000647601
0.00138556
-0.000721375
0.00147665
-0.000796073
0.00156013
-0.000870929
0.001636
-0.000945299
-0.0010168
0.00170945
-0.000349594
2.22035e-05
-0.000377651
-0.000411818
-7.46575e-05
-0.000721532
0.000108744
-0.000621921
7.6532e-06
-0.000343755
-0.000323594
-7.95689e-05
-0.000765972
0.000128555
-0.00119403
0.000291588
-0.00148956
0.000420521
-0.00156004
0.000518981
-0.00137873
0.000587889
-0.00102155
0.000629547
-0.000652229
0.000648384
-0.000436304
0.000647096
-0.000444178
0.000622253
-0.000627688
0.000565422
-0.000891022
0.000482059
-0.0011572
0.0003824
-0.00138907
0.000282023
-0.00158002
0.000191146
-0.00171958
0.000101342
-0.00180294
1.45573e-05
-0.00182884
-6.84547e-05
-0.00180102
-0.000143546
-0.0017268
-0.000206778
-0.00161557
-0.000255254
-0.00147689
-0.000288163
-0.00131908
-0.000306118
-0.00114791
-0.000310875
-0.000966146
-0.000304848
-0.000774323
-0.000289603
-0.000572353
-0.00026688
-0.000363246
-0.000237025
-0.000161089
-0.000193987
2.38382e-05
-0.000145955
0.000178724
-9.05763e-05
0.000290969
-2.30489e-05
0.000324185
5.88969e-05
0.000269485
0.000149886
0.000129112
0.000235231
-8.21529e-05
0.000298098
-0.000339812
0.000328653
-0.000615056
0.000326352
-0.000879396
0.000295078
-0.00110906
0.000237853
-0.00128259
0.000159085
-0.00138297
6.45719e-05
-0.00139971
-4.4239e-05
-0.00135061
-0.000133801
-0.00125995
-0.00019183
-0.00115159
-0.000216156
-0.00104207
-0.000214815
-0.00094005
-0.000198133
-0.000848822
-0.000174356
-0.000768515
-0.000149232
-0.00069749
-0.000126724
-0.000633131
-0.000109368
-0.000572514
-9.84412e-05
-0.000512952
-9.43176e-05
-0.000452194
-9.68861e-05
-0.000388505
-0.00010579
-0.000320642
-0.000120652
-0.000247777
-0.000141188
-0.000169372
-0.000167225
-8.50846e-05
-0.000198688
5.27507e-06
-0.000235549
0.00010176
-0.00027778
0.000204284
-0.000325295
0.000312588
-0.000377902
0.00042619
-0.000435268
0.000544337
-0.000496897
0.000665985
-0.000562122
0.000789791
-0.000630127
0.000914143
-0.000699979
0.00103723
-0.000770689
0.00115713
-0.000841272
0.00127188
-0.000910827
0.00137955
-0.000978594
0.00147827
-0.00104402
-0.00110587
0.00156734
0.000380078
-0.000357874
0.000886647
-0.000918387
0.0011978
-0.00103268
0.00133483
-0.000758952
0.0013866
-0.000395529
0.00139596
-8.8925e-05
0.00137553
0.000148983
0.00132387
0.000343247
0.00123658
0.000507814
0.00111847
0.000637088
0.000988114
0.000718247
0.000891741
0.00072592
0.000878976
0.000661149
0.000975149
0.000550922
0.00115966
0.000437744
0.00136631
0.000358773
0.00152355
0.000324813
0.00158903
0.000316921
0.00156347
0.000307585
0.00149242
0.000262189
0.00141297
0.000180794
0.00135766
6.98683e-05
0.0013411
-5.1898e-05
0.00135893
-0.000161368
0.00139927
-0.000247124
0.00145132
-0.000307299
0.00150717
-0.000344012
0.00156219
-0.000361146
0.00161415
-0.000362827
0.00166152
-0.000352223
0.00170342
-0.000331501
0.00173692
-0.000300382
0.00176293
-0.000263037
0.00179085
-0.0002219
0.00181747
-0.000172576
0.00184993
-0.00012304
0.00188515
-5.827e-05
0.00192509
1.89632e-05
0.00197
0.000104973
0.00201068
0.000194546
0.0020285
0.00028028
0.00200271
0.000354445
0.00191858
0.000410483
0.00177099
0.000442668
0.00156373
0.000445105
0.00130991
0.000412907
0.00102756
0.000346927
0.000726159
0.00025716
0.000431964
0.000160393
0.000168255
7.18792e-05
-4.75407e-05
-3.59933e-07
-0.000210579
-5.1776e-05
-0.000325369
-8.33429e-05
-0.00040284
-9.68847e-05
-0.00045402
-9.80522e-05
-0.000486254
-9.44899e-05
-0.000503176
-9.24463e-05
-0.000506569
-9.50481e-05
-0.000497203
-0.000103684
-0.000475602
-0.000118487
-0.000442537
-0.000138855
-0.000398686
-0.000164504
-0.00034464
-0.000195234
-0.000280863
-0.000231003
-0.000207699
-0.000271852
-0.00012542
-0.000317828
-3.4301e-05
-0.000368899
6.52886e-05
-0.000424884
0.000172784
-0.000485398
0.000287336
-0.00054982
0.000407733
-0.000617294
0.000532373
-0.000686762
0.00065926
-0.000757014
0.000786061
-0.00082678
0.000910202
-0.000894829
0.00102901
-0.000960078
0.00113989
-0.0010217
0.00124054
-0.00107925
0.00132921
-0.00113269
-0.00118229
0.00140562
0.000272291
-0.000630166
0.000436099
-0.00108219
0.000446837
-0.00104342
0.0005764
-0.000888515
0.000911612
-0.000730741
0.00131544
-0.000492754
0.00160045
-0.000136024
0.00166359
0.000280109
0.00156801
0.00060339
0.0014929
0.000712199
0.00158397
0.000627173
0.00184245
0.000467445
0.00216911
0.000334489
0.002464
0.000256036
0.00267523
0.000226509
0.00279152
0.000242482
0.00282861
0.000287729
0.00281936
0.000326168
0.00278715
0.000339799
0.00274306
0.00030628
0.00269621
0.000227641
0.00263739
0.00012869
0.00255337
3.21247e-05
0.00244521
-5.32151e-05
0.00232284
-0.000124747
0.00219472
-0.000179181
0.0020678
-0.000217092
0.00194782
-0.000241166
0.0018392
-0.000254212
0.00174577
-0.000258788
0.00167095
-0.000256681
0.00161915
-0.000248582
0.00159009
-0.000233983
0.00157973
-0.000211536
0.00158512
-0.000177964
0.0015931
-0.000131026
0.00160245
-6.76158e-05
0.00162567
-4.26135e-06
0.00166126
6.93921e-05
0.00170407
0.000151727
0.00174884
0.000235511
0.00178822
0.000315069
0.00181373
0.00038497
0.00181633
0.000440069
0.00178572
0.000475715
0.0017102
0.000488428
0.00158024
0.000476885
0.00139524
0.000442168
0.00116829
0.000387336
0.000922196
0.000317976
0.000678792
0.000243045
0.000453815
0.0001732
0.000253852
0.000116621
8.17054e-05
7.52621e-05
-6.1612e-05
4.52654e-05
-0.000176448
2.03467e-05
-0.000264139
-4.75553e-06
-0.000326327
-3.28597e-05
-0.000365517
-6.44932e-05
-0.000384354
-9.9651e-05
-0.000385067
-0.000138142
-0.000369772
-0.000179799
-0.00034029
-0.000224716
-0.000298083
-0.00027321
-0.000244268
-0.000325667
-0.000179689
-0.000382407
-0.000105036
-0.000443553
-2.0977e-05
-0.000508943
7.16979e-05
-0.000578073
0.000171965
-0.000650087
0.000278488
-0.000723818
0.00038959
-0.000797864
0.00050328
-0.000870704
0.000617334
-0.000940834
0.000729423
-0.00100692
0.000837291
-0.00106795
0.000938958
-0.00112337
0.00103292
-0.00117321
0.0011184
-0.00121816
-0.00126
0.00119611
-0.000688323
5.8157e-05
-0.00167392
-9.65987e-05
-0.00257511
-0.000142229
-0.00356038
9.67581e-05
-0.00473469
0.000443563
-0.00599689
0.00076945
-0.00717463
0.00104171
-0.00809684
0.00120232
-0.0086419
0.00114845
-0.00877556
0.000845858
-0.00855961
0.000411224
-0.0081145
2.23367e-05
-0.00755862
-0.00022139
-0.00697585
-0.00032673
-0.00640521
-0.000344134
-0.00584732
-0.000315411
-0.00528249
-0.000277099
-0.00471513
-0.000241188
-0.00415715
-0.000218183
-0.0036411
-0.000209773
-0.00319806
-0.000215394
-0.00283575
-0.000233622
-0.00253954
-0.000264086
-0.00228868
-0.00030408
-0.0020654
-0.000348022
-0.00185594
-0.000388643
-0.0016546
-0.000418428
-0.00146348
-0.000432294
-0.00128879
-0.000428903
-0.00113683
-0.000410749
-0.00101037
-0.000383133
-0.000906684
-0.000352271
-0.000817832
-0.000322835
-0.000733387
-0.000295981
-0.000642589
-0.000268761
-0.000538273
-0.000235342
-0.000416247
-0.000189642
-0.00029259
-0.000127918
-0.000173055
-5.01429e-05
-5.99714e-05
3.86437e-05
4.4788e-05
0.000130752
0.000139707
0.000220149
0.000225124
0.000299554
0.000301294
0.000363899
0.000367044
0.000409964
0.000419356
0.000436116
0.000453928
0.000442312
0.000465862
0.000430234
0.000449835
0.000403363
0.000401146
0.000366666
0.000318678
0.000325513
0.000207936
0.000283942
8.11948e-05
0.000243361
-4.64156e-05
0.000202873
-0.000161871
0.00016072
-0.000257229
0.000115705
-0.000329591
6.7606e-05
-0.000379517
1.70657e-05
-0.000409018
-3.49919e-05
-0.000421865
-8.68039e-05
-0.000420729
-0.000139279
-0.000408057
-0.000192471
-0.000385621
-0.000247151
-0.000354509
-0.000304322
-0.000315217
-0.000364959
-0.000267818
-0.000429806
-0.000212158
-0.000499213
-0.000148058
-0.000573044
-7.54849e-05
-0.000650645
5.3088e-06
-0.00073088
9.3708e-05
-0.000812217
0.000188696
-0.000892852
0.00028886
-0.000970868
0.000392447
-0.00104442
0.000497456
-0.00111193
0.000601781
-0.00117227
0.000703381
-0.00122497
0.000800481
-0.00127031
0.000891818
-0.0013095
-0.00134552
0.000977337
0.000172818
-0.000114661
0.000437955
-0.000361736
0.000825849
-0.000530123
0.00134402
-0.000421414
0.00193315
-0.000145567
0.00261246
9.01414e-05
0.0034542
0.000199969
0.00446855
0.000187975
0.00551896
9.80311e-05
0.00637393
-9.11173e-06
0.0068642
-7.90477e-05
0.00699375
-0.000107206
0.00686368
-9.13249e-05
0.00658713
-5.01832e-05
0.00622964
1.33579e-05
0.00583566
7.85698e-05
0.00543117
0.000127393
0.00503785
0.000152131
0.00466508
0.000154588
0.00431941
0.000135893
0.00401146
9.25618e-05
0.00375689
2.09502e-05
0.00357012
-7.73201e-05
0.00345812
-0.000192082
0.00341584
-0.000305742
0.00342551
-0.000398304
0.00346078
-0.000453697
0.00349171
-0.000463229
0.00349047
-0.000427662
0.00343621
-0.000356488
0.00331883
-0.000265753
0.0031403
-0.000173746
0.00291349
-9.60168e-05
0.00265515
-3.76419e-05
0.00237446
1.19224e-05
0.00208674
5.23808e-05
0.00179993
9.71638e-05
0.00152414
0.000147875
0.0012707
0.0002033
0.00104515
0.000264191
0.000849217
0.000326686
0.000684073
0.000385294
0.000548693
0.000434934
0.000440278
0.000472314
0.000354184
0.000496058
0.000284054
0.000506246
0.000222457
0.000503909
0.000161999
0.000490694
9.68003e-05
0.000468562
2.40464e-05
0.00043942
-5.51175e-05
0.000404677
-0.000136105
0.00036493
-0.000212818
0.000320075
-0.000279786
0.00026984
-0.000333505
0.00021444
-0.000372744
0.000154945
-0.000398231
9.30934e-05
-0.000411738
3.05729e-05
-0.000413648
-3.30814e-05
-0.000413728
-8.67237e-05
-0.000410736
-0.000142271
-0.000405599
-0.000197608
-0.000398362
-0.000254389
-0.000388219
-0.000314465
-0.000373806
-0.000379372
-0.000353513
-0.000450098
-0.000325759
-0.000526968
-0.000289183
-0.000609619
-0.00024278
-0.000697049
-0.000185967
-0.000787694
-0.000118638
-0.000879546
-4.1209e-05
-0.000970281
4.53533e-05
-0.00105743
0.000139523
-0.00113859
0.00023929
-0.00121169
0.000342303
-0.00127529
0.000446097
-0.00132876
0.000548355
-0.00137257
0.00064731
-0.00140845
-0.0014407
0.000742497
-0.000423322
0.000308661
-0.00139674
0.000611682
-0.00269765
0.000770786
-0.00397536
0.0008563
-0.00495681
0.000835878
-0.00559896
0.000732292
-0.00596818
0.000569194
-0.00614834
0.000368129
-0.00619672
0.000146408
-0.00613917
-6.66528e-05
-0.00595967
-0.000258549
-0.00565304
-0.000413841
-0.00522267
-0.000521687
-0.00469768
-0.000575177
-0.00410698
-0.000577338
-0.00347532
-0.000553091
-0.00282604
-0.000521892
-0.00216664
-0.000507265
-0.00150656
-0.000505498
-0.000874453
-0.00049621
-0.000314096
-0.000467796
0.00012485
-0.000417995
0.000409597
-0.000362068
0.000529388
-0.000311873
0.000493002
-0.000269356
0.000326692
-0.000231994
6.7688e-05
-0.000194693
-0.000242078
-0.000153463
-0.000563228
-0.000106512
-0.000864412
-5.53043e-05
-0.00112484
-5.32061e-06
-0.0013354
3.68085e-05
-0.00149817
6.67589e-05
-0.00161979
8.3975e-05
-0.00170071
9.28373e-05
-0.00174818
9.98506e-05
-0.00176094
0.000109926
-0.00173895
0.000125884
-0.00168418
0.000148533
-0.00159728
0.000177292
-0.00148109
0.000210495
-0.00134142
0.000245627
-0.00118647
0.000279981
-0.00102533
0.00031117
-0.000866707
0.000337439
-0.000718104
0.000357642
-0.000585309
0.000371115
-0.000472105
0.00037749
-0.000380072
0.000376529
-0.000308623
0.000367971
-0.000255409
0.000351463
-0.000217107
0.000326628
-0.000190345
0.000293314
-0.000172438
0.000251933
-0.000161744
0.000203746
-0.000157677
0.000150877
-0.000160546
9.5962e-05
-0.000171759
4.17855e-05
-0.0001953
-9.54119e-06
-0.000220959
-6.10648e-05
-0.000251208
-0.000112022
-0.000284261
-0.000164555
-0.000317233
-0.000221417
-0.000347139
-0.000284559
-0.000371296
-0.000355216
-0.000387476
-0.000433918
-0.000393853
-0.00052059
-0.000388891
-0.000614581
-0.000371278
-0.000714661
-0.00033994
-0.000819032
-0.000294151
-0.000925335
-0.000233702
-0.00103073
-0.000159088
-0.00113204
-7.16244e-05
-0.00122605
2.65504e-05
-0.00130987
0.000132602
-0.00138134
0.000243295
-0.00143946
0.000355383
-0.00148466
0.000466081
-0.00151915
-0.00154802
0.000573403
0.000621311
-0.000312651
0.00132146
-8.84668e-05
0.00157524
0.000517009
0.00128384
0.00114769
0.000443002
0.00167672
-0.000868185
0.00204348
-0.00251921
0.00222022
-0.00437058
0.0022195
-0.00630234
0.00207817
-0.00821277
0.00184377
-0.010034
0.00156273
-0.0117083
0.00126038
-0.0131566
0.000926636
-0.0142879
0.000556143
-0.0150182
0.000152943
-0.015321
-0.000250278
-0.0152309
-0.000612007
-0.0148264
-0.000911791
-0.0141897
-0.00114215
-0.0133913
-0.00129463
-0.0124937
-0.00136535
-0.0115479
-0.00136378
-0.0105992
-0.00131078
-0.0096814
-0.0012297
-0.00881367
-0.00113708
-0.0080069
-0.00103877
-0.00726626
-0.00093533
-0.00659175
-0.000827972
-0.00597702
-0.000721243
-0.00541163
-0.000620689
-0.00488691
-0.000530043
-0.00439954
-0.000450565
-0.00395084
-0.000381935
-0.00354397
-0.000322897
-0.0031796
-0.000271534
-0.00285413
-0.00022562
-0.00256158
-0.000182626
-0.00229585
-0.000139847
-0.00204899
-9.83222e-05
-0.00181106
-6.06363e-05
-0.00157978
-2.07891e-05
-0.0013539
1.97507e-05
-0.00113348
5.95542e-05
-0.00091961
9.73038e-05
-0.000714434
0.000132263
-0.000520383
0.000163592
-0.000339861
0.000190592
-0.000174899
0.000212528
-2.70649e-05
0.000228695
0.000102481
0.000238426
0.000212757
0.000241187
0.00030269
0.000236695
0.000370925
0.000225078
0.000415856
0.000207002
0.000435937
0.000183665
0.000430252
0.000156562
0.000399178
0.000127037
0.000345209
9.57553e-05
0.000273338
6.23291e-05
0.000186972
2.53013e-05
9.23934e-05
-1.74434e-05
-2.64609e-06
-6.95152e-05
-9.38951e-05
-0.000130168
-0.000177208
-0.000201246
-0.000249562
-0.000282862
-0.000308788
-0.000374691
-0.000353235
-0.000476143
-0.000381508
-0.000586308
-0.000392336
-0.000703833
-0.000384592
-0.000826776
-0.000357446
-0.000952482
-0.00031061
-0.00107756
-0.000244612
-0.00119804
-0.000161011
-0.00130966
-6.24994e-05
-0.00140838
4.72309e-05
-0.00149107
0.000163801
-0.00155603
0.000282625
-0.00160348
0.000399494
-0.00163602
-0.00165908
0.000510549
-0.00057986
0.000267209
-0.000989855
0.000321528
-0.000919459
0.000446613
-0.000818444
0.00104668
-0.00100375
0.00186203
-0.00150034
0.00254006
-0.00222999
0.00294988
-0.00314746
0.00313696
-0.00426214
0.00319285
-0.00561033
0.00319196
-0.00719341
0.00314581
-0.00894538
0.00301235
-0.0107584
0.00273968
-0.0124979
0.00229564
-0.0140198
0.00167483
-0.0151805
0.000910353
-0.0158833
9.08334e-05
-0.0160959
-0.000699182
-0.0158517
-0.00138631
-0.0152156
-0.0019308
-0.0142607
-0.00232023
-0.0130584
-0.00256605
-0.0116688
-0.00270037
-0.010151
-0.00274758
-0.00858116
-0.00270688
-0.00706764
-0.00255229
-0.00573518
-0.0022678
-0.00467358
-0.00188957
-0.00389575
-0.00149907
-0.00334778
-0.00116865
-0.00295236
-0.000925468
-0.0026453
-0.000757629
-0.00238765
-0.000639585
-0.00216063
-0.000549913
-0.00195623
-0.000475933
-0.00177035
-0.000411498
-0.00159934
-0.000353641
-0.00143853
-0.000300656
-0.00128529
-0.000251565
-0.00114043
-0.000205495
-0.000999646
-0.000161571
-0.000860655
-0.000119241
-0.000722913
-7.81879e-05
-0.000586976
-3.86329e-05
-0.000454477
-2.36757e-07
-0.000326959
3.60742e-05
-0.000206372
7.00052e-05
-9.49017e-05
0.000101058
5.11272e-06
0.00012868
9.13805e-05
0.000152158
0.000161439
0.000171128
0.00021298
0.000185154
0.000244052
0.000194006
0.000253448
0.000197605
0.000241196
0.000195917
0.000208991
0.000188767
0.000160376
0.000175651
0.000100457
0.000155674
3.51171e-05
0.000127669
-3.00473e-05
9.04659e-05
-9.02682e-05
4.27778e-05
-0.000141894
-1.78891e-05
-0.000189899
-8.21626e-05
-0.000230533
-0.000160611
-0.000263629
-0.000249766
-0.000288939
-0.000349382
-0.000305827
-0.000459255
-0.000313183
-0.000578952
-0.00030946
-0.000707556
-0.000292837
-0.000843399
-0.000261475
-0.000983844
-0.000213859
-0.00112518
-0.000149202
-0.0012627
-6.79275e-05
-0.00139093
2.8113e-05
-0.00150442
0.000135471
-0.00159842
0.000249478
-0.00167004
0.000364969
-0.00171897
0.000476851
-0.0017479
-0.00176236
0.00058013
0.000337696
-7.04868e-05
0.00110141
-0.000442189
0.0022436
-0.000695574
0.00382284
-0.000532563
0.00583613
-0.00015126
0.00817436
0.000201837
0.0106346
0.000489663
0.0129829
0.000788684
0.0149726
0.00120312
0.016468
0.00169655
0.0175561
0.00205771
0.01853
0.00203849
0.0196409
0.00162875
0.0208547
0.00108182
0.0219029
0.000626602
0.0225205
0.00029283
0.0226013
1.00224e-05
0.0221888
-0.000286685
0.0213658
-0.000563309
0.020237
-0.000802015
0.0189104
-0.000993619
0.0174814
-0.00113705
0.0160122
-0.00123117
0.0145308
-0.00126619
0.0130415
-0.00121756
0.0115435
-0.00105434
0.0100486
-0.000772907
0.00858759
-0.000428529
0.00720002
-0.000111495
0.00591955
0.000111819
0.00476603
0.000228048
0.00374698
0.000261422
0.00286294
0.000244457
0.00210983
0.000203191
0.00147933
0.000154568
0.00096319
0.000104644
0.000551504
5.80448e-05
0.000228947
2.19007e-05
-1.31653e-05
-9.45331e-06
-0.000185684
-3.29769e-05
-0.000299831
-4.74244e-05
-0.000366434
-5.26374e-05
-0.000395488
-4.91343e-05
-0.000396167
-3.79531e-05
-0.000375951
-2.04527e-05
-0.000341532
1.65517e-06
-0.00029888
2.73531e-05
-0.000253428
5.56049e-05
-0.000208349
8.3602e-05
-0.000166854
0.000110664
-0.000131019
0.000135293
-0.000102249
0.000156383
-8.10481e-05
0.000172805
-6.69578e-05
0.000183515
-5.85969e-05
0.000187556
-5.38963e-05
0.000184066
-5.05307e-05
0.000172285
-4.64465e-05
0.00015159
-4.03114e-05
0.000121534
-3.17075e-05
8.18623e-05
-2.14049e-05
3.24753e-05
-1.26935e-05
-2.66011e-05
8.77455e-08
-9.49443e-05
1.26044e-05
-0.000173127
2.42644e-05
-0.000261425
3.50965e-05
-0.000360213
4.5701e-05
-0.00046986
5.7257e-05
-0.000590508
7.1519e-05
-0.000721818
9.07656e-05
-0.000862645
0.000117638
-0.00101072
0.000154798
-0.00116234
0.000204384
-0.00131228
0.000267481
-0.00145403
0.000343378
-0.00158032
0.000429505
-0.00168455
0.00052154
-0.00176207
0.000614104
-0.00181154
0.000701796
-0.0018356
-0.00184006
0.000779498
0.000593895
-0.000664382
0.00138477
-0.00123306
0.00194987
-0.00126068
0.00241014
-0.000992834
0.00280527
-0.000546389
0.00294123
6.58794e-05
0.00267118
0.000759708
0.00209376
0.00136611
0.00158686
0.00171002
0.00153687
0.00174654
0.00206931
0.00152526
0.00301854
0.00108926
0.00412006
0.000527222
0.00518505
1.6826e-05
0.00610899
-0.000297336
0.00680719
-0.000405372
0.00720414
-0.000386921
0.00723033
-0.000312875
0.00691047
-0.000243447
0.00629825
-0.0001898
0.00545451
-0.000149882
0.00443329
-0.000115826
0.00328072
-7.86034e-05
0.00204667
-3.21417e-05
0.000805207
2.39009e-05
-0.000331735
8.26042e-05
-0.00123794
0.000133299
-0.00183243
0.000165962
-0.0021244
0.000180474
-0.00219845
0.00018587
-0.00214874
0.000178338
-0.00205158
0.000164259
-0.00194876
0.000141636
-0.00185695
0.000111378
-0.00177648
7.4103e-05
-0.00170337
3.15277e-05
-0.00163171
-1.36149e-05
-0.0015518
-5.80045e-05
-0.00146291
-9.83452e-05
-0.00136442
-0.000131471
-0.00125692
-0.000154924
-0.00114228
-0.000167278
-0.00102317
-0.000168244
-0.000902593
-0.000158527
-0.000783492
-0.000139554
-0.000668655
-0.000113182
-0.00055986
-8.14418e-05
-0.000457846
-4.64088e-05
-0.000364426
-9.81851e-06
-0.000279384
2.56219e-05
-0.000202063
5.79719e-05
-0.000132048
8.63672e-05
-6.82211e-05
0.000108979
-9.12893e-06
0.000124423
4.67676e-05
0.00013166
0.000100893
0.000129941
0.000154357
0.000118822
0.000207813
9.81339e-05
0.000261428
6.7919e-05
0.000315129
2.81609e-05
0.000368129
-2.05247e-05
0.000419467
-7.79391e-05
0.000468976
-0.000144453
0.000515857
-0.000220008
0.000559335
-0.000304904
0.000598689
-0.000399568
0.000633356
-0.000504527
0.000663164
-0.000620316
0.000688589
-0.000747242
0.000710952
-0.000885009
0.000732433
-0.0010322
0.000755773
-0.00118568
0.000783721
-0.00134023
0.000818215
-0.00148852
0.000859744
-0.00162185
0.000906815
-0.00173162
0.000956173
-0.00181143
0.00100354
-0.0018589
0.00104465
-0.00187671
-0.00187163
0.00107622
-0.00036668
-0.000297701
-0.000964456
-0.000635288
-0.00154873
-0.000676402
-0.00219492
-0.00034665
-0.00298835
0.000247041
-0.00389862
0.00097615
-0.00478728
0.00164838
-0.0054357
0.00201453
-0.00561014
0.00188446
-0.00518739
0.00132379
-0.00430308
0.000640952
-0.00334112
0.000127303
-0.00267261
-0.000141284
-0.00240857
-0.000247213
-0.00243443
-0.000271476
-0.00259143
-0.000248374
-0.00278094
-0.000197408
-0.00295705
-0.000136768
-0.00311997
-8.05296e-05
-0.00327181
-3.79604e-05
-0.00340872
-1.29728e-05
-0.00351868
-5.86265e-06
-0.00358242
-1.48628e-05
-0.00357841
-3.61516e-05
-0.00348781
-6.67025e-05
-0.00330741
-9.77954e-05
-0.00305525
-0.000118861
-0.0027672
-0.000122085
-0.00248599
-0.000100731
-0.00224134
-5.87823e-05
-0.0020534
-9.60604e-06
-0.00192021
3.10757e-05
-0.00183032
5.17389e-05
-0.00176736
4.84253e-05
-0.00171792
2.46561e-05
-0.00167197
-1.44178e-05
-0.00162166
-6.39281e-05
-0.00156143
-0.000118232
-0.00148804
-0.000171733
-0.00139995
-0.000219562
-0.00129702
-0.000257848
-0.00118038
-0.000283919
-0.00105219
-0.000296433
-0.000915381
-0.00029534
-0.000773218
-0.000281717
-0.000628909
-0.000257492
-0.000485237
-0.000225113
-0.000344412
-0.000187234
-0.000207746
-0.000146485
-7.67533e-05
-0.000105371
4.74378e-05
-6.62195e-05
0.000164686
-3.08806e-05
0.000274886
-1.22182e-06
0.000378751
2.05578e-05
0.000476535
3.38755e-05
0.00056886
3.76152e-05
0.000656444
3.12371e-05
0.000740028
1.45512e-05
0.0008204
-1.24525e-05
0.000898009
-4.9448e-05
0.000973419
-9.59355e-05
0.0010471
-0.00015162
0.00111868
-0.000216033
0.00118747
-0.000288792
0.00125222
-0.000369659
0.00131131
-0.00045866
0.00136298
-0.000556196
0.00140571
-0.000663045
0.00143865
-0.000780182
0.00146193
-0.000908289
0.00147673
-0.00104699
0.001485
-0.00119395
0.0014889
-0.00134413
0.00149002
-0.00148965
0.00148884
-0.00162066
0.00148453
-0.00172731
0.00147535
-0.00180224
0.00145934
-0.0018429
0.00143523
-0.0018526
-0.00183977
0.00140337
-0.000768331
0.00047063
-0.0021308
0.000727181
-0.0035158
0.000708598
-0.00468118
0.000818733
-0.00551536
0.00108122
-0.00589919
0.00135998
-0.00579646
0.00154565
-0.00534013
0.0015582
-0.00480697
0.0013513
-0.00444462
0.000961441
-0.00433805
0.000534383
-0.00442615
0.000215402
-0.00461418
4.675e-05
-0.0048433
-1.80975e-05
-0.00508141
-3.33596e-05
-0.00530244
-2.73472e-05
-0.00548692
-1.29245e-05
-0.00562599
2.29334e-06
-0.00572031
1.37929e-05
-0.00577219
1.39216e-05
-0.00578184
-3.32317e-06
-0.00574485
-4.28515e-05
-0.0056527
-0.000107014
-0.0054913
-0.000197553
-0.00525615
-0.000301855
-0.00495711
-0.000396832
-0.00461575
-0.000460221
-0.00425608
-0.000481757
-0.00390146
-0.000455349
-0.0035656
-0.000394647
-0.00325654
-0.000318666
-0.00297655
-0.000248915
-0.00272358
-0.000201223
-0.00249349
-0.000181668
-0.00228048
-0.00018836
-0.00207942
-0.000215477
-0.00188743
-0.000255918
-0.0017024
-0.000303262
-0.00152259
-0.000351539
-0.0013465