/*--------------------------------*- C++ -*----------------------------------*\
| =========                 |                                                 |
| \\      /  F ield         | OpenFOAM: The Open Source CFD Toolbox           |
|  \\    /   O peration     | Version:  2012                                  |
|   \\  /    A nd           | Website:  www.openfoam.com                      |
|    \\/     M anipulation  |                                                 |
\*---------------------------------------------------------------------------*/
FoamFile
{
    version     2.0;
    format      ascii;
    class       volScalarField;
    location    "0.15";
    object      p;
}
// * * * * * * * * * * * * * * * * * * * * * * * * * * * * * * * * * * * * * //

dimensions      [0 2 -2 0 0 0 0];


internalField   nonuniform List<scalar> 
42400
(
-2759.53
-2223
-1445.62
-555.192
419.084
1320.16
2109.76
2761.61
3241.99
3540.44
3689.94
3742.85
3732.07
3665.88
3544.22
3377.64
3186.48
2988.78
2789.98
2584.81
2363.65
2119.37
1853.94
1579.8
1309.13
1053.91
820.602
612.048
429.572
273.423
142.963
38.4939
-40.6027
-96.2132
-130.81
-147.195
-148.559
-138.235
-119.409
-94.9611
-67.3971
-38.8896
-11.4312
12.79
32.1803
45.5098
52.6163
54.2026
51.4847
46.0686
39.6142
33.0262
26.815
21.229
16.3434
12.1334
8.5237
5.4192
2.72368
0.350044
-1.77451
-3.70688
-5.48865
-7.14808
-8.70268
-10.1619
-11.5298
-12.8069
-13.992
-15.0831
-16.0783
-16.9758
-17.7745
-18.4734
-19.0713
-19.5662
-19.9537
-20.224
-20.3604
-20.3477
4440.76
3988.12
3423.17
2772.6
1974.89
1131.53
291.987
-500.533
-1217.6
-1851.7
-2413.92
-2924.97
-3395.54
-3810.24
-4126.22
-4292.76
-4277.03
-4082.52
-3748.1
-3330.91
-2888.61
-2467.72
-2098.92
-1790.17
-1524.93
-1274.67
-1021.66
-770.04
-537.084
-338.031
-179.059
-58.6772
27.9635
85.886
119.621
133.662
132.898
122.243
105.975
87.7217
70.4619
56.3083
46.4026
40.555
37.8901
37.2132
37.0702
36.6042
35.577
33.95
31.5684
28.6544
25.4334
22.0784
18.7216
15.4547
12.3351
9.39266
6.63799
4.06941
1.67891
-0.543208
-2.60611
-4.51745
-6.28339
-7.90903
-9.39893
-10.7574
-11.9887
-13.0971
-14.0866
-14.9609
-15.7235
-16.377
-16.9234
-17.3636
-17.6971
-17.9219
-18.0381
-18.0592
-8436.16
-8159.05
-7828.1
-7484.93
-7125.74
-6764.17
-6375.19
-5940.01
-5451.74
-4914.41
-4341.5
-3753.07
-3172.8
-2623.57
-2123.33
-1683.65
-1310.06
-1003.01
-760.23
-579.263
-460.346
-407.499
-420.407
-483.548
-562.397
-620.036
-635.904
-614.593
-572.153
-521.239
-467.026
-411.122
-354.608
-299.089
-246.459
-198.258
-155.115
-117.074
-83.9788
-55.371
-30.5744
-9.1441
8.68137
23.0642
33.8162
40.898
44.5534
45.3419
43.9515
41.081
37.32
33.1103
28.765
24.4883
20.4008
16.565
13.0056
9.72391
6.70837
3.94279
1.41032
-0.904185
-3.01363
-4.92908
-6.6605
-8.21761
-9.61019
-10.8482
-11.9417
-12.9003
-13.733
-14.448
-15.0524
-15.5521
-15.9517
-16.2548
-16.464
-16.581
-16.6088
-16.5575
643.454
823.566
1049.49
1287.4
1565.69
1897.73
2338.29
2891.27
3460.19
3904.16
4150.61
4218.72
4161.41
4015.75
3801.98
3536.57
3236.76
2921.43
2608.45
2311.07
2038.87
1798.07
1589.51
1406.82
1240.72
1086.03
942.569
811.789
694.788
592.384
504.305
429.678
367.109
314.939
271.506
235.305
205.064
179.74
158.452
140.451
125.099
111.877
100.364
90.1604
80.8948
72.3062
64.2722
56.6949
49.5436
42.8187
36.5329
30.7006
25.33
20.4193
15.9558
11.918
8.27805
5.00578
2.0709
-0.554755
-2.89654
-4.97699
-6.81646
-8.43371
-9.84648
-11.0717
-12.1257
-13.0241
-13.7816
-14.4118
-14.927
-15.338
-15.6539
-15.8821
-16.0286
-16.0979
-16.0936
-16.0184
-15.8745
-15.6691
10955.7
10680.7
10342.2
9883.18
9230.68
8407.89
7451.48
6412.48
5332.21
4249.23
3230.7
2360.64
1682.46
1175.01
782.35
464.476
213.651
31.1261
-89.4609
-155.812
-174.352
-156.321
-114.832
-60.0159
1.03256
62.6871
121.088
173.917
220.048
258.974
290.141
312.721
325.78
328.667
321.452
305.201
281.931
254.204
224.563
195.068
167.127
141.555
118.725
98.7131
81.3999
66.5545
53.8936
43.1227
33.9624
26.1623
19.5063
13.8122
8.92723
4.72687
1.10864
-2.0112
-4.70084
-7.01591
-9.00213
-10.6977
-12.1353
-13.3438
-14.349
-15.1742
-15.8403
-16.366
-16.7676
-17.0598
-17.2552
-17.3653
-17.3999
-17.3675
-17.2751
-17.1284
-16.9315
-16.6876
-16.399
-16.0673
-15.6933
-15.2848
-6359.56
-6150.03
-5843.93
-5440.59
-4932.87
-4417.5
-3965.86
-3611.16
-3333.14
-3074.5
-2779.01
-2427.6
-2041.04
-1656.76
-1308.25
-1015.41
-781.178
-596.082
-447.028
-322.886
-216.391
-124.531
-45.3033
22.5656
79.8193
127.474
166.792
199.056
224.865
244.659
257.959
263.621
260.51
248.289
227.889
201.487
172.027
142.424
114.836
90.4428
69.5933
52.1557
37.7817
26.0407
16.4938
8.73593
2.41431
-2.76207
-7.02414
-10.5517
-13.4828
-15.9225
-17.9497
-19.6237
-20.989
-22.0799
-22.9241
-23.5457
-23.9671
-24.2104
-24.298
-24.2528
-24.0964
-23.8489
-23.5277
-23.1471
-22.7185
-22.2511
-21.7519
-21.227
-20.6812
-20.1183
-19.5413
-18.9522
-18.3522
-17.7417
-17.1205
-16.4881
-15.8439
-15.1955
-1476.53
-1376.51
-1256.35
-1116.59
-912.588
-672.709
-423.458
-183.295
48.0707
276.763
500.999
708.758
883.979
1013.23
1088.25
1106.55
1072.33
993.995
883.042
752.243
612.561
472.511
336.709
208.507
90.2864
-15.9933
-107.963
-183.267
-240.533
-279.181
-299.351
-303.05
-294.3
-277.589
-256.444
-233.281
-209.86
-187.645
-167.665
-150.363
-135.636
-122.979
-111.999
-102.406
-94.022
-86.7261
-80.4055
-74.9426
-70.2169
-66.1101
-62.5119
-59.3228
-56.456
-53.8389
-51.4124
-49.1314
-46.9629
-44.8853
-42.8863
-40.9603
-39.1061
-37.3248
-35.6175
-33.9841
-32.4233
-30.932
-29.5064
-28.1423
-26.8353
-25.5815
-24.3772
-23.219
-22.1035
-21.027
-19.9859
-18.9764
-17.9949
-17.0377
-16.1023
-15.1929
7575.98
7415.44
7197.29
6894.95
6508.88
6076.08
5603.2
5083.96
4514.15
3899.41
3256.58
2609.1
1981.14
1392.7
856.673
379.298
-38.7503
-398.902
-703.861
-956.588
-1159.53
-1315.26
-1426.19
-1493.05
-1515.93
-1495.75
-1435.45
-1340.68
-1219.98
-1084.48
-946.816
-818.297
-705.32
-608.629
-525.731
-454.019
-392.431
-340.867
-298.813
-264.903
-237.098
-213.8
-193.924
-176.749
-161.789
-148.691
-137.175
-127.003
-117.969
-109.887
-102.597
-95.9626
-89.8695
-84.2271
-78.9663
-74.0369
-69.4038
-65.0435
-60.9405
-57.0839
-53.4649
-50.0747
-46.9035
-43.94
-41.1715
-38.5848
-36.1664
-33.9033
-31.783
-29.7943
-27.9263
-26.1689
-24.5126
-22.9479
-21.4662
-20.0593
-18.7196
-17.4402
-16.216
-15.0457
-14882.2
-14427.6
-13859.3
-13183.6
-12356.9
-11382.1
-10258.4
-9019.25
-7720.69
-6420.2
-5165.75
-3995.82
-2946.37
-2051.86
-1337.77
-813.785
-474.046
-300.979
-267.368
-338.796
-477.9
-647.036
-809.437
-934.978
-1007.88
-1029
-1009.13
-960.462
-893.004
-815.202
-734.746
-658.162
-589.777
-531.03
-481.046
-438.047
-400.379
-366.867
-336.904
-310.066
-286.21
-264.949
-245.83
-228.507
-212.705
-198.201
-184.817
-172.408
-160.859
-150.075
-139.976
-130.497
-121.583
-113.188
-105.275
-97.8175
-90.7969
-84.2001
-78.0181
-72.2427
-66.8647
-61.8717
-57.2471
-52.9709
-49.0199
-45.3697
-41.9957
-38.8743
-35.9835
-33.303
-30.814
-28.4991
-26.3419
-24.3272
-22.4411
-20.6708
-19.0049
-17.4331
-15.9474
-14.5402
5526.72
5344.79
5046.41
4571.08
3903.31
3136.78
2353.08
1614.91
957.7
396.973
-64.3813
-431.573
-713.655
-922.04
-1069.03
-1165.99
-1222.15
-1244.89
-1241.29
-1217.55
-1177.67
-1123.24
-1054.73
-973.121
-880.459
-780.603
-679.258
-582.596
-496.203
-424.031
-367.597
-325.984
-296.661
-276.55
-262.813
-253.195
-246.089
-240.4
-235.362
-230.474
-225.445
-220.073
-214.271
-208.064
-201.509
-194.66
-187.556
-180.206
-172.608
-164.766
-156.698
-148.44
-140.043
-131.574
-123.111
-114.738
-106.544
-98.6102
-91.012
-83.8101
-77.0484
-70.7512
-64.9242
-59.5565
-54.625
-50.0992
-45.9451
-42.1292
-38.6198
-35.3878
-32.4065
-29.6516
-27.1007
-24.7331
-22.5304
-20.4759
-18.5551
-16.7549
-15.0652
-13.4724
8675.03
8577.18
8502.09
8436.22
8353.51
8247.34
8109.63
7931.89
7707.69
7432.32
7103.94
6724.01
6296.22
5826.91
5325.67
4805.4
4280.95
3766.72
3273.85
2808.67
2374.23
1973.15
1608.34
1281.94
993.828
743.216
531.004
358.484
224
121.289
41.9432
-21.0473
-71.6839
-111.939
-143.216
-167.033
-185.017
-198.485
-208.387
-215.445
-220.16
-222.879
-223.852
-223.236
-221.123
-217.598
-212.782
-206.803
-199.789
-191.872
-183.182
-173.851
-164.016
-153.824
-143.426
-132.979
-122.644
-112.575
-102.913
-93.7751
-85.2505
-77.3915
-70.2138
-63.7004
-57.8097
-52.4857
-47.6673
-43.2954
-39.3169
-35.6853
-32.3604
-29.3072
-26.4952
-23.8972
-21.49
-19.2531
-17.1693
-15.2237
-13.4044
-11.6928
-4743.16
-4598.24
-4388.94
-4106.84
-3730.11
-3293.51
-2817.41
-2321.75
-1821.66
-1325.76
-838.035
-362.525
90.2086
500.267
845.194
1110.97
1297.47
1414.43
1471.57
1478.22
1441.6
1367.91
1264.36
1139.83
1003.78
864.393
727.628
596.27
472.378
357.037
251.241
156.084
72.4411
0.636321
-59.5911
-108.819
-148.161
-178.897
-202.318
-219.595
-231.82
-239.867
-244.467
-246.221
-245.617
-243.046
-238.804
-233.102
-226.096
-217.907
-208.637
-198.388
-187.277
-175.449
-163.084
-150.397
-137.632
-125.045
-112.89
-101.394
-90.7385
-81.0408
-72.3475
-64.6382
-57.8394
-51.8458
-46.543
-41.8232
-37.5937
-33.7782
-30.3152
-27.1549
-24.2564
-21.5862
-19.1163
-16.824
-14.6906
-12.7006
-10.8419
-9.09221
590.454
480.134
317.829
100.844
-146.956
-423.979
-725.777
-1041.21
-1352.53
-1641.19
-1896.41
-2121.49
-2335.5
-2564.57
-2808.18
-3017.69
-3133.36
-3128.85
-3009.05
-2789.97
-2495.99
-2162.58
-1828.77
-1524.47
-1264.28
-1050.52
-879.338
-745.071
-641.9
-564.164
-506.398
-463.541
-431.245
-406.116
-385.824
-369.014
-354.571
-341.842
-330.475
-320.258
-310.982
-302.427
-294.451
-286.94
-279.748
-272.703
-265.597
-258.178
-250.181
-241.35
-231.468
-220.39
-208.069
-194.57
-180.077
-164.874
-149.321
-133.82
-118.784
-104.59
-91.5633
-79.9104
-69.7245
-60.9771
-53.5387
-47.2187
-41.81
-37.1232
-33.0038
-29.3335
-26.0249
-23.0131
-20.2496
-17.6977
-15.3297
-13.1242
-11.0647
-9.13823
-7.33477
-5.63109
-13531.4
-12652.6
-11515.9
-10325.5
-9057.1
-7864.68
-6772.08
-5783.23
-4901.81
-4148.81
-3563.97
-3173.33
-2950.28
-2830.5
-2767.51
-2746.57
-2759.92
-2794.37
-2834.07
-2864.04
-2871.98
-2849.14
-2790.16
-2693.27
-2560.9
-2399.49
-2218.01
-2025.9
-1831.53
-1641.4
-1460.19
-1290.65
-1134.33
-991.99
-864.053
-750.739
-651.975
-567.392
-496.301
-437.65
-390.156
-352.548
-323.439
-301.38
-284.91
-272.596
-263.08
-255.1
-247.548
-239.523
-230.373
-219.7
-207.35
-193.389
-178.058
-161.74
-144.904
-128.07
-111.751
-96.4219
-82.4831
-70.2133
-59.7383
-51.0213
-43.8803
-38.0423
-33.2124
-29.1286
-25.5876
-22.4451
-19.603
-16.9955
-14.5784
-12.3216
-10.2048
-8.21399
-6.33947
-4.57377
-2.9117
-1.33167
6880.7
6600.94
6297.46
5965.97
5527.38
5021.63
4464.32
3867.96
3236.8
2561.18
1828.11
1033.56
217.47
-515.447
-1057.53
-1384.35
-1544.77
-1589.56
-1545.33
-1433.09
-1276.63
-1097.39
-912.198
-732.943
-567.366
-419.896
-292.972
-187.588
-103.07
-38.0207
9.78891
42.6053
62.5835
71.5415
71.2061
63.0877
48.8972
30.1236
8.2564
-15.2507
-39.156
-62.5763
-84.7226
-104.952
-122.76
-137.769
-149.764
-158.57
-164.125
-166.484
-165.776
-162.187
-155.961
-147.404
-136.9
-124.907
-111.944
-98.5695
-85.338
-72.7605
-61.2688
-51.1817
-42.665
-35.7098
-30.1466
-25.7043
-22.089
-19.0467
-16.3891
-13.991
-11.7742
-9.69222
-7.71848
-5.83855
-4.04522
-2.33521
-0.707224
0.839547
2.30506
3.70802
4431.83
4724.93
5150.02
5581.31
6049.05
6596.09
7227.66
7872.59
8477.17
9017.72
9483.3
9867.36
10143.5
10252.7
10136.3
9779.04
9212.39
8490.94
7675.54
6824.6
5986.19
5193.34
4464.41
3803.34
3212.74
2692.56
2239.78
1848.86
1512.32
1221.62
968.991
748.885
558.316
395.894
260.622
151.637
66.956
4.08505
-40.2422
-69.6414
-87.3841
-96.2188
-98.848
-97.9451
-95.843
-94.1297
-93.5033
-94.266
-95.4757
-96.6021
-97.0752
-96.3586
-94.1062
-90.1907
-84.6917
-77.8595
-70.0619
-61.725
-53.2811
-45.1272
-37.595
-30.9273
-25.2537
-20.5774
-16.7896
-13.7138
-11.16
-8.96303
-6.99784
-5.1799
-3.45796
-1.80475
-0.208324
1.33454
2.82279
4.25368
5.62429
6.93233
8.1754
9.37022
5257.12
5160.81
5033.79
4825.93
4478.91
4015.8
3461.03
2838.98
2174.54
1496.1
835.002
219.775
-324.114
-776.824
-1126.18
-1367.6
-1505.01
-1550.85
-1524.03
-1447.27
-1343.47
-1232.35
-1126.43
-1027.42
-928.411
-823.146
-713.113
-605.606
-508.069
-425.255
-358.627
-307.227
-268.591
-239.622
-216.853
-197.028
-177.234
-156.248
-134.24
-111.97
-90.4742
-70.943
-54.2883
-40.7788
-31.1421
-25.5077
-23.6091
-24.1113
-26.3781
-29.3061
-32.0258
-34.0011
-34.9416
-34.7675
-33.5601
-31.5041
-28.8335
-25.785
-22.5637
-19.324
-16.1691
-13.1637
-10.3517
-7.76392
-5.41581
-3.30163
-1.39468
0.344828
1.95836
3.47975
4.93129
6.32486
7.66521
8.9532
10.188
11.3683
12.4929
13.561
14.5715
15.5405
-20446.6
-20121.7
-19839.5
-19623.7
-19431.4
-19148.4
-18683.2
-18000.5
-17108.1
-16033.2
-14813.9
-13495.4
-12125.6
-10747.5
-9396.08
-8099.19
-6876.87
-5741.8
-4699.62
-3747.51
-2881.97
-2116.45
-1487.14
-1027.17
-731.393
-558.586
-457.458
-390.544
-336.027
-283.781
-231.568
-181.242
-135.471
-95.8689
-62.659
-35.5501
-14.2132
2.23984
14.8665
24.4788
31.6254
36.641
39.6541
40.2243
38.8646
36.172
32.873
29.1576
25.1784
21.1328
17.1917
13.4793
10.0795
7.04917
4.43051
2.26
0.572236
-0.600092
-1.22999
-1.30406
-0.834252
0.129857
1.49489
3.13023
4.89068
6.64858
8.31965
9.86858
11.2955
12.616
13.8474
15.0028
16.0908
17.117
18.0849
18.9973
19.8562
20.6632
21.4189
22.1376
12241
12000.3
11645.4
11100.5
10321.8
9447.49
8553.07
7667.94
6797.35
5941.72
5107.14
4310.3
3575.79
2928.43
2384.45
1946.69
1603.48
1332.58
1112.2
927.402
768.734
629.556
505.988
398.011
308.717
241.903
198.199
174.51
163.59
157.049
148.265
134.74
117.879
100.578
85.0372
72.1917
62.1011
54.4868
48.9781
45.1464
42.4685
40.5326
39.005
37.633
36.2587
34.8047
33.2525
31.6028
29.8754
28.1062
26.3404
24.6231
22.9926
21.4774
20.096
18.8613
17.7886
16.9059
16.2588
15.903
15.8814
16.1966
16.8003
17.6028
18.5087
19.4464
20.3733
21.2708
22.133
22.9588
23.7474
24.4978
25.209
25.88
26.5105
27.1004
27.6501
28.1602
28.6307
29.0703
8695.77
8574.15
8415.99
8215.62
7946.72
7662.41
7362.73
7037.06
6681.18
6289.1
5855.3
5386.55
4909.58
4461.83
4073.56
3755.26
3494.07
3263.07
3035.92
2797.55
2546.91
2293.47
2049.56
1825.9
1625.92
1446.85
1285.62
1140.96
1012.11
898.113
796.506
702.67
611.804
522.484
437.241
359.546
291.767
234.928
188.694
151.868
122.985
100.562
83.2295
69.8198
59.3945
51.2387
44.8246
39.77
35.7971
32.7023
30.3337
28.5755
27.3352
26.534
26.1001
25.9664
26.0734
26.3709
26.8155
27.3669
27.9861
28.6398
29.3038
29.9621
30.6039
31.2213
31.8085
32.3616
32.8785
33.358
33.7999
34.2044
34.5723
34.9043
35.2017
35.4658
35.6979
35.8995
36.0712
36.2156
-8435.85
-8141.96
-7771.51
-7379.15
-6948.01
-6551.17
-6172.96
-5792.63
-5406.29
-5013.55
-4608.69
-4178.81
-3705.56
-3170.31
-2564.35
-1904.64
-1234.24
-608.486
-74.6099
341.471
636.269
820.558
912.882
935.048
907.133
843.51
753.741
645.29
526.931
408.548
297.922
199.547
115.613
47.0913
-6.23697
-46.1749
-74.6992
-93.8538
-105.509
-111.153
-112.551
-110.654
-106.881
-103.229
-101.588
-103.05
-107.644
-114.613
-122.925
-131.634
-140.007
-147.505
-153.72
-158.359
-161.239
-162.302
-161.62
-159.355
-155.66
-150.412
-143.757
-136.573
-129.794
-123.929
-119.179
-115.495
-112.676
-110.418
-108.479
-106.701
-104.996
-103.311
-101.621
-99.9115
-98.1799
-96.4275
-94.66
-92.8808
-91.1012
-89.309
7357.45
7311.58
7288.95
7252.3
7176.98
7006.56
6720.88
6318.04
5803.05
5192.58
4525.76
3868.7
3293.89
2844.33
2509.12
2239.86
1987.79
1726.85
1450.52
1162.81
872.339
591.337
339.659
139.334
0.159981
-86.8645
-139.353
-176.773
-208.88
-236.49
-258.336
-273.608
-281.893
-283.077
-277.835
-266.404
-250.055
-230.313
-209.35
-188.766
-169.747
-153.209
-139.961
-130.705
-125.902
-125.521
-128.848
-134.607
-141.346
-147.851
-153.336
-157.402
-159.867
-160.634
-159.635
-156.864
-152.412
-146.499
-139.37
-131.543
-123.712
-116.366
-110.154
-105.505
-102.364
-100.471
-99.4779
-99.0245
-98.7948
-98.5703
-98.2284
-97.7142
-97.0149
-96.1418
-95.1177
-93.9691
-92.7236
-91.4043
-90.0356
-88.6225
3770.35
3687.17
3577.62
3424.67
3234.31
3020.97
2792.38
2530.21
2186.09
1694.59
1039.6
343.198
-173.701
-394.834
-413.855
-379.463
-343.757
-287.001
-193.81
-73.5639
51.2216
156.638
223.627
244.01
220.588
165.459
94.1163
20.2469
-47.0502
-103.639
-148.145
-180.526
-201.488
-212.208
-214.242
-209.62
-200.091
-187.49
-172.929
-157.693
-142.981
-129.813
-118.986
-111.049
-106.247
-104.581
-105.678
-109.001
-113.891
-119.657
-125.672
-131.403
-136.363
-140.101
-142.149
-142.29
-140.472
-136.806
-131.557
-125.189
-118.369
-111.878
-106.421
-102.388
-99.762
-98.241
-97.437
-97.0086
-96.7148
-96.4114
-96.0223
-95.514
-94.8775
-94.1179
-93.2473
-92.2814
-91.2379
-90.1329
-88.9852
-87.8081
-6207.62
-5802.04
-5240.31
-4625.56
-3978.92
-3390.24
-2875.72
-2457.8
-2164.21
-1985.2
-1854.53
-1684.9
-1444.01
-1182.14
-985.059
-903.425
-921.105
-978.907
-1021.58
-1023.24
-987.291
-927.182
-858.523
-795.349
-746.08
-714.005
-696.921
-688.383
-681.228
-670.029
-651.695
-625.442
-592.11
-553.297
-510.799
-466.406
-421.804
-378.481
-337.639
-300.179
-266.712
-237.591
-212.959
-192.809
-176.964
-165.106
-156.873
-151.741
-149.114
-148.381
-148.909
-150.093
-151.395
-152.369
-152.687
-151.988
-150.017
-146.661
-141.971
-136.163
-129.631
-122.924
-116.64
-111.251
-106.971
-103.75
-101.379
-99.6128
-98.2365
-97.0889
-96.0607
-95.083
-94.1154
-93.1362
-92.1356
-91.1112
-90.0648
-88.9999
-87.9241
-86.8571
919.926
549.65
67.5296
-471.891
-1078.19
-1673.2
-2238.5
-2760.44
-3227.25
-3629.98
-3963.26
-4228.48
-4433.51
-4589.04
-4703.82
-4782.96
-4826.93
-4828.03
-4770.43
-4639.88
-4429.89
-4149.58
-3814.89
-3438.64
-3031.26
-2609.61
-2205.99
-1858.74
-1588.8
-1389.32
-1236.69
-1110.37
-997.447
-891.776
-791.303
-696.116
-607.275
-526.058
-453.482
-390.085
-335.903
-290.565
-253.407
-223.627
-200.353
-182.706
-169.83
-160.904
-155.14
-151.787
-150.131
-149.508
-149.304
-149.005
-148.25
-146.73
-144.288
-140.908
-136.692
-131.853
-126.676
-121.484
-116.582
-112.201
-108.455
-105.342
-102.781
-100.659
-98.8604
-97.2907
-95.8773
-94.5693
-93.3329
-92.1462
-90.9956
-89.8729
-88.7735
-87.6938
-86.6339
-85.6172
-8615.46
-8120.88
-7471.02
-6742.91
-5927.72
-5113.67
-4333.61
-3617.18
-2987.89
-2459.66
-2039.19
-1726.68
-1515.29
-1391.42
-1337.04
-1332.29
-1357.52
-1394.5
-1427.99
-1450.42
-1465.51
-1483.36
-1511.14
-1546.37
-1575.97
-1583.14
-1557.63
-1499.97
-1416.74
-1313.68
-1194.56
-1060.17
-916.825
-772.925
-636.732
-514.63
-410.16
-324.344
-256.449
-204.698
-166.813
-140.381
-123.08
-112.802
-107.722
-106.325
-107.405
-110.029
-113.494
-117.277
-120.987
-124.32
-127.043
-128.973
-129.994
-130.053
-129.169
-127.438
-125.011
-122.084
-118.871
-115.572
-112.358
-109.344
-106.592
-104.113
-101.886
-99.8772
-98.047
-96.3615
-94.7938
-93.3238
-91.9372
-90.6233
-89.3739
-88.1826
-87.0439
-85.9519
-84.9021
-83.9217
8301.59
8102.12
7857.99
7543.97
7118.21
6622.22
6075.15
5497.28
4907.34
4318.13
3739.66
3181.06
2652.29
2164.23
1726.36
1345.14
1024.69
771.001
597.428
518.183
529.88
604.216
701.914
789.268
848.895
878.729
884.347
872.244
846.292
807.448
757.377
696.034
624.902
546.574
464.995
384.223
307.481
236.945
173.871
118.797
71.7349
32.317
-0.110871
-26.396
-47.4686
-64.2397
-77.5298
-88.0357
-96.3231
-102.832
-107.887
-111.717
-114.503
-116.384
-117.431
-117.732
-117.369
-116.435
-115.04
-113.301
-111.339
-109.26
-107.149
-105.069
-103.051
-101.113
-99.2559
-97.4768
-95.7715
-94.1377
-92.5744
-91.0825
-89.6627
-88.3154
-87.0394
-85.8325
-84.6916
-83.6113
-82.5849
-81.6391
279.894
590.501
1047.91
1573.66
2143.52
2652
3080.81
3431.61
3706.12
3905.29
4030.69
4086.31
4080.06
4023.81
3932.11
3818.98
3692.56
3551.85
3390.37
3204.41
2997.53
2778.72
2557.18
2339.14
2128.21
1925.8
1730.42
1539.48
1351.06
1164.49
980.102
801.19
632.618
479.14
344.347
230.056
136.382
62.1789
5.42828
-36.214
-65.734
-86.1146
-99.6589
-108.335
-113.742
-117.059
-119.092
-120.344
-121.099
-121.494
-121.575
-121.346
-120.783
-119.883
-118.655
-117.131
-115.355
-113.386
-111.29
-109.132
-106.97
-104.85
-102.804
-100.846
-98.9774
-97.1926
-95.4809
-93.8325
-92.2406
-90.7021
-89.2177
-87.7904
-86.4241
-85.1221
-83.8866
-82.7181
-81.616
-80.5774
-79.5953
-78.6867
4058.79
3945.16
3755.17
3481.15
3156.19
2844.07
2563.81
2300.84
2031.91
1747.68
1458.97
1181.06
919.982
675.195
447.969
241.376
56.8489
-105.625
-243.402
-353.31
-436.371
-498.73
-548.47
-592.812
-636.718
-681.622
-724.5
-759.044
-777.83
-774.298
-745.058
-692.916
-626.864
-558.228
-496.12
-444.624
-403.085
-368.375
-337.651
-309.469
-283.181
-258.685
-236.462
-216.86
-200.036
-185.884
-174.096
-164.272
-156.006
-148.939
-142.784
-137.32
-132.381
-127.849
-123.641
-119.704
-116.005
-112.529
-109.275
-106.244
-103.439
-100.86
-98.4983
-96.338
-94.3571
-92.5301
-90.8308
-89.2356
-87.725
-86.285
-84.907
-83.5867
-82.323
-81.1165
-79.9682
-78.8792
-77.8494
-76.878
-75.9606
-75.0964
-9108.88
-8600.68
-7975.38
-7423.18
-6910.41
-6460.64
-6007.95
-5509.6
-4964.58
-4411.57
-3896.3
-3444.2
-3062.61
-2750.76
-2504.53
-2317.66
-2181.91
-2086.14
-2016.91
-1959.71
-1901.15
-1830.48
-1741.57
-1634.48
-1514.99
-1391.79
-1272.71
-1162.51
-1062.99
-973.277
-892.335
-818.657
-750.149
-685.207
-623.222
-564.31
-508.831
-457.321
-410.098
-367.314
-328.927
-294.947
-265.282
-239.715
-217.927
-199.526
-184.067
-171.1
-160.191
-150.952
-143.042
-136.181
-130.142
-124.751
-119.882
-115.443
-111.373
-107.631
-104.19
-101.033
-98.1453
-95.5129
-93.1192
-90.945
-88.9676
-87.1626
-85.5052
-83.9715
-82.5407
-81.1955
-79.9231
-78.7143
-77.5638
-76.4685
-75.4272
-74.439
-73.5031
-72.6185
-71.784
-70.9808
-2138.95
-2038.59
-1898.13
-1791.26
-1751.57
-1848.12
-2046.25
-2260.69
-2409.55
-2456.47
-2407.32
-2282.98
-2103.02
-1881.51
-1630.28
-1363.52
-1099.14
-857.019
-654.161
-501.557
-401.144
-347.212
-329.556
-336.999
-360.24
-392.313
-427.131
-458.312
-479.991
-489.281
-485.435
-469.932
-446.182
-417.646
-387.408
-357.66
-329.622
-303.774
-280.178
-258.851
-239.689
-222.526
-207.177
-193.461
-181.205
-170.245
-160.434
-151.635
-143.732
-136.614
-130.193
-124.443
-119.237
-114.517
-110.229
-106.326
-102.763
-99.5032
-96.5137
-93.7669
-91.2401
-88.9138
-86.7712
-84.7971
-82.9769
-81.2964
-79.7418
-78.2992
-76.956
-75.7004
-74.5225
-73.4142
-72.3694
-71.3834
-70.4527
-69.5745
-68.7458
-67.963
-67.2266
-66.4997
5293.24
5236.35
5126.5
4919.02
4601.59
4249.34
3938.3
3711.79
3543.81
3354.54
3081.24
2712.84
2266.56
1761.32
1215
651.581
101.702
-398.848
-811.928
-1102.38
-1252.08
-1272.58
-1200.75
-1079.81
-942.963
-809.943
-689.823
-585.172
-495.012
-416.327
-346.506
-283.822
-228.211
-180.6
-142.97
-116.423
-100.628
-94.0693
-94.4863
-99.3432
-106.242
-113.227
-118.975
-122.818
-124.622
-124.602
-123.141
-120.664
-117.555
-114.129
-110.615
-107.113
-103.778
-100.653
-97.7215
-95.0012
-92.4813
-90.1331
-87.9304
-85.8518
-83.8803
-82.0041
-80.2161
-78.5128
-76.8933
-75.3583
-73.909
-72.5458
-71.2682
-70.0742
-68.961
-67.9247
-66.9614
-66.0664
-65.2352
-64.4624
-63.7424
-63.067
-62.438
-61.7894
-1814.21
-1255.37
-554.794
45.1655
549.789
937.255
1255.93
1506.36
1687.69
1817.29
1914.81
1994.77
2065.99
2131.16
2188.61
2232.92
2257.85
2258.1
2227.65
2160.97
2054.22
1907.57
1726.49
1522.49
1310.14
1102.42
904.339
721.375
557.175
415.114
298.081
206.677
137.622
83.9271
39.5071
0.659548
-33.3599
-61.4404
-82.2524
-95.4093
-101.816
-103.309
-101.93
-99.3357
-96.7359
-94.5781
-92.7806
-91.1848
-89.7538
-88.4562
-87.2694
-86.1793
-85.1717
-84.2322
-83.3723
-82.4954
-81.5506
-80.516
-79.3759
-78.1294
-76.7901
-75.3793
-73.9215
-72.4413
-70.9632
-69.5105
-68.1046
-66.7632
-65.4999
-64.3232
-63.2373
-62.2425
-61.3364
-60.514
-59.7693
-59.0942
-58.4802
-57.9128
-57.3975
-56.8405
3521.88
3330.46
3081.89
2785.68
2419.68
2030.46
1640.57
1264.14
910.835
588.579
306.204
72.4626
-106.245
-226.691
-289.612
-301.684
-274.94
-222.968
-156.362
-85.4475
-17.8138
42.1137
92.5283
132.107
161.001
182.776
203.593
228.075
255.73
280.312
293.672
289.577
267.497
231.943
189.328
145.39
103.991
67.306
36.1554
10.4228
-10.57
-27.6812
-41.8821
-53.6607
-63.0213
-70.0861
-75.2229
-78.7878
-81.0147
-82.1608
-82.4804
-82.1942
-81.482
-80.4802
-79.259
-77.9355
-76.5683
-75.1889
-73.8122
-72.4339
-71.0378
-69.6092
-68.1433
-66.6479
-65.1417
-63.6505
-62.2023
-60.8234
-59.5348
-58.3502
-57.2776
-56.3184
-55.467
-54.716
-54.0563
-53.4766
-52.9649
-52.5072
-52.0998
-51.6671
-4652.26
-4694.39
-4698.5
-4596.1
-4374.69
-4040.06
-3656.51
-3293.05
-2981.12
-2708.43
-2448.99
-2200.09
-1983.07
-1812.89
-1684.12
-1585.07
-1506.49
-1439.45
-1375.11
-1305.13
-1223.05
-1125.07
-1011.47
-887.078
-759.894
-638.112
-527.503
-430.632
-347.546
-276.984
-217.576
-168.502
-129.232
-99.1356
-77.3049
-62.5605
-53.5547
-48.9963
-47.8052
-49.1164
-52.1415
-56.1779
-60.5821
-64.9308
-69.0041
-72.6414
-75.7456
-78.2777
-80.2277
-81.5974
-82.3886
-82.6009
-82.2365
-81.2811
-79.9385
-78.0747
-75.8182
-73.3321
-70.7706
-68.2813
-65.974
-63.896
-62.033
-60.3349
-58.7499
-57.2464
-55.8183
-54.4765
-53.2404
-52.121
-51.1264
-50.2571
-49.5085
-48.8696
-48.3261
-47.863
-47.4649
-47.1193
-46.8072
-46.5052
2022.47
2038.71
2078.57
2110.96
2129.3
2082.88
1975.89
1843.78
1715.74
1588.61
1419.64
1174.04
904.157
716.304
637.494
609.474
588.494
575.15
573.516
573.479
560.227
523.863
462.34
380.117
284.887
185.106
88.6983
1.98084
-71.1045
-128.902
-171.536
-200.255
-217.088
-224.397
-224.49
-219.494
-211.165
-200.867
-189.685
-178.394
-167.469
-157.214
-147.841
-139.414
-131.919
-125.29
-119.425
-114.207
-109.517
-105.238
-101.257
-97.4562
-93.7315
-89.9782
-85.9139
-81.6826
-77.2847
-72.8462
-68.523
-64.4864
-60.8768
-57.7654
-55.1489
-52.9706
-51.1507
-49.6117
-48.2872
-47.1326
-46.1361
-45.2818
-44.5527
-43.937
-43.4242
-43.0017
-42.6553
-42.3704
-42.1321
-41.9295
-41.7384
-41.5717
6823.85
6830.85
6627.24
6084.11
5265.73
4338.03
3482.06
2811.58
2357.69
2097.61
1986.82
1976.04
2026.31
2109.42
2198.19
2257.82
2248.75
2140.19
1918.65
1587.42
1170.67
716.304
285.385
-67.9597
-314.252
-456.312
-520.4
-537.471
-529.542
-508.17
-479.121
-445.812
-410.784
-375.93
-342.442
-310.973
-281.837
-255.148
-230.909
-209.058
-189.495
-172.098
-156.739
-143.279
-131.571
-121.458
-112.771
-105.331
-98.9495
-93.4351
-88.593
-84.23
-80.1583
-76.2038
-72.2198
-68.1321
-63.9571
-59.7386
-55.591
-51.6963
-48.2199
-45.2783
-42.9168
-41.1081
-39.7709
-38.8088
-38.1348
-37.6744
-37.352
-37.1291
-36.9817
-36.891
-36.8424
-36.824
-36.8256
-36.8378
-36.8523
-36.8638
-36.8565
-36.8642
-9525.29
-8688.7
-7678.35
-6819.96
-6057.74
-5431.41
-4867.32
-4343.78
-3882.81
-3511.64
-3239.43
-3054.05
-2926.86
-2816.43
-2683.18
-2513.04
-2328.92
-2164.9
-2031.43
-1912.44
-1789.97
-1662.08
-1537
-1419.31
-1307.27
-1196.43
-1084.51
-972.502
-863.365
-760.141
-664.398
-576.993
-498.353
-428.54
-367.366
-314.433
-269.167
-230.865
-198.75
-172.026
-149.921
-131.719
-116.778
-104.54
-94.5249
-86.3233
-79.5841
-74.0059
-69.3301
-65.336
-61.8359
-58.6713
-55.7101
-52.8457
-50.002
-47.1385
-44.2553
-41.3948
-38.6489
-36.109
-33.8759
-32.0311
-30.617
-29.6319
-29.0374
-28.7695
-28.755
-28.921
-29.2049
-29.557
-29.9397
-30.327
-30.7012
-31.051
-31.3695
-31.6531
-31.901
-32.1145
-32.2964
-32.4845
-4409.63
-4495.12
-4542.18
-4513.84
-4419.27
-4285.32
-4137.73
-3994.48
-3860.07
-3730.85
-3601.93
-3470.97
-3337.93
-3204.53
-3070.97
-2934.54
-2784.73
-2596.65
-2340.12
-1999.32
-1585.81
-1138.87
-714.508
-365.057
-116.3
37.7604
121.359
158.923
167.229
158.168
139.037
114.594
89.1163
65.2832
44.5323
27.437
13.9764
3.76746
-3.74765
-9.16351
-13.0217
-15.7659
-17.7358
-19.1827
-20.2908
-21.1867
-21.9405
-22.5754
-23.0831
-23.4463
-23.6527
-23.6998
-23.5945
-23.3498
-22.9832
-22.5182
-21.9861
-21.4276
-20.8912
-20.4278
-20.0851
-19.8999
-19.8928
-20.0665
-20.4065
-20.8865
-21.4722
-22.128
-22.8207
-23.5214
-24.2073
-24.8609
-25.47
-26.0269
-26.5274
-26.9714
-27.362
-27.7062
-28.0192
-28.3288
8076.82
8010.5
7885.53
7653.74
7334.82
6964.26
6577.6
6198.1
5839.11
5509.73
5218.68
4968.99
4745.19
4502.57
4186.31
3759.71
3223.09
2606.02
1955.31
1329.84
798.336
416.513
191.713
79.8963
22.7951
-19.2909
-60.1518
-99.7933
-134.485
-162.238
-181.178
-190.795
-192.037
-185.724
-172.94
-155.122
-133.926
-111.067
-88.1539
-66.5422
-47.2295
-30.8202
-17.5633
-7.46102
-0.358676
4.01048
6.24725
6.90185
6.51604
5.499
4.11545
2.5305
0.861159
-0.803159
-2.39637
-3.87719
-5.22918
-6.45761
-7.58343
-8.63624
-9.64717
-10.6432
-11.6435
-12.658
-13.6873
-14.7251
-15.7596
-16.7766
-17.7614
-18.7
-19.5809
-20.3947
-21.1348
-21.7973
-22.381
-22.8872
-23.3208
-23.691
-24.0154
-24.3489
-85.8753
-81.0475
-76.7428
-72.9849
-69.7163
-66.8434
-64.24
-61.7624
-59.2645
-56.6222
-53.7521
-50.6125
-47.2096
-43.5959
-39.8629
-36.1321
-32.5299
-29.1675
-26.113
-23.3984
-21.0317
-18.9901
-17.2426
-15.7524
-14.4831
-13.4023
-12.4811
-11.6932
-11.0136
-10.4182
-9.88441
-9.39192
-8.92401
-8.46756
-8.0129
-7.55537
-7.09057
-6.61865
-6.14271
-5.66882
-5.20556
-4.76287
-4.35072
-3.97765
-3.64976
-3.37012
-3.13881
-2.95352
-2.81039
-2.7048
-2.63215
-2.58827
-2.56972
-2.57379
-2.59852
-2.64263
-2.70538
-2.78647
-2.88606
-3.00473
-3.14344
-3.30311
-3.48381
-3.68355
-3.89726
-4.11674
-4.3318
-4.53232
-4.71042
-4.86202
-4.98759
-5.09172
-5.18161
-5.26483
-5.34724
-5.43175
-5.51851
-5.60197
-5.67926
-5.74315
-5.78692
-5.8048
-5.7925
-5.74765
-5.66983
-5.56044
-5.42238
-5.25959
-5.07659
-4.87801
-4.66824
-4.45124
-4.23041
-4.00855
-3.78789
-3.57018
-3.35674
-3.14856
-2.94637
-2.75075
-2.56211
-2.38081
-2.20713
-2.04132
-1.88356
-1.73404
-1.59287
-1.46015
-1.3359
-1.22011
-1.11273
-1.01369
-0.922922
-0.840333
-0.765778
-0.699057
-0.6399
-0.587979
-0.542909
-0.504168
-0.471067
-0.443647
-0.420634
-0.4015
-0.385631
-0.372402
-0.361214
-0.351513
-0.342807
-0.334683
-0.326818
-0.318983
-0.311033
-0.302895
-0.294558
-0.286054
-0.277451
-0.268832
-0.26028
-0.251863
-0.24363
-0.235617
-0.227845
-0.220324
-0.213055
-0.206032
-0.199249
-0.19271
-0.186424
-0.180406
-0.174656
-0.169155
-0.16387
-0.158767
-0.153824
-0.149036
-0.144406
-0.139936
-0.135618
-0.13144
-0.127387
-0.123452
-0.119623
-0.115888
-0.112233
-0.108645
-0.105123
-0.101674
-0.0983006
-0.0949873
-0.0916988
-0.088391
-0.0850333
-0.081624
-0.0781898
-0.0747681
-0.0713858
-0.0680483
-0.0647459
-0.0614711