/*--------------------------------*- C++ -*----------------------------------*\
| =========                 |                                                 |
| \\      /  F ield         | OpenFOAM: The Open Source CFD Toolbox           |
|  \\    /   O peration     | Version:  2012                                  |
|   \\  /    A nd           | Website:  www.openfoam.com                      |
|    \\/     M anipulation  |                                                 |
\*---------------------------------------------------------------------------*/
FoamFile
{
    version     2.0;
    format      ascii;
    class       volVectorField;
    location    "0.15";
    object      U;
}
// * * * * * * * * * * * * * * * * * * * * * * * * * * * * * * * * * * * * * //

dimensions      [0 1 -1 0 0 0 0];


internalField   nonuniform List<vector> 
42400
(
(23.177 -22.7629 -2.47323e-17)
(66.4818 -55.4483 -2.4792e-17)
(83.5279 -74.8698 2.54628e-17)
(80.2746 -65.6789 0)
(57.218 -44.0692 0)
(30.4553 -18.3194 -1.42819e-19)
(6.9134 3.97671 0)
(-12.1604 20.8719 1.38319e-19)
(-27.2884 32.6866 0)
(-38.646 40.3683 1.08192e-19)
(-46.6941 45.2373 8.35537e-20)
(-52.3766 48.4206 -5.46961e-20)
(-56.4151 50.392 -6.46476e-17)
(-58.7521 51.0091 6.59527e-17)
(-58.4753 49.5798 4.13233e-20)
(-55.0665 45.8416 0)
(-49.2545 40.658 0)
(-42.5697 35.6101 0)
(-36.2383 32.014 0)
(-30.5461 30.2324 0)
(-25.0624 29.6189 0)
(-19.3557 29.0343 5.50993e-20)
(-13.5214 27.7225 -3.51779e-17)
(-8.11313 25.6833 5.67862e-18)
(-3.64622 23.3384 3.0299e-17)
(-0.197574 21.0032 3.65081e-20)
(2.59516 18.7381 3.35991e-20)
(5.18775 16.48 -5.33491e-20)
(7.87005 14.1881 0)
(10.6821 11.8508 0)
(13.5585 9.53919 2.03863e-18)
(16.3478 7.31508 -2.05848e-18)
(18.871 5.27998 -4.4826e-21)
(20.9884 3.52029 2.59378e-18)
(22.6061 2.11352 -2.61233e-18)
(23.6551 1.09718 0)
(24.1085 0.480942 0)
(23.9746 0.244448 0)
(23.285 0.334084 0)
(22.0938 0.663473 1.94709e-18)
(20.4763 1.11938 -1.95654e-18)
(18.5316 1.5776 6.12535e-19)
(16.3767 1.93383 -5.99839e-19)
(14.1124 2.11976 5.13326e-19)
(11.8269 2.10782 -4.896e-19)
(9.63488 1.90123 1.12908e-18)
(7.68727 1.50765 -2.42121e-18)
(6.12033 0.943919 1.227e-18)
(4.97709 0.250903 6.58401e-20)
(4.20057 -0.505458 -1.03387e-18)
(3.69318 -1.23942 1.9007e-18)
(3.36998 -1.87853 -6.06989e-20)
(3.16767 -2.38963 -7.86e-19)
(3.04649 -2.76863 6.34601e-20)
(2.98371 -3.02614 0)
(2.96544 -3.17854 0)
(2.98207 -3.24318 0)
(3.02627 -3.23663 -2.07397e-20)
(3.09212 -3.17412 -1.29257e-20)
(3.17478 -3.06936 0)
(3.27019 -2.93448 1.16691e-19)
(3.37484 -2.77984 -1.20307e-19)
(3.48559 -2.61393 -2.60683e-19)
(3.59961 -2.44338 2.55765e-19)
(3.71425 -2.27298 0)
(3.82712 -2.10591 0)
(3.93614 -1.94405 -4.63174e-19)
(4.03963 -1.78832 4.52732e-19)
(4.13647 -1.63898 5.9051e-20)
(4.22616 -1.49598 0)
(4.30894 -1.35914 0)
(4.38577 -1.22831 6.72472e-20)
(4.45833 -1.10345 6.86421e-20)
(4.52892 -0.984673 0)
(4.6003 -0.872251 6.96787e-20)
(4.67551 -0.766663 5.94029e-19)
(4.75763 -0.668617 -5.76204e-19)
(4.84969 -0.578775 -1.34788e-19)
(4.95504 -0.496782 -5.57247e-19)
(5.06242 -0.434477 -5.34882e-19)
(-1.88332 -0.222212 0)
(-4.81194 -9.04584 4.99115e-17)
(-2.89951 -18.1272 -5.09946e-17)
(-6.16151 -31.915 0)
(-10.0299 -38.9919 0)
(-16.4215 -41.788 1.0729e-17)
(-23.3367 -41.2237 -1.08212e-17)
(-29.0766 -38.9932 -1.35944e-19)
(-32.6439 -36.4747 0)
(-33.5882 -34.5323 -1.05728e-19)
(-31.793 -33.839 -8.14551e-20)
(-27.0734 -34.8662 5.22045e-17)
(-19.2186 -37.6897 7.08892e-18)
(-8.40085 -41.8785 -6.23439e-17)
(4.40243 -46.4603 -7.43765e-17)
(17.3445 -50.0135 7.49759e-17)
(28.2121 -51.1411 0)
(35.3787 -49.055 -7.43823e-19)
(38.4816 -43.7931 0)
(38.3209 -36.097 0)
(36.2464 -27.1526 0)
(33.5966 -18.2496 4.57662e-17)
(31.5171 -10.4878 -6.93847e-18)
(30.6825 -4.36941 -4.0546e-17)
(31.1509 0.165615 0)
(32.5945 3.25864 2.76871e-19)
(34.5326 4.91092 -3.36985e-20)
(36.3544 5.37486 5.36637e-20)
(37.4994 5.27548 9.66922e-18)
(37.6322 5.15212 -9.78912e-18)
(36.7326 5.18141 2.27684e-19)
(34.9816 5.3018 1.67379e-19)
(32.5841 5.3795 -1.41382e-18)
(29.7596 5.30334 1.31318e-18)
(26.7144 5.0234 2.96408e-18)
(23.6 4.55417 -2.96786e-18)
(20.5217 3.97603 0)
(17.4714 3.39631 1.93526e-21)
(14.4179 2.94528 0)
(11.3399 2.73126 2.44725e-20)
(8.26108 2.79494 -1.51277e-18)
(5.27556 3.07339 1.54779e-18)
(2.57255 3.41406 -2.66979e-20)
(0.394964 3.63342 4.07786e-20)
(-1.08175 3.58646 1.25101e-21)
(-1.81247 3.23056 6.32193e-20)
(-1.88838 2.6144 -6.84272e-20)
(-1.49619 1.83081 -8.09867e-19)
(-0.838628 0.987331 8.09675e-19)
(-0.0770503 0.176309 0)
(0.673026 -0.551098 -5.16715e-20)
(1.34709 -1.17467 -9.19012e-20)
(1.92529 -1.68665 -4.85303e-19)
(2.41095 -2.08889 4.94109e-19)
(2.81526 -2.38946 5.67566e-20)
(3.15078 -2.59869 -5.93252e-19)
(3.42875 -2.72771 6.67502e-19)
(3.65868 -2.78806 2.07286e-20)
(3.84869 -2.79135 1.29185e-20)
(4.00601 -2.74897 -1.25881e-19)
(4.13712 -2.67165 1.23876e-19)
(4.24788 -2.56898 5.58903e-21)
(4.34338 -2.44905 7.25813e-21)
(4.42781 -2.31819 0)
(4.50436 -2.18101 -2.49376e-19)
(4.57523 -2.04059 -6.06829e-20)
(4.64175 -1.89882 3.7437e-19)
(4.70462 -1.75682 0)
(4.76425 -1.61539 -1.13415e-19)
(4.82099 -1.47524 5.76401e-20)
(4.87546 -1.33726 5.0201e-19)
(4.92864 -1.20255 -5.56195e-19)
(4.98197 -1.07239 -5.94574e-19)
(5.03726 -0.948189 5.75013e-19)
(5.09661 -0.831392 -1.33294e-19)
(5.1622 -0.723387 5.26912e-19)
(5.23612 -0.625437 -3.86588e-19)
(5.32036 -0.538362 1.34767e-19)
(5.41651 -0.462534 -6.12603e-19)
(5.5115 -0.411238 4.83583e-19)
(-8.86873 9.54391 3.77992e-17)
(-20.147 23.7386 -1.93209e-19)
(-24.476 30.1108 -1.18771e-19)
(-23.7721 33.3577 -1.7093e-19)
(-22.0489 33.3721 0)
(-19.491 32.3743 9.69178e-17)
(-16.9312 30.7242 -1.91769e-16)
(-14.8342 28.8057 9.47512e-17)
(-13.5818 27.4265 -8.14619e-17)
(-13.4693 27.3443 8.89711e-18)
(-14.3818 28.5658 7.58232e-17)
(-15.7142 30.2242 4.35904e-19)
(-16.6804 31.1387 4.3751e-19)
(-16.8298 30.4629 -4.13523e-17)
(-16.3253 27.9971 4.21675e-17)
(-15.7617 24.148 9.75005e-19)
(-15.7892 19.6003 2.10686e-17)
(-16.7085 15.0408 -4.70147e-18)
(-18.3151 10.8459 -1.68666e-17)
(-19.9669 7.00471 2.62799e-19)
(-20.8417 3.21855 -2.43625e-19)
(-20.3381 -0.830044 -2.18207e-19)
(-18.4636 -5.12538 0)
(-16.1196 -8.83864 5.18137e-19)
(-14.5128 -10.8533 -1.24486e-17)
(-14.0775 -11.0341 2.58321e-17)
(-14.226 -10.4615 -1.36293e-17)
(-14.1063 -10.17 1.30684e-17)
(-13.4053 -10.338 -1.32415e-17)
(-12.2846 -10.6603 -1.11426e-17)
(-10.9977 -10.8758 2.11078e-17)
(-9.70473 -10.887 -1.47409e-18)
(-8.48276 -10.6955 -8.81702e-18)
(-7.36575 -10.3379 0)
(-6.38455 -9.86133 0)
(-5.56912 -9.30623 -2.4148e-20)
(-4.92577 -8.69009 0)
(-4.48625 -8.03197 2.17794e-20)
(-4.2314 -7.34095 1.70369e-18)
(-4.1106 -6.62484 -2.72776e-18)
(-4.04486 -5.88348 1.02987e-18)
(-3.95622 -5.12566 0)
(-3.78594 -4.39032 0)
(-3.47707 -3.72159 -6.99256e-19)
(-2.99513 -3.15494 6.43458e-19)
(-2.35086 -2.71846 8.70123e-20)
(-1.59132 -2.42097 0)
(-0.780831 -2.25334 0)
(0.0240436 -2.19325 -1.03483e-18)
(0.786804 -2.21013 1.02919e-18)
(1.49151 -2.27715 5.17522e-20)
(2.13053 -2.37144 0)
(2.70183 -2.47261 7.11064e-19)
(3.20515 -2.56465 -6.25252e-19)
(3.64071 -2.63577 8.02811e-19)
(4.00938 -2.67862 -8.55101e-19)
(4.31328 -2.68993 4.80783e-19)
(4.55637 -2.66996 -8.78874e-19)
(4.74465 -2.62171 5.99815e-19)
(4.88587 -2.55001 -1.15254e-19)
(4.98897 -2.46056 -1.15411e-19)
(5.0633 -2.35897 8.16567e-20)
(5.11773 -2.25003 -8.74543e-20)
(5.1599 -2.13718 0)
(5.19571 -2.02232 2.62927e-19)
(5.22913 -1.90603 5.74448e-20)
(5.26234 -1.78797 -4.35908e-19)
(5.29619 -1.6674 0)
(5.33069 -1.54379 1.12802e-19)
(5.36567 -1.41709 4.14418e-19)
(5.40113 -1.28801 -3.9825e-19)
(5.43753 -1.15794 0)
(5.47588 -1.02888 0)
(5.51758 -0.903117 -6.35955e-20)
(5.56433 -0.783055 6.36177e-20)
(5.61781 -0.670946 3.70112e-19)
(5.67948 -0.568742 -6.0142e-19)
(5.75042 -0.477921 0)
(5.83117 -0.399513 1.18536e-19)
(5.91387 -0.340978 4.40229e-19)
(12.9206 -9.56314 -5.95913e-18)
(21.591 -13.1494 1.14196e-17)
(14.3152 -6.25769 -6.43947e-18)
(5.35297 5.33622 -9.55427e-18)
(-3.23055 15.3812 1.02547e-17)
(-13.4733 26.8915 0)
(-24.4929 38.4166 -3.92945e-17)
(-32.3005 45.4621 3.96379e-17)
(-33.79 44.7584 -5.79472e-17)
(-29.939 38.276 5.92462e-17)
(-23.885 30.7999 -6.83488e-17)
(-18.1578 25.1797 1.40626e-16)
(-13.7825 21.4062 -1.4144e-16)
(-10.5649 18.4744 1.39726e-16)
(-7.94951 15.6386 -1.35293e-16)
(-5.55345 12.6165 6.6753e-17)
(-3.31129 9.4062 5.72288e-17)
(-1.20829 6.29756 -1.09818e-16)
(0.735387 3.41154 5.30501e-17)
(2.66116 0.779328 -2.64089e-19)
(4.61098 -1.60474 -4.44015e-20)
(6.37118 -3.60507 3.47791e-17)
(7.58522 -5.1706 -3.4917e-17)
(8.29424 -6.58104 -1.51186e-19)
(8.97319 -8.12247 0)
(9.82698 -9.62281 -7.88243e-20)
(10.6425 -10.7741 0)
(11.3255 -11.508 -1.66042e-17)
(11.8629 -11.8793 2.4714e-18)
(12.1922 -11.944 1.46352e-17)
(12.2545 -11.7341 1.07462e-17)
(12.0313 -11.2764 -1.08413e-17)
(11.536 -10.6074 2.48815e-19)
(10.8008 -9.78081 2.37275e-19)
(9.87123 -8.86088 6.03035e-18)
(8.8015 -7.91024 -6.27344e-18)
(7.64898 -6.97855 0)
(6.47164 -6.09701 -4.12146e-18)
(5.32477 -5.27909 4.11699e-18)
(4.25809 -4.52632 -6.49208e-20)
(3.31507 -3.83689 2.23671e-19)
(2.53665 -3.21319 0)
(1.95635 -2.66401 0)
(1.5892 -2.20161 0)
(1.43562 -1.83902 1.24621e-19)
(1.47721 -1.58568 -1.76379e-18)
(1.68094 -1.44067 1.67285e-18)
(2.00669 -1.39267 0)
(2.41626 -1.42098 0)
(2.87183 -1.50322 -9.59631e-19)
(3.34151 -1.61793 9.11611e-19)
(3.79906 -1.74634 -6.68724e-19)
(4.22379 -1.87324 5.32747e-19)
(4.60045 -1.98713 -3.68134e-20)
(4.91913 -2.08005 2.99205e-19)
(5.17514 -2.14735 -3.61188e-19)
(5.36859 -2.18728 3.02196e-19)
(5.50386 -2.20059 -3.01091e-19)
(5.58881 -2.19 0)
(5.6338 -2.15959 -1.52781e-20)
(5.65047 -2.11407 -1.67597e-19)
(5.65045 -2.05802 -5.84118e-20)
(5.64408 -1.99517 5.84493e-19)
(5.63935 -1.92789 -6.48422e-19)
(5.64133 -1.85702 2.98838e-19)
(5.65217 -1.78208 4.50909e-19)
(5.67156 -1.70173 -3.20742e-19)
(5.69764 -1.61442 -6.99699e-20)
(5.72789 -1.51899 -5.00072e-19)
(5.76006 -1.41513 4.99728e-19)
(5.79265 -1.30352 -1.31781e-19)
(5.82519 -1.18586 -5.90575e-19)
(5.8582 -1.06462 5.07755e-19)
(5.89294 -0.942757 0)
(5.93107 -0.823382 -4.97319e-19)
(5.9743 -0.709465 1.20555e-19)
(6.02402 -0.60362 1.05583e-18)
(6.0811 -0.507968 -4.53748e-19)
(6.14591 -0.423827 4.3172e-19)
(6.21534 -0.354187 -4.21566e-19)
(0.257139 -3.00024 -4.92699e-17)
(4.38864 -11.9916 0)
(11.0563 -22.3518 0)
(14.2837 -32.5134 -4.29034e-19)
(11.9332 -36.0251 0)
(0.789692 -32.025 0)
(-17.4554 -20.9446 0)
(-35.6038 -8.19164 3.90685e-19)
(-44.5325 -1.42289 0)
(-40.4668 -3.75082 7.37653e-20)
(-28.1264 -11.465 -4.64965e-17)
(-16.0649 -18.6515 8.11213e-17)
(-9.90858 -22.1446 -3.51902e-17)
(-9.90494 -22.3134 0)
(-12.9844 -21.1462 3.20978e-19)
(-15.8842 -20.0207 -3.25484e-19)
(-17.1786 -19.3418 0)
(-17.068 -19.2408 5.38428e-19)
(-16.0017 -19.668 -3.00496e-18)
(-13.9677 -20.1667 -9.22267e-19)
(-11.2059 -20.5911 3.62036e-18)
(-8.19486 -20.9592 -2.63117e-19)
(-5.17762 -21.1267 0)
(-2.20817 -21.0075 -6.28091e-19)
(0.614396 -20.6652 6.29942e-19)
(3.15864 -20.1324 1.9906e-18)
(5.34506 -19.4069 -2.06622e-18)
(7.15296 -18.4968 -4.56209e-18)
(8.57597 -17.404 4.4411e-18)
(9.60291 -16.1243 0)
(10.2215 -14.6499 6.94731e-18)
(10.424 -12.9838 -7.01157e-18)
(10.2154 -11.1581 -2.54112e-19)
(9.62737 -9.24428 7.45184e-18)
(8.73039 -7.35101 -7.74326e-18)
(7.63438 -5.60302 1.26639e-20)
(6.46909 -4.10636 1.70946e-19)
(5.35319 -2.91839 5.80332e-18)
(4.3707 -2.04112 -5.82795e-18)
(3.56625 -1.43691 -4.31672e-18)
(2.95434 -1.05127 4.31818e-19)
(2.53169 -0.829744 3.9386e-18)
(2.28634 -0.726245 0)
(2.20216 -0.705523 -9.57493e-20)
(2.26007 -0.742705 1.61915e-18)
(2.43743 -0.820813 -3.35213e-18)
(2.70852 -0.927875 2.66297e-18)
(3.04586 -1.0546 -1.15335e-18)
(3.42255 -1.19343 0)
(3.81334 -1.33773 -1.17736e-20)
(4.19593 -1.48155 4.38177e-19)
(4.55181 -1.61949 -3.97835e-19)
(4.86688 -1.74686 6.38981e-20)
(5.13174 -1.85975 1.27581e-19)
(5.3418 -1.95513 -7.23857e-20)
(5.49714 -2.03088 -7.64214e-20)
(5.60198 -2.08597 -2.2811e-19)
(5.66401 -2.12043 2.63921e-19)
(5.69343 -2.13534 -4.33736e-19)
(5.70177 -2.13267 4.42587e-19)
(5.70059 -2.11498 0)
(5.7001 -2.08497 -2.40696e-20)
(5.70802 -2.04501 -5.87005e-19)
(5.72882 -1.99673 5.18598e-19)
(5.76352 -1.94079 1.61526e-19)
(5.81023 -1.877 0)
(5.86508 -1.80462 6.69031e-19)
(5.92337 -1.72281 -5.59398e-19)
(5.98072 -1.63109 -7.05063e-20)
(6.03386 -1.52967 -8.55452e-20)
(6.08102 -1.4196 1.5215e-19)
(6.12199 -1.30276 -1.00618e-20)
(6.15786 -1.18167 -6.3925e-19)
(6.19064 -1.05925 5.48258e-19)
(6.22276 -0.938479 -6.82827e-20)
(6.25657 -0.822181 0)
(6.29401 -0.712784 -5.91841e-19)
(6.3363 -0.612197 4.58864e-19)
(6.38425 -0.521216 0)
(6.43735 -0.441971 -4.02311e-19)
(-15.3362 10.6112 -4.62291e-19)
(-30.3162 23.3135 -4.23668e-17)
(-31.999 21.8945 3.91288e-17)
(-24.9844 16.6175 -7.63271e-17)
(-16.707 7.18751 3.74528e-17)
(-8.64575 -1.98392 2.93412e-19)
(-4.59612 -7.5591 2.83326e-17)
(-4.97335 -8.2253 -2.90388e-17)
(-7.04634 -5.62004 -2.01902e-19)
(-9.04049 -1.77405 -2.49312e-19)
(-12.0737 2.70488 -2.14108e-17)
(-17.3626 7.62122 -1.56603e-17)
(-23.9077 12.3877 3.82986e-17)
(-29.4594 16.1685 -2.59986e-17)
(-32.1596 18.1927 4.72265e-17)
(-31.2638 18.1618 -2.11248e-17)
(-27.0804 16.3424 0)
(-20.522 13.2736 0)
(-12.6969 9.54095 7.43494e-18)
(-4.72363 5.72128 -2.18526e-18)
(2.5442 2.3029 -5.37883e-18)
(8.67501 -0.457271 1.72818e-18)
(13.5531 -2.52958 -1.9986e-18)
(17.2625 -3.9705 2.41485e-19)
(19.9925 -4.91076 -2.16621e-18)
(21.9727 -5.5114 -9.31362e-19)
(23.4304 -5.92468 3.22882e-18)
(24.5476 -6.25931 -2.70436e-21)
(25.4221 -6.56914 -2.71519e-21)
(26.054 -6.84894 1.20995e-20)
(26.356 -7.03083 0)
(26.1703 -7.00502 -6.01714e-18)
(25.3104 -6.66438 1.19597e-17)
(23.6381 -5.96437 -5.94013e-18)
(21.1543 -4.96948 0)
(18.0564 -3.84813 4.62515e-18)
(14.7091 -2.80172 -4.63882e-18)
(11.5149 -1.96605 0)
(8.76657 -1.36627 0)
(6.58555 -0.953568 1.83941e-18)
(4.96354 -0.671323 -1.95457e-18)
(3.83336 -0.489093 -2.02022e-19)
(3.1151 -0.3973 0)
(2.73041 -0.390884 -4.27293e-19)
(2.60507 -0.460098 2.87127e-19)
(2.67002 -0.590843 3.67594e-19)
(2.86489 -0.76629 -5.94804e-20)
(3.13881 -0.970416 2.8393e-20)
(3.45084 -1.18938 0)
(3.76962 -1.41179 -2.77417e-19)
(4.07258 -1.62846 7.00821e-19)
(4.34494 -1.83212 -4.05471e-19)
(4.57866 -2.01714 -1.33174e-20)
(4.77137 -2.17929 -4.96855e-19)
(4.9253 -2.31559 2.83219e-22)
(5.04612 -2.4242 1.00928e-18)
(5.14175 -2.5043 -3.71588e-19)
(5.22115 -2.55607 0)
(5.29322 -2.58059 0)
(5.36578 -2.57974 8.85185e-20)
(5.44477 -2.55602 8.4759e-20)
(5.53364 -2.51229 0)
(5.63318 -2.45145 9.40817e-19)
(5.74164 -2.37616 -9.22454e-19)
(5.85524 -2.28866 -1.02532e-18)
(5.96903 -2.19064 -1.15815e-19)
(6.07779 -2.0834 7.79437e-19)
(6.17687 -1.96802 -8.19135e-19)
(6.2629 -1.84554 7.99984e-19)
(6.33409 -1.71723 -1.82152e-20)
(6.39031 -1.58471 6.23292e-19)
(6.43298 -1.44993 -6.08356e-19)
(6.46462 -1.31516 -5.55633e-19)
(6.48851 -1.18281 6.9327e-19)
(6.50813 -1.05521 -4.90744e-19)
(6.52674 -0.934415 5.42707e-19)
(6.54693 -0.822077 -4.90207e-19)
(6.57051 -0.719239 9.32252e-19)
(6.59882 -0.625791 -1.76919e-20)
(6.63214 -0.545195 -1.81429e-20)
(-10.3156 6.07231 6.61498e-18)
(-37.6489 25.1507 1.98166e-19)
(-66.3916 42.77 -8.38788e-18)
(-84.355 57.1724 1.55741e-17)
(-90.3739 62.6513 -7.35223e-18)
(-84.7705 60.2933 3.77866e-18)
(-71.586 52.2752 -1.90189e-18)
(-55.9046 42.2666 -2.66295e-18)
(-41.4594 32.9518 -1.35275e-18)
(-30.0244 25.4393 1.21433e-18)
(-21.9024 19.9322 -4.99099e-18)
(-16.4466 16.2656 4.87472e-18)
(-12.5434 14.086 -8.15874e-18)
(-9.11948 12.9236 8.35713e-18)
(-5.48247 12.3034 1.53502e-20)
(-1.39056 11.8865 -6.4681e-21)
(3.06292 11.4923 -1.90913e-17)
(7.63224 11.0605 1.93912e-17)
(12.0468 10.5895 6.48631e-20)
(16.075 10.0752 3.08469e-20)
(19.5852 9.53317 -1.05719e-17)
(22.5332 9.00491 1.09382e-17)
(24.9331 8.5253 0)
(26.819 8.09238 -2.05104e-19)
(28.2149 7.6735 0)
(29.1248 7.25279 0)
(29.5376 6.77678 -2.56434e-19)
(29.4445 6.13713 -4.2956e-18)
(28.8535 5.22977 4.61492e-18)
(27.7591 4.04886 6.37255e-18)
(26.0569 2.68677 -6.46239e-18)
(23.5458 1.35502 1.39353e-20)
(20.0432 0.364195 -1.20802e-20)
(15.5339 -0.0249034 0)
(10.3229 0.213454 -2.8566e-19)
(5.1053 0.790078 0)
(0.807123 1.22502 0)
(-1.90059 1.1385 -1.98081e-19)
(-2.98371 0.492071 0)
(-2.93723 -0.463248 0)
(-2.358 -1.42843 3.15494e-18)
(-1.6453 -2.22585 -3.11077e-18)
(-0.96587 -2.81247 0)
(-0.35341 -3.21897 0)
(0.203375 -3.49428 0)
(0.718602 -3.68183 -1.8027e-19)
(1.20001 -3.81298 5.95989e-20)
(1.64992 -3.90824 1.71118e-18)
(2.06847 -3.97982 -1.76328e-18)
(2.45578 -4.03417 1.5545e-18)
(2.81311 -4.07396 -1.72619e-18)
(3.14299 -4.09939 1.71817e-19)
(3.44905 -4.1093 1.08193e-19)
(3.73554 -4.10193 0)
(4.0068 -4.07548 0)
(4.2667 -4.02855 -9.26963e-19)
(4.51819 -3.96038 -5.09198e-20)
(4.76314 -3.87106 1.02889e-18)
(5.00222 -3.76153 -9.26163e-19)
(5.23499 -3.63356 9.57016e-19)
(5.46009 -3.48961 1.55194e-18)
(5.67544 -3.33258 -7.34419e-20)
(5.87848 -3.16551 -2.84068e-18)
(6.06639 -2.99136 1.41198e-18)
(6.23641 -2.81272 9.143e-20)
(6.38607 -2.63177 1.31586e-19)
(6.51347 -2.4502 1.09834e-18)
(6.61754 -2.26939 -2.09745e-18)
(6.69821 -2.09049 9.99882e-19)
(6.7565 -1.91463 1.03788e-19)
(6.79454 -1.74306 8.23388e-19)
(6.81545 -1.57716 -9.05973e-19)
(6.8231 -1.41848 0)
(6.82175 -1.26857 -7.96514e-20)
(6.81567 -1.12885 0)
(6.80869 -1.00042 5.56056e-19)
(6.80384 -0.883965 -2.8277e-20)
(6.80321 -0.779475 -4.95416e-19)
(6.80826 -0.686094 3.18046e-19)
(6.81918 -0.608334 7.58472e-20)
(-7.30735 1.72031 3.35778e-17)
(-10.5299 -0.171254 -5.04582e-17)
(-6.78824 -4.58772 1.79116e-19)
(-6.15401 -7.38387 -4.71753e-17)
(-11.3473 -5.21876 4.8193e-17)
(-18.8467 -1.59136 -4.27204e-17)
(-25.451 1.38572 8.40594e-17)
(-29.7226 2.95066 -4.05135e-17)
(-31.3683 3.08405 3.30294e-17)
(-30.5106 2.04075 -3.31114e-17)
(-27.4546 0.0679475 0)
(-22.5838 -2.64072 3.02129e-19)
(-16.3035 -5.90598 -6.31233e-20)
(-9.08796 -9.53294 0)
(-1.45057 -13.2735 0)
(6.09799 -16.8126 0)
(13.1273 -19.9024 0)
(19.3409 -22.3964 5.00771e-20)
(24.5594 -24.2218 0)
(28.6751 -25.373 -1.00561e-17)
(31.6332 -25.9019 1.01211e-17)
(33.4343 -25.8448 2.67968e-17)
(34.1036 -25.2204 -2.7396e-17)
(33.6272 -24.0502 -3.04002e-17)
(31.9297 -22.3182 3.15332e-17)
(28.9034 -19.9967 -3.08392e-17)
(24.4893 -17.1152 3.15946e-17)
(18.8006 -13.7867 -2.76789e-17)
(12.2288 -10.2829 2.81883e-18)
(5.51232 -7.04388 2.57524e-17)
(-0.419497 -4.58344 0)
(-4.81511 -3.22559 5.28078e-19)
(-7.4438 -2.90308 4.68306e-19)
(-8.61267 -3.22669 0)
(-8.84742 -3.73241 2.88187e-19)
(-8.56163 -4.10752 0)
(-7.93401 -4.2608 0)
(-7.03255 -4.2637 7.90631e-18)
(-5.9455 -4.22945 -1.43339e-17)
(-4.79951 -4.23753 6.85667e-18)
(-3.70057 -4.31409 5.3038e-18)
(-2.70453 -4.44087 -5.51823e-18)
(-1.82733 -4.59592 -1.68357e-19)
(-1.06308 -4.75685 0)
(-0.39466 -4.911 4.0971e-18)
(0.198758 -5.05273 -3.62634e-18)
(0.736952 -5.17949 0)
(1.2365 -5.2891 0)
(1.7101 -5.37882 -2.55778e-18)
(2.16656 -5.44551 2.95246e-18)
(2.61138 -5.48554 2.69377e-18)
(3.04726 -5.49521 -2.48695e-18)
(3.47439 -5.47173 -2.1708e-18)
(3.89118 -5.41328 3.96013e-18)
(4.29484 -5.3193 -1.89695e-18)
(4.68194 -5.19067 -4.23727e-19)
(5.04896 -5.02971 0)
(5.39264 -4.84003 2.09015e-19)
(5.71027 -4.62624 -1.1126e-18)
(5.99988 -4.39364 2.35502e-18)
(6.2602 -4.14779 -1.18422e-18)
(6.49063 -3.8941 0)
(6.69108 -3.63746 -1.06614e-19)
(6.8618 -3.38197 0)
(7.00325 -3.13076 -9.14375e-20)
(7.11604 -2.88607 -1.02146e-19)
(7.20095 -2.64934 -1.8608e-19)
(7.25907 -2.42148 -1.2235e-18)
(7.29202 -2.20312 1.04084e-18)
(7.30213 -1.99482 -1.39909e-19)
(7.29255 -1.79727 -9.35975e-19)
(7.26723 -1.61125 1.13074e-18)
(7.23072 -1.43768 -7.78415e-19)
(7.18781 -1.27744 7.5692e-19)
(7.14316 -1.13128 -7.28461e-19)
(7.10083 -0.999651 5.48136e-19)
(7.06392 -0.882554 5.27683e-19)
(7.03445 -0.779349 -5.11481e-19)
(7.01352 -0.688929 1.10625e-19)
(7.00088 -0.61598 -1.01095e-19)
(-1.31442 4.47792 6.66865e-17)
(-1.48148 12.8103 9.56516e-17)
(-2.12902 21.511 -1.91211e-16)
(-0.0448279 31.3179 1.85716e-16)
(4.8275 38.2976 -9.22445e-17)
(13.1424 43.5701 -1.53007e-19)
(24.1588 46.4967 7.28259e-17)
(35.9367 47.4764 -1.39125e-16)
(45.8724 47.6191 9.83471e-18)
(51.8337 47.975 5.70878e-17)
(52.9119 49.0221 -3.36662e-19)
(49.5228 50.5268 -2.93802e-17)
(43.0345 51.7154 2.9988e-17)
(35.2488 51.6607 -1.49391e-17)
(27.8292 49.6945 1.52593e-17)
(21.7304 45.5721 5.92543e-18)
(17.1306 39.4595 -6.04935e-18)
(13.676 31.8136 -5.2208e-20)
(10.9956 23.2213 0)
(8.83281 14.2669 -4.16253e-18)
(7.01597 5.44153 4.11557e-18)
(5.45369 -2.82913 2.84329e-19)
(4.12918 -10.1107 9.10013e-18)
(3.01584 -16.0805 -9.55287e-18)
(2.00899 -20.6693 -1.06738e-19)
(0.976315 -23.9455 0)
(-0.155103 -25.952 -2.9079e-19)
(-1.36654 -26.74 -6.69733e-19)
(-2.55908 -26.4522 -1.90241e-17)
(-3.59831 -25.3156 1.94681e-17)
(-4.35961 -23.6181 1.60317e-17)
(-4.77056 -21.6467 -1.65353e-17)
(-4.85533 -19.6433 -1.49468e-19)
(-4.70241 -17.7777 -1.2247e-17)
(-4.40711 -16.1343 2.29689e-17)
(-4.03492 -14.7313 -1.10055e-17)
(-3.61792 -13.5504 -9.00004e-18)
(-3.16954 -12.5611 9.29385e-18)
(-2.7015 -11.7327 -2.41167e-20)
(-2.22715 -11.0324 -2.06272e-19)
(-1.75762 -10.4399 2.00339e-19)
(-1.29749 -9.93835 -6.27606e-18)
(-0.842614 -9.51283 6.17529e-19)
(-0.388161 -9.14839 5.84051e-18)
(0.0710568 -8.83452 -5.34575e-18)
(0.540188 -8.56254 5.05153e-18)
(1.0228 -8.32389 0)
(1.52053 -8.11032 4.34457e-18)
(2.03278 -7.91376 -4.27058e-18)
(2.55687 -7.72617 3.31747e-18)
(3.08818 -7.53958 -4.182e-19)
(3.62067 -7.34649 -2.19902e-19)
(4.14731 -7.14016 -2.05276e-19)
(4.66055 -6.91507 -1.91639e-19)
(5.15277 -6.66724 -2.54146e-18)
(5.61673 -6.39451 9.42427e-20)
(6.04595 -6.09679 0)
(6.43509 -5.77603 -2.02845e-18)
(6.78024 -5.43609 1.6017e-18)
(7.07913 -5.08242 0)
(7.33117 -4.72146 -1.57203e-18)
(7.53736 -4.36 1.1814e-18)
(7.69989 -4.00447 0)
(7.82175 -3.66034 -1.42638e-19)
(7.90625 -3.33164 0)
(7.95665 -3.02096 -1.59964e-18)
(7.97604 -2.72953 3.28749e-18)
(7.96743 -2.4576 -1.50642e-18)
(7.93403 -2.2049 1.53997e-19)
(7.87948 -1.97095 1.39905e-19)
(7.80809 -1.75532 -1.02636e-18)
(7.72477 -1.55766 8.84608e-19)
(7.6348 -1.37772 -1.09507e-19)
(7.5435 -1.21525 -9.77529e-20)
(7.4557 -1.0699 1.72063e-19)
(7.37539 -0.941162 7.65502e-20)
(7.30537 -0.828272 6.00335e-19)
(7.24718 -0.730003 -4.32463e-20)
(7.20123 -0.645134 -5.10529e-19)
(7.16651 -0.577949 -9.36753e-20)
(26.4824 -12.3148 0)
(54.3067 -26.2263 -2.38712e-19)
(62.5083 -28.5429 3.64047e-19)
(57.1593 -25.7406 2.94776e-17)
(45.097 -17.6633 -5.55065e-17)
(26.1395 -6.98436 4.64534e-17)
(4.09983 4.20743 -2.06584e-17)
(-17.3359 14.0103 0)
(-35.83 21.5064 4.14042e-19)
(-50.4856 26.6608 1.35872e-18)
(-61.4874 30.0103 -1.0531e-18)
(-69.524 32.2821 4.75295e-18)
(-75.3043 34.0694 -1.14122e-17)
(-79.2934 35.6535 -1.21128e-18)
(-81.644 37.0203 -1.08012e-18)
(-82.3151 37.9468 1.02993e-17)
(-81.1069 38.1365 -2.18904e-19)
(-77.8465 37.3127 -1.15958e-17)
(-72.4126 35.2959 1.19557e-17)
(-64.7538 32.0428 1.17511e-19)
(-54.9237 27.599 -9.1915e-20)
(-43.1526 22.0969 -4.09382e-19)
(-30.008 15.8081 -1.03129e-17)
(-16.5175 9.17325 1.15712e-18)
(-4.0557 2.77423 9.43717e-18)
(6.07211 -2.77308 6.21842e-21)
(13.108 -7.00938 -6.56029e-18)
(17.0526 -9.77008 1.30867e-17)
(18.4618 -11.1655 -1.13329e-17)
(18.0323 -11.467 5.11501e-18)
(16.3585 -11.0042 0)
(13.9263 -10.101 -7.32246e-18)
(11.1626 -9.03139 1.35407e-17)
(8.43014 -7.99696 -6.41057e-18)
(5.99372 -7.12354 5.93713e-18)
(4.00572 -6.47223 -6.2905e-18)
(2.51637 -6.05733 -2.4179e-19)
(1.50042 -5.86152 0)
(0.886569 -5.84645 -4.86318e-20)
(0.583109 -5.96225 -5.17213e-18)
(0.500419 -6.15938 5.5679e-18)
(0.565516 -6.39743 -1.69502e-19)
(0.728212 -6.65216 1.67983e-19)
(0.962371 -6.90826 0)
(1.2568 -7.15618 0)
(1.60639 -7.39044 4.3762e-18)
(2.01065 -7.59956 -4.99043e-18)
(2.46782 -7.77479 -2.69228e-19)
(2.97343 -7.909 -4.10716e-18)
(3.52013 -7.99569 8.25156e-18)
(4.09805 -8.02894 -3.61572e-18)
(4.69533 -8.00379 0)
(5.29864 -7.91653 3.44793e-18)
(5.89374 -7.76503 -3.19333e-18)
(6.46614 -7.54907 0)
(7.00182 -7.27062 2.69955e-18)
(7.48805 -6.93417 -2.5157e-18)
(7.91422 -6.5468 2.12741e-18)
(8.27258 -6.11815 -1.82927e-18)
(8.55891 -5.66002 0)
(8.77276 -5.18569 4.09894e-19)
(8.91734 -4.70888 1.74491e-19)
(8.99886 -4.2425 -1.28751e-18)
(9.02549 -3.79742 2.47126e-19)
(9.00606 -3.38154 1.13558e-18)
(8.94903 -2.99946 0)
(8.86172 -2.65276 1.04661e-19)
(8.75032 -2.34075 0)
(8.62019 -2.06141 0)
(8.47642 -1.81221 -1.20334e-18)
(8.32425 -1.59059 1.17313e-18)
(8.16916 -1.39422 8.3247e-19)
(8.01662 -1.22095 2.88302e-20)
(7.87173 -1.06878 -7.29125e-19)
(7.73875 -0.935802 -7.53684e-19)
(7.62072 -0.820165 6.47185e-19)
(7.51932 -0.720082 -6.84832e-20)
(7.43491 -0.633668 -4.50314e-19)
(7.36666 -0.559557 9.29186e-19)
(7.3125 -0.501364 -2.88487e-19)
(9.04888 -5.33647 -7.7508e-17)
(34.5766 -18.786 5.81252e-17)
(65.406 -35.4319 5.80612e-17)
(82.0809 -46.3428 -5.94624e-17)
(78.2679 -48.024 -3.46111e-19)
(61.9625 -43.561 -3.28796e-19)
(41.8083 -36.2275 0)
(23.0962 -28.1721 -6.03618e-17)
(8.00797 -20.5054 6.17918e-17)
(-3.08327 -13.6204 0)
(-10.7868 -7.51822 5.66842e-17)
(-16.1567 -2.01401 -1.12197e-16)
(-20.2702 3.09849 3.44465e-18)
(-23.9202 7.93286 1.00668e-16)
(-27.4635 12.4712 -4.92915e-17)
(-30.8198 16.5961 -2.55735e-19)
(-33.5464 20.1471 -1.80224e-19)
(-35.0134 22.9479 0)
(-34.742 24.8475 -2.90067e-17)
(-32.6906 25.8023 2.93424e-17)
(-29.2185 25.8848 -2.00462e-19)
(-24.9165 25.1962 -1.77253e-17)
(-20.5198 23.7952 1.792e-17)
(-16.6186 21.7151 -1.1672e-17)
(-13.3842 18.951 1.18908e-17)
(-10.4314 15.4861 -6.19841e-21)
(-7.15016 11.3928 -4.78135e-18)
(-3.42769 6.96449 1.68177e-18)
(0.0270562 2.70078 5.04478e-18)
(2.26075 -0.892391 -8.88062e-19)
(2.91658 -3.54885 -8.83909e-19)
(2.40253 -5.31914 5.29324e-19)
(1.398 -6.43356 -5.34836e-19)
(0.392829 -7.12143 0)
(-0.402924 -7.53771 1.50391e-19)
(-0.947077 -7.77891 1.56855e-19)
(-1.26396 -7.91579 0)
(-1.39504 -8.00313 4.9204e-18)
(-1.37914 -8.07533 -5.11422e-18)
(-1.24725 -8.15131 -1.70172e-19)
(-1.02174 -8.24098 0)
(-0.716024 -8.34779 1.70054e-19)
(-0.336294 -8.46964 5.51352e-18)
(0.115866 -8.59972 -5.50624e-18)
(0.639966 -8.72678 0)
(1.23299 -8.84456 -4.80068e-18)
(1.89012 -8.94864 5.59081e-18)
(2.60411 -9.03346 0)
(3.36553 -9.09182 0)
(4.16281 -9.11564 -2.70284e-19)
(4.98228 -9.09648 -2.56017e-19)
(5.80825 -9.02597 0)
(6.6232 -8.89639 3.5488e-18)
(7.40826 -8.70129 -3.73964e-18)
(8.14384 -8.43621 -3.21915e-18)
(8.81071 -8.09937 4.42989e-19)
(9.39112 -7.69232 5.58301e-18)
(9.87023 -7.22049 -5.05844e-18)
(10.2376 -6.69345 -6.00503e-20)
(10.4884 -6.12486 1.87717e-18)
(10.6243 -5.53185 -2.17256e-19)
(10.654 -4.9338 0)
(10.5921 -4.35035 0)
(10.4569 -3.79898 1.23287e-18)
(10.2682 -3.2929 -1.35198e-18)
(10.0441 -2.8398 0)
(9.79922 -2.44185 1.12101e-19)
(9.54435 -2.09692 0)
(9.28691 -1.80031 6.82131e-19)
(9.03245 -1.54642 -6.65604e-19)
(8.78576 -1.32979 1.35456e-19)
(8.55147 -1.14551 1.06474e-18)
(8.33398 -0.98923 -9.15473e-19)
(8.13697 -0.857011 9.06261e-20)
(7.96295 -0.745226 0)
(7.813 -0.650588 0)
(7.68673 -0.570189 0)
(7.58253 -0.501436 -4.54603e-19)
(7.49785 -0.442747 -3.5636e-22)
(7.42925 -0.396864 6.26453e-19)
(-6.68145 3.03625 2.12518e-17)
(-6.71846 5.32409 3.03076e-17)
(7.59889 -0.677088 -3.10302e-17)
(25.4039 -6.73026 2.77026e-17)
(38.5213 -12.3364 -2.84495e-17)
(48.2373 -15.7838 -1.07323e-19)
(54.7471 -17.0856 -1.04564e-19)
(58.2675 -16.3673 0)
(59.3429 -14.0322 -1.81271e-19)
(58.5777 -10.5777 0)
(56.1986 -6.34783 -8.77508e-20)
(51.8485 -1.45978 -1.25176e-18)
(44.8498 4.05432 1.19407e-18)
(34.9905 9.97679 -5.845e-18)
(23.2911 15.7927 6.09517e-18)
(11.7982 20.8574 -1.10329e-17)
(2.47868 24.6693 1.13672e-17)
(-3.72509 26.9756 0)
(-6.96704 27.8822 0)
(-8.1212 27.7199 0)
(-8.29167 26.9134 1.42581e-17)
(-8.4161 25.8347 -2.73956e-17)
(-9.02743 24.6759 1.39082e-18)
(-10.0855 23.4333 2.3586e-17)
(-11.1127 21.9609 -1.12457e-17)
(-11.5419 20.0953 0)
(-11.0778 17.7633 2.56716e-20)
(-9.83823 14.9998 0)
(-8.1935 11.9402 4.74319e-18)
(-6.48805 8.80896 -4.80004e-18)
(-4.91022 5.8427 -9.75895e-20)
(-3.53148 3.21399 0)
(-2.39014 1.00567 -4.31599e-19)
(-1.5251 -0.77536 2.07172e-20)
(-0.952288 -2.17038 4.25547e-19)
(-0.635152 -3.23898 -1.5282e-18)
(-0.49137 -4.04591 3.49839e-18)
(-0.426973 -4.6582 -1.97154e-18)
(-0.362742 -5.13522 0)
(-0.244715 -5.52268 0)
(-0.0444648 -5.85531 0)
(0.24855 -6.15813 2.96951e-18)
(0.635741 -6.44528 -9.18287e-18)
(1.11508 -6.72317 6.03364e-18)
(1.68364 -6.99392 0)
(2.33859 -7.25718 -6.09717e-18)
(3.07544 -7.50746 5.90894e-18)
(3.88703 -7.73876 5.61533e-18)
(4.76349 -7.94327 -5.47298e-19)
(5.69143 -8.11188 -2.1134e-19)
(6.65369 -8.23441 -2.34909e-19)
(7.62938 -8.30021 -4.87022e-18)
(8.5942 -8.29886 0)
(9.52126 -8.22103 0)
(10.3823 -8.05929 -3.40046e-18)
(11.1492 -7.80908 3.63193e-18)
(11.7956 -7.46923 0)
(12.2992 -7.0429 0)
(12.6435 -6.5383 1.60029e-19)
(12.8203 -5.96887 2.65501e-19)
(12.8314 -5.3536 0)
(12.6901 -4.71643 0)
(12.4208 -4.08395 -1.83471e-19)
(12.0559 -3.48212 -1.59135e-19)
(11.6316 -2.93229 1.23412e-18)
(11.1808 -2.44801 -2.02578e-18)
(10.7296 -2.03404 -1.65984e-20)
(10.2946 -1.68769 1.56225e-18)
(9.88501 -1.40173 -1.45143e-18)
(9.50498 -1.16733 1.20211e-18)
(9.15671 -0.976028 -2.53612e-19)
(8.84202 -0.820559 -4.84369e-19)
(8.56262 -0.694773 7.52155e-19)
(8.31952 -0.593307 -9.43403e-20)
(8.11243 -0.511352 -1.18835e-18)
(7.93947 -0.44464 5.97346e-19)
(7.79734 -0.389519 0)
(7.68186 -0.342965 8.79649e-20)
(7.5883 -0.303317 0)
(7.51173 -0.272444 -2.20362e-19)
(-9.28466 1.28624 0)
(-15.4848 1.47648 1.60027e-19)
(-10.9621 -3.33756 -1.50548e-19)
(-3.02847 -9.19786 -1.4902e-19)
(2.04296 -14.8262 2.29844e-18)
(4.86064 -19.7608 -2.21211e-18)
(5.70942 -23.9211 1.03791e-19)
(4.80284 -27.2023 0)
(2.43161 -29.5653 0)
(-1.07184 -31.0305 0)
(-5.46542 -31.6754 8.67969e-20)
(-10.6187 -31.5077 -9.09443e-20)
(-16.6158 -30.5002 0)
(-23.5537 -28.558 1.81365e-19)
(-30.6249 -25.3178 2.47731e-19)
(-36.2844 -20.8175 2.80692e-17)
(-39.8747 -15.9627 -2.83769e-17)
(-41.5234 -11.4848 -4.31109e-19)
(-41.4776 -7.47196 0)
(-40.0711 -3.94772 4.2746e-19)
(-37.988 -1.05323 -8.11858e-20)
(-36.0451 1.17404 2.01077e-17)
(-34.693 2.86488 -2.88951e-18)
(-33.783 4.17183 -1.7411e-17)
(-32.7842 5.12914 -4.2865e-20)
(-31.2046 5.6781 2.88032e-19)
(-28.8593 5.7759 -9.3617e-18)
(-25.8754 5.45368 8.45202e-18)