/*--------------------------------*- C++ -*----------------------------------*\
| =========                 |                                                 |
| \\      /  F ield         | OpenFOAM: The Open Source CFD Toolbox           |
|  \\    /   O peration     | Version:  2012                                  |
|   \\  /    A nd           | Website:  www.openfoam.com                      |
|    \\/     M anipulation  |                                                 |
\*---------------------------------------------------------------------------*/
FoamFile
{
    version     2.0;
    format      ascii;
    class       surfaceScalarField;
    location    "0.26";
    object      phi;
}
// * * * * * * * * * * * * * * * * * * * * * * * * * * * * * * * * * * * * * //

dimensions      [0 3 -1 0 0 0 0];
oriented        oriented;


internalField   nonuniform List<scalar> 
84340
(
1.61215e-05
-0.000253541
0.00023742
0.000446059
-0.000877671
0.000447733
0.00114436
-0.00127271
0.000574411
0.00200612
-0.00135163
0.000489876
0.00309804
-0.00121905
0.000127124
0.00439521
-0.000913746
-0.000383424
0.0056415
-0.000527129
-0.000719161
0.00649367
-0.000162653
-0.000689517
0.00682801
0.000128974
-0.000463308
0.00673322
0.000358902
-0.000264114
0.00633848
0.000561398
-0.00016666
0.00572491
0.000759128
-0.000145554
0.00493717
0.000955117
-0.000167375
0.00402289
0.0011378
-0.00022353
0.00300685
0.00129188
-0.000275834
0.00192783
0.00141027
-0.000331256
0.00083521
0.00149428
-0.000401658
-0.000203775
0.00154434
-0.000505352
-0.00111886
0.00156102
-0.000645937
-0.00185273
0.00154837
-0.000814498
-0.00238346
0.00150743
-0.000976705
-0.00274244
0.00135701
-0.00099803
-0.00300467
0.000962264
-0.000700036
-0.00324156
0.000381883
-0.000144986
-0.00347612
-0.000110122
0.000344678
-0.00368852
-0.000349876
0.000562277
-0.00385125
-0.000408527
0.000571254
-0.00394512
-0.00041147
0.000505336
-0.00395659
-0.000415645
0.000427122
-0.00388129
-0.00042847
0.000353167
-0.00373246
-0.000442754
0.00029392
-0.00352385
-0.000452088
0.000243485
-0.00327478
-0.000453562
0.000204489
-0.00301185
-0.000440863
0.000177934
-0.00275603
-0.000416929
0.000161111
-0.00252036
-0.000386328
0.000150655
-0.00231105
-0.000353018
0.000143705
-0.00212992
-0.000319425
0.0001383
-0.00197625
-0.000286971
0.000133304
-0.00184833
-0.000256091
0.000128164
-0.00174415
-0.000226872
0.000122696
-0.00166157
-0.0001995
0.000116918
-0.00159801
-0.000174522
0.000110964
-0.00155038
-0.000152649
0.000105013
-0.00151829
-0.000130924
9.88406e-05
-0.00149925
-0.000112134
9.30915e-05
-0.00149004
-9.65384e-05
8.73242e-05
-0.00148824
-8.33302e-05
8.15344e-05
-0.00148993
-7.40592e-05
7.57512e-05
-0.00149073
-6.90662e-05
6.98622e-05
-0.00148728
-6.7567e-05
6.41195e-05
-0.00147646
-6.94419e-05
5.86197e-05
-0.00145682
-7.38737e-05
5.42326e-05
-0.00142972
-7.87224e-05
5.16206e-05
-0.00139554
-8.58252e-05
5.16491e-05
-0.00135434
-9.37737e-05
5.25759e-05
-0.00130733
-0.000101811
5.48003e-05
-0.00125686
-0.000109896
5.94232e-05
-0.00120446
-0.000117971
6.55771e-05
-0.00115138
-0.00012605
7.29626e-05
-0.00109854
-0.000134263
8.14237e-05
-0.00104663
-0.000142814
9.09075e-05
-0.000996118
-0.000151969
0.000101456
-0.000947267
-0.000162032
0.000113182
-0.000900184
-0.000173326
0.000126243
-0.000854834
-0.000186174
0.000140824
-0.000811062
-0.000200895
0.000157123
-0.000768611
-0.000217781
0.00017533
-0.00072713
-0.000237099
0.000195618
-0.000686181
-0.000259079
0.00021813
-0.000645249
-0.000283904
0.000242972
-0.000603745
-0.000311712
0.000270209
-0.000561025
-0.000342588
0.000299867
-0.000516392
-0.00037658
0.000331947
-0.000469109
-0.000413724
0.000366441
-0.000418379
-0.000454109
0.000403378
-0.00036328
-0.000497994
0.000442895
-0.00030274
-0.000545908
0.000485368
-0.000235504
-0.000598581
0.000531344
-0.000657223
0.000580698
-0.000158979
0.000260966
-0.000514507
0.000534122
-0.00115083
0.000652563
-0.00139115
0.000668651
-0.00136772
0.000587258
-0.00113766
0.000411393
-0.000737881
0.000113228
-0.000228965
-0.000341703
0.000292278
-0.000958575
0.000745846
-0.00170024
0.00110057
-0.00249822
0.00135938
-0.00327557
0.00153648
-0.00396231
0.00164185
-0.00450152
0.00167702
-0.00485124
0.00164159
-0.00498009
0.00153913
-0.00486518
0.00137936
-0.00449738
0.00117654
-0.00388196
0.000945596
-0.00303675
0.000703168
-0.00200175
0.00047243
-0.000919596
0.000274852
-7.94182e-05
0.000122086
0.00029018
1.22839e-05
0.000249783
-6.97254e-05
3.52202e-05
-0.000135312
-0.000172474
-0.000200832
-0.000314856
-0.000269088
-0.000394591
-0.000335911
-0.000426748
-0.000396313
-0.000428312
-0.000441191
-0.000416724
-0.000463675
-0.000408716
-0.00046157
-0.000413656
-0.000435923
-0.000440493
-0.000390092
-0.000495682
-0.000331139
-0.000581596
-0.000267104
-0.000696021
-0.000205
-0.000832894
-0.000150098
-0.000983936
-0.000105049
-0.00114006
-7.07471e-05
-0.00129048
-4.90809e-05
-0.00142433
-4.06715e-05
-0.00153186
-4.51205e-05
-0.00160621
-5.65775e-05
-0.00164925
-6.90925e-05
-0.00166619
-7.95974e-05
-0.0016607
-8.88164e-05
-0.00163797
-9.6789e-05
-0.0016027
-0.000104341
-0.00155835
-0.000111915
-0.00150819
-0.000119602
-0.00145449
-0.000127568
-0.00139762
-0.000135594
-0.00133987
-0.000143579
-0.00128231
-0.000151332
-0.00122549
-0.000158633
-0.00117002
-0.000165368
-0.00111647
-0.000171517
-0.00106534
-0.000177182
-0.00101701
-0.00018259
-0.000971753
-0.000188072
-0.000929684
-0.000194038
-0.00089077
-0.000200946
-0.000854825
-0.000209271
-0.000821515
-0.000219484
-0.000790375
-0.000232035
-0.00076082
-0.000247336
-0.00073216
-0.000265759
-0.000703616
-0.000287623
-0.000674333
-0.000313187
-0.000643404
-0.000342641
-0.000609887
-0.000376105
-0.000572832
-0.000413636
-0.0005313
-0.000455256
-0.000484387
-0.000501022
-0.000431248
-0.000551134
-0.000371083
-0.000606073
-0.00030274
-0.000666924
-0.000736158
-0.000223806
-0.000447348
-6.71595e-05
-0.00141662
-0.000181551
-0.00250092
-0.000306855
-0.00349872
-0.000369922
-0.00428122
-0.000355158
-0.00473337
-0.000285734
-0.00480724
-0.000155092
-0.00455996
4.50021e-05
-0.00411162
0.000297504
-0.00357099
0.000559941
-0.00299746
0.000785845
-0.00240626
0.000945282
-0.00179692
0.00103251
-0.00117674
0.00105684
-0.000568236
0.00103308
-2.13573e-06
0.000973026
0.000494838
0.000882391
0.000906691
0.00076469
0.00122452
0.00062777
0.00144232
0.000485364
0.00156321
0.000351538
0.00160535
0.000232718
0.00158539
0.000142039
0.00152995
6.773e-05
0.00147397
-1.37462e-05
0.00144074
-0.000102084
0.00144378
-0.00020387
0.00149345
-0.000318761
0.00159008
-0.000432539
0.00171095
-0.000517188
0.00181574
-0.000545978
0.00186547
-0.000513408
0.00184189
-0.000437985
0.00175114
-0.00034517
0.00161226
-0.000251215
0.00144253
-0.000161414
0.00125641
-8.09812e-05
0.00105958
-8.17062e-06
0.000850298
5.91859e-05
0.000633186
0.000112064
0.000413333
0.000149106
0.000196113
0.000168139
-1.34476e-05
0.000168889
-0.000212762
0.000154194
-0.000398577
0.000129238
-0.000567358
9.96889e-05
-0.00071561
6.86542e-05
-0.000841559
3.71322e-05
-0.00094334
4.99183e-06
-0.00101947
-2.82143e-05
-0.0010692
-6.21834e-05
-0.0011002
-8.86003e-05
-0.00111302
-0.000114748
-0.00110858
-0.000140037
-0.00108982
-0.000162335
-0.00106023
-0.000180923
-0.00102325
-0.000195611
-0.000982059
-0.000206562
-0.000939371
-0.000214204
-0.000897383
-0.000219169
-0.000857737
-0.000222236
-0.000821535
-0.000224274
-0.000789379
-0.000226194
-0.000761426
-0.000228898
-0.00073746
-0.000233236
-0.000716967
-0.000239977
-0.000699202
-0.0002498
-0.000683249
-0.00026329
-0.000668064
-0.000280943
-0.000652516
-0.000303171
-0.00063541
-0.000330292
-0.000615525
-0.000362526
-0.000591649
-0.00039998
-0.000562632
-0.000442653
-0.000527435
-0.000490452
-0.000485204
-0.000543253
-0.000435343
-0.000600995
-0.000377568
-0.000663848
-0.000311886
-0.000732607
-0.000809442
-0.000238601
-0.000268869
0.00020171
-0.000639719
0.000189297
-0.000999333
5.27597e-05
-0.00136897
-2.83833e-07
-0.0017686
4.44667e-05
-0.00219858
0.000144247
-0.00263861
0.000284939
-0.00305614
0.000462529
-0.00343318
0.000674545
-0.00376363
0.000890392
-0.00403485
0.00105706
-0.00423499
0.00114543
-0.00436098
0.0011585
-0.00441752
0.00111338
-0.00441063
0.0010262
-0.00434651
0.000908898
-0.00423568
0.000771565
-0.00409716
0.000626169
-0.00394119
0.000471807
-0.00378566
0.000329831
-0.00364561
0.000211487
-0.00352954
0.00011665
-0.00342784
4.03337e-05
-0.00332788
-3.22247e-05
-0.00321996
-0.000121668
-0.00308167
-0.000240376
-0.00289767
-0.000387863
-0.00267681
-0.000539623
-0.00245034
-0.000659008
-0.00225996
-0.000707567
-0.00214045
-0.000665495
-0.00210665
-0.000547207
-0.00215042
-0.000394214
-0.00224684
-0.00024875
-0.00236205
-0.000136004
-0.00246493
-5.85347e-05
-0.00253787
-8.04346e-06
-0.00256854
2.25005e-05
-0.00254792
3.85621e-05
-0.0024797
4.38452e-05
-0.00237181
4.12199e-05
-0.00223685
3.31777e-05
-0.00208993
2.19659e-05
-0.00194504
9.30674e-06
-0.00181183
-3.97044e-06
-0.00169395
-1.81966e-05
-0.00159125
-3.40466e-05
-0.0015003
-5.38107e-05
-0.00141416
-8.11493e-05
-0.00133233
-0.000110046
-0.00125475
-0.000139759
-0.00117366
-0.000169696
-0.00109033
-0.000198081
-0.00100718
-0.000223186
-0.000925905
-0.000243607
-0.000848321
-0.000258507
-0.000776266
-0.000267667
-0.000711384
-0.000271444
-0.000654931
-0.000270658
-0.000607656
-0.000266445
-0.000569772
-0.00026012
-0.000540991
-0.000253055
-0.000520596
-0.00024659
-0.000507528
-0.000241966
-0.000500488
-0.000240275
-0.000498025
-0.00024244
-0.000498611
-0.000249214
-0.000500689
-0.000261212
-0.000502696
-0.000278937
-0.000503067
-0.0003028
-0.000500243
-0.000333117
-0.000492688
-0.000370081
-0.00047894
-0.000413728
-0.000457681
-0.000463912
-0.000427835
-0.000520298
-0.000388692
-0.000582396
-0.000340024
-0.000649664
-0.000282112
-0.000721761
-0.000215731
-0.000798987
-0.00088186
-0.000143312
0.000603449
-0.000401739
0.00145218
-0.00065943
0.00214753
-0.000642594
0.00271748
-0.000570235
0.00325532
-0.000493368
0.00381239
-0.000412829
0.00442984
-0.000332509
0.00514751
-0.000255145
0.00598515
-0.000163091
0.00694089
-6.53495e-05
0.00796614
3.18111e-05
0.00898953
0.000122039
0.00994509
0.000202942
0.0107826
0.000275845
0.0114686
0.000340217
0.0119814
0.000396071
0.0123051
0.000447939
0.0124338
0.000497448
0.0123543
0.00055124
0.0120654
0.000618747
0.0115743
0.000702591
0.0109044
0.000786616
0.0100921
0.000852569
0.00919773
0.00086217
0.00829623
0.000779834
0.00747099
0.000584866
0.00674537
0.000337753
0.00609347
0.000112278
0.00546142
-2.69559e-05
0.00480664
-5.27925e-05
0.00412427
1.68804e-05
0.00343977
0.000137285
0.00278331
0.000262249
0.00217459
0.000359973
0.00162209
0.000416491
0.00113136
0.000432196
0.000707528
0.000415792
0.000351784
0.000378244
6.16644e-05
0.000328682
-0.000167917
0.000273427
-0.000343797
0.0002171
-0.000473895
0.000163276
-0.000566595
0.000114666
-0.000629971
7.26821e-05
-0.000670735
3.67937e-05
-0.000693558
4.62648e-06
-0.000699819
-2.77853e-05
-0.000692255
-6.13746e-05
-0.000674444
-9.89608e-05
-0.000643455
-0.000141036
-0.000598529
-0.000184685
-0.000541129
-0.000227096
-0.000474181
-0.000265029
-0.000401667
-0.000295699
-0.000328125
-0.00031715
-0.000258157
-0.000328475
-0.000195946
-0.000329878
-0.000144812
-0.000322578
-0.000106897
-0.000308573
-8.30147e-05
-0.000290326
-7.27146e-05
-0.00027042
-7.45078e-05
-0.000251261
-8.62039e-05
-0.000234893
-0.000105269
-0.0002229
-0.000129139
-0.000216406
-0.000155437
-0.000216143
-0.000182073
-0.000222578
-0.000207234
-0.000236051
-0.000229292
-0.000256879
-0.000246691
-0.000285401
-0.000257873
-0.000321935
-0.000261259
-0.000366695
-0.000255296
-0.000419691
-0.000238581
-0.000480627
-0.000210028
-0.000548851
-0.000169071
-0.000623353
-0.000115881
-0.000702854
-5.16422e-05
-0.000785999
2.11889e-05
-0.000871818
-0.000961882
0.00010121
-0.000583327
0.000181588
-0.00154881
0.000306054
-0.00257902
0.000387615
-0.00368402
0.000534768
-0.00487046
0.000693069
-0.00609814
0.000814852
-0.00728498
0.000854332
-0.008339
0.000798879
-0.00917347
0.000671377
-0.00974368
0.000504856
-0.0100497
0.000337847
-0.0101102
0.000182482
-0.00995303
4.58145e-05
-0.00960889
-6.82968e-05
-0.00911213
-0.000156542
-0.00850203
-0.00021403
-0.00781995
-0.000234144
-0.00711168
-0.000210822
-0.0064201
-0.000140335
-0.00577887
-2.24811e-05
-0.00521175
0.000135465
-0.00474045
0.000315318
-0.00435958
0.000471704
-0.00403434
0.000536923
-0.00372896
0.000474458
-0.00344303
0.00029894
-0.00318843
8.31451e-05
-0.00299147
-8.46784e-05
-0.00286765
-0.000150776
-0.00280406
-0.000116376
-0.0027637
-2.34873e-05
-0.00270222
7.58041e-05
-0.00258419
0.000144226
-0.00239242
0.000168198
-0.00212935
0.000153423
-0.00181248
0.000115323
-0.00146663
6.99504e-05
-0.00111811
2.97174e-05
-0.000788703
-7.23435e-07
-0.000492952
-2.23244e-05
-0.000240058
-3.57943e-05
-3.38468e-05
-4.29353e-05
0.000126865
-4.60454e-05
0.000247203
-4.7656e-05
0.00033501
-5.10122e-05
0.000398879
-5.92431e-05
0.000443146
-7.20519e-05
0.000475936
-9.41641e-05
0.000504853
-0.000127878
0.000530876
-0.000167058
0.000555994
-0.000209803
0.000580544
-0.000251646
0.000603959
-0.000288444
0.000624894
-0.000316635
0.000641449
-0.000333705
0.000651472
-0.000338498
0.000652885
-0.000331293
0.00064402
-0.000313712
0.00062394
-0.000288494
0.000592713
-0.000259099
0.000551507
-0.000229213
0.000502453
-0.000202207
0.000448296
-0.000180736
0.000391939
-0.000166544
0.000336048
-0.000160515
0.000282825
-0.000162919
0.000233975
-0.000173728
0.000190832
-0.000192906
0.000154543
-0.00022059
0.000126257
-0.000257115
0.00010725
-0.000302927
9.89508e-05
-0.000358396
0.000102872
-0.000423613
0.000120452
-0.000498207
0.000152815
-0.000581214
0.000200487
-0.000671025
0.000263084
-0.000765451
0.000339141
-0.000862055
0.00042619
-0.000958867
-0.00105439
0.000518698
0.000187774
-6.18565e-06
0.00043561
5.82178e-05
0.000623815
0.00019941
0.000777878
0.000380705
0.000915372
0.000555575
0.00104647
0.000683754
0.00116284
0.00073796
0.00124399
0.000717734
0.00127454
0.000640825
0.00125083
0.000528567
0.00118801
0.000400663
0.00110192
0.000268573
0.00100806
0.000139675
0.000914416
2.53463e-05
0.000826193
-6.83195e-05
0.000729596
-0.000117433
0.000614917
-0.000119465
0.000486702
-8.26069e-05
0.000367005
-2.06374e-05
0.000287552
5.69715e-05
0.000276995
0.000146023
0.000351796
0.000240517
0.000497481
0.000326019
0.000657753
0.000376651
0.000757176
0.000375034
0.000725637
0.000330479
0.000534389
0.000274393
0.000211944
0.000237767
-0.000171097
0.000232264
-0.00053388
0.000246407
-0.000814265
0.000256897
-0.000982052
0.000243591
-0.00103598
0.000198155
-0.000992651
0.000124868
-0.000875862
3.66338e-05
-0.000709603
-5.09354e-05
-0.000512162
-0.000127492
-0.000304756
-0.000177688
-9.77865e-05
-0.000207693
9.86055e-05
-0.000218716
0.000277826
-0.000215015
0.000437257
-0.000202366
0.000576412
-0.0001852
0.000697142
-0.000168386
0.000801764
-0.000155635
0.000892148
-0.000149627
0.000971548
-0.000151453
0.00104053
-0.000163144
0.00109481
-0.000182156
0.00113406
-0.000206316
0.00115723
-0.000232966
0.0011637
-0.000258116
0.00115402
-0.000278773
0.00112975
-0.000292364
0.0010934
-0.000297354
0.0010482
-0.000293291
0.000997661
-0.000280758
0.000945193
-0.000261244
0.000893649
-0.000236951
0.000845125
-0.000210576
0.000800884
-0.000184973
0.000761473
-0.000162796
0.00072691
-0.000146173
0.000696902
-0.000136536
0.000671045
-0.000134658
0.000648986
-0.000140861
0.000630566
-0.000155308
0.000615913
-0.000178253
0.00060551
-0.000210187
0.000600228
-0.000251833
0.000601311
-0.00030401
0.000610319
-0.000367404
0.000629009
-0.000442303
0.000659144
-0.000528342
0.000702233
-0.000624304
0.000759222
-0.000728014
0.000830136
-0.000836365
0.000913771
-0.000945691
0.0010072
-0.00105229
-0.00115311
0.00110591
1.91123e-05
-2.5298e-05
1.98371e-06
7.53461e-05
-9.46724e-05
0.000296066
-0.000233357
0.00051939
-0.00036684
0.000689058
-0.000488692
0.000805606
-0.000623565
0.000872833
-0.000796562
0.000890731
-0.0010113
0.000855559
-0.0012448
0.000762068
-0.00144696
0.000602829
-0.0015452
0.000366813
-0.00146216
5.66318e-05
-0.00114962
-0.000287191
-0.000640177
-0.000577765
-3.59969e-05
-0.000721613
0.000546536
-0.000701998
0.00104112
-0.000577195
0.00143676
-0.000416271
0.00175346
-0.000259727
0.00202197
-0.000122487
0.00226957
-7.08937e-06
0.00250724
8.83489e-05
0.00271422
0.000169677
0.00286073
0.000228517
0.00292089
0.000270323
0.00289382
0.00030146
0.00280589
0.000325704
0.00269631
0.000341845
0.00259715
0.000345561
0.00252266
0.000331393
0.00247024
0.000296007
0.0024275
0.000240895
0.00238002
0.000172349
0.00231664
0.000100012
0.00223162
3.40829e-05
0.0021225
-1.83658e-05
0.00199938
-5.45685e-05
0.00186797
-7.62797e-05
0.00173665
-8.73986e-05
0.00161372
-9.2081e-05
0.00150529
-9.39415e-05
0.00141585
-9.57594e-05
0.00134703
-9.95609e-05
0.0012981
-0.000106711
0.00126638
-0.000117903
0.00124831
-0.000133388
0.00123776
-0.000152585
0.00123017
-0.000174566
0.00122049
-0.000196639
0.00120571
-0.000218185
0.0011846
-0.000237008
0.00115736
-0.000251531
0.00112569
-0.000260694
0.00109233
-0.000263999
0.00106055
-0.00026151
0.00103358
-0.000253785
0.00101414
-0.000241806
0.00100407
-0.000226877
0.00100405
-0.000210559
0.00101364
-0.000194562
0.00103145
-0.0001806
0.00105552
-0.000170253
0.00108384
-0.000164846
0.00111459
-0.000165414
0.00114651
-0.000172781
0.00117888
-0.00018768
0.00121152
-0.00021089
0.00124466
-0.000243324
0.00127884
-0.000286022
0.00131487
-0.000340036
0.00135369
-0.000406226
0.00139639
-0.000485001
0.00144409
-0.000576038
0.00149781
-0.000678032
0.00155834
-0.000788543
0.00162585
-0.000903876
0.00169983
-0.00101966
0.00177716
-0.00112962
-0.00123396
0.00185801
-1.98746e-05
-5.4235e-06
-4.31347e-05
9.86065e-05
0.000107477
0.000145455
0.000461749
0.000165117
0.000921673
0.000229134
0.00141334
0.000313943
0.00188526
0.000400911
0.00230314
0.000472846
0.00264269
0.000516009
0.00288594
0.00051882
0.00301989
0.000468885
0.00303886
0.000347842
0.0029482
0.000147285
0.0027682
-0.000107183
0.00253421
-0.000343777
0.00229615
-0.000483556
0.00209794
-0.000503784
0.00196215
-0.000441405
0.0018897
-0.000343823
0.00188366
-0.000253685
0.00193751
-0.000176336
0.00204615
-0.00011573
0.00220718
-7.26844e-05
0.00240832
-3.14606e-05
0.00262123
1.56041e-05
0.00281799
7.35669e-05
0.00297658
0.000142871
0.00308376
0.000218517
0.0031338
0.000291803
0.00312801
0.000351358
0.00307554
0.000383861
0.00297987
0.000391681
0.00284423
0.000376527
0.00267288
0.000343699
0.00247361
0.000299281
0.00225603
0.000251666
0.00203028
0.000207384
0.00180796
0.000167751
0.00159927
0.000132414
0.00141525
9.6615e-05
0.00126072
6.24562e-05
0.00113814
2.8633e-05
0.0010477
-5.31848e-06
0.000986887
-3.87487e-05
0.000951557
-7.13808e-05
0.000936769
-0.000103116
0.000937181
-0.0001338
0.000947622
-0.000163026
0.0009635
-0.000190445
0.000982371
-0.000215509
0.00100182
-0.000237632
0.00102103
-0.000256219
0.00104027
-0.000270777
0.00106058
-0.000281004
0.00108341
-0.000286825
0.00111031
-0.000288411
0.00114271
-0.000286179
0.00118169
-0.000280795
0.00122796
-0.000273146
0.00128171
-0.00026431
0.00134265
-0.000255496
0.00141002
-0.000247976
0.00148278
-0.000243005
0.00155969
-0.000241763
0.00163961
-0.000245327
0.0017215
-0.00025468
0.00180458
-0.000270756
0.00188819
-0.000294496
0.00197174
-0.000326882
0.00205465
-0.000368927
0.0021362
-0.000421591
0.00221561
-0.000485631
0.00229199
-0.000561379
0.00236444
-0.000648497
0.00243212
-0.000745705
0.00249424
-0.00085067
0.00254989
-0.000959521
0.00259871
-0.00106848
0.00263748
-0.00116839
-0.00126582
0.00266934
-0.000405418
0.000399995
-0.000831593
0.000524781
-0.000998377
0.000312239
-0.000963463
0.000130203
-0.00080053
6.62011e-05
-0.000548747
6.21604e-05
-0.000216724
6.88884e-05
0.000196339
5.97828e-05
0.000675695
3.66528e-05
0.00117571
1.88055e-05
0.00162019
2.44037e-05
0.00191789
5.01425e-05
0.00196838
9.67938e-05
0.00171548
0.000145717
0.00118882
0.000182884
0.000501937
0.000203327
-0.000208756
0.000206908
-0.000844073
0.000193912
-0.00135306
0.000165167
-0.00172913
0.000122378
-0.00197289
6.74253e-05
-0.00209222
3.60665e-06
-0.00210286
-6.20488e-05
-0.002014
-0.000120316
-0.00183325
-0.000165152
-0.00157738
-0.000182303
-0.00125784
-0.000176666
-0.000891269
-0.000148054
-0.000500208
-9.92582e-05
-0.000110396
-3.8454e-05
0.000249409
2.40564e-05
0.000559317
8.17723e-05
0.000808834
0.00012701
0.000994302
0.000158231
0.00111632
0.000177258
0.00118286
0.000185135
0.00120668
0.000183562
0.00120288
0.000171551
0.00118332
0.000151978
0.00115377
0.000126157
0.00112417
9.20643e-05
0.001096
5.67989e-05
0.00107093
1.97492e-05
0.00105148
-1.92974e-05
0.00103791
-5.78039e-05
0.00102977
-9.49756e-05
0.00102843
-0.000132462
0.00103456
-0.000169157
0.00104819
-0.000204073
0.00106901
-0.00023633
0.00109649
-0.000265115
0.00113005
-0.000289781
0.0011692
-0.000309921
0.00121359
-0.000325394
0.00126308
-0.000336322
0.00131774
-0.00034307
0.00137777
-0.000346207
0.00144345
-0.000346474
0.00151505
-0.000344746
0.00159274
-0.000342001
0.00167653
-0.000339281
0.00176621
-0.000337662
0.00186142
-0.000338213
0.00196162
-0.000341962
0.00206617
-0.000349882
0.00217437
-0.000362877
0.00228541
-0.000381795
0.00239836
-0.000407443
0.00251207
-0.000440594
0.00262511
-0.00048197
0.0027357
-0.000532185
0.00284171
-0.000591633
0.00294065
-0.000660322
0.00302983
-0.000737676
0.00310641
-0.000822286
0.00316761
-0.000911876
0.00321079
-0.0010027
0.00323389
-0.00109159
0.00323527
-0.00116977
-0.00124523
0.00321468
0.000449331
-4.93357e-05
0.000955001
1.91101e-05
0.00101504
0.000252203
0.000626295
0.000518946
-5.02079e-05
0.000742704
-0.00089522
0.000907173
-0.00181724
0.000990904
-0.00273723
0.000979778
-0.00358646
0.000885886
-0.00431488
0.000747221
-0.00489144
0.000600969
-0.00531449
0.000473189
-0.00558925
0.000371557
-0.0057343
0.000290766
-0.0057738
0.000222383
-0.00573135
0.00016088
-0.00562993
0.000105485
-0.005495
5.89784e-05
-0.00535487
2.50393e-05
-0.00523783
5.33908e-06
-0.00516808
-2.3218e-06
-0.00516019
-4.29286e-06
-0.00521223
-1.00045e-05
-0.00530233
-3.02171e-05
-0.00539429
-7.31948e-05
-0.00543543
-0.000141162
-0.00538846
-0.000223637
-0.00523575
-0.000300763
-0.00497631
-0.000358698
-0.00462253
-0.000392235
-0.00419698
-0.000401488
-0.00372601
-0.000389198
-0.00323819
-0.000360811
-0.00275722
-0.000322739
-0.002299
-0.000280962
-0.0018735
-0.000240361
-0.00148555
-0.000204396
-0.00113876
-0.000175236
-0.000832835
-0.000153948
-0.000565812
-0.000140866
-0.00033785
-0.000135898
-0.000142511
-0.00013854
2.54308e-05
-0.000148193
0.000170343
-0.00016421
0.000298226
-0.000185687
0.000414718
-0.000211468
0.000522444
-0.000240188
0.000623561
-0.000270273
0.000719524
-0.000300037
0.000811157
-0.000327963
0.000898929
-0.000352887
0.000983226
-0.000374078
0.00106454
-0.000391236
0.00114356
-0.000404411
0.00122114
-0.000413908
0.00129828
-0.000420207
0.00137597
-0.000423899
0.00145516
-0.000425662
0.00153665
-0.000426236
0.00162107
-0.00042642
0.00170884
-0.000427051
0.00180017
-0.000428992
0.00189507
-0.000433108
0.00199335
-0.000440241
0.00209466
-0.000451193
0.00219848
-0.000466703
0.00230413
-0.000487442
0.0024107
-0.000514011
0.00251703
-0.00054693
0.00262168
-0.000586618
0.00272284
-0.000633344
0.00281835
-0.000687144
0.00290571
-0.000747682
0.00298213
-0.000814095
0.00304465
-0.000884809
0.00309026
-0.000957481
0.00311649
-0.00102893
0.00312082
-0.00109592
0.00310497
-0.00115392
-0.00120558
0.00306533
0.000242726
-0.000292062
0.000460605
-0.000198768
0.000425
0.000287808
0.000207928
0.000736018
-3.93971e-05
0.000990029
-0.000211516
0.00107929
-0.000260703
0.00104009
-0.000194324
0.000913399
-4.75192e-05
0.000739081
0.00014939
0.000550312
0.00037665
0.000373709
0.00062134
0.000228499
0.000866301
0.000126596
0.00109052
6.65489e-05
0.00127251
4.03928e-05
0.001394
3.93897e-05
0.0014453
5.41806e-05
0.00142773
7.65551e-05
0.00135297
9.97965e-05
0.00123899
0.000119313
0.00110504
0.00013163
0.00096794
0.00013281
0.000839023
0.000118913
0.000721582
8.72242e-05
0.000607038
4.13494e-05
0.000478114
-1.22386e-05
0.000324864
-7.03868e-05
0.000151426
-0.000127325
-2.92743e-05
-0.000177998
-0.000203378
-0.000218131
-0.000361418
-0.000243448
-0.000489352
-0.000261263
-0.000581666
-0.000268496
-0.000637752
-0.000266653
-0.000658704
-0.000260011
-0.000646936
-0.000252129
-0.000606083
-0.000245249
-0.000540913
-0.000240406
-0.000457141
-0.00023772
-0.000361246
-0.00023676
-0.000260051
-0.000237092
-0.000159752
-0.00023884
-6.49429e-05
-0.000243002
2.21907e-05
-0.000251343
0.000102061
-0.000265557
0.000176866
-0.000286273
0.00024916
-0.000312482
0.000320711
-0.000341825
0.000392147
-0.000371472
0.000463168
-0.000398985
0.000533111
-0.000422829
0.000601449
-0.000442416
0.000668075
-0.000457862
0.000733335
-0.000469671
0.000797919
-0.000478492
0.000862687
-0.000484976
0.000928522
-0.000489734
0.000996206
-0.000493346
0.00106635
-0.000496383
0.00113937
-0.000499433
0.00121543
-0.000503114
0.00129451
-0.00050807
0.00137636
-0.000514966
0.00146059
-0.000524465
0.00154661
-0.000537214
0.00163373
-0.00055382
0.00172112
-0.000574832
0.00180783
-0.000600723
0.00189277
-0.00063187
0.00197467
-0.00066852
0.00205207
-0.000710744
0.00212329
-0.000758362
0.00218646
-0.000810852
0.00223962
-0.000867254
0.00228093
-0.000926117
0.00230897
-0.00098552
0.00232334
-0.00104329
0.00232459
-0.00109718
0.00231636
-0.00114569
-0.00118747
0.00229825
-0.000529392
0.00023733
-0.00118142
0.000453255
-0.00147496
0.000581353
-0.00143108
0.000692141
-0.0011881
0.000747042
-0.000820426
0.000711621
-0.00037277
0.000592434
0.000114228
0.000426401
0.000602766
0.000250543
0.00106579
8.72923e-05
0.00149177
-5.22716e-05
0.00188556
-0.000165296
0.00226298
-0.000250821
0.00263746
-0.000307936
0.00301227
-0.000334416
0.00337782
-0.000326155
0.00370976
-0.000277767
0.00397321
-0.000186891
0.00413384
-6.08303e-05
0.00417035
8.28048e-05
0.00408105
0.000220924
0.00388182
0.000332045
0.00359845
0.000402278
0.00325943
0.000426247
0.00289488
0.000405899
0.00253428
0.000348362
0.00219902
0.000264877
0.00190322
0.000168472
0.00165275
7.24701e-05
0.00144801
-1.33951e-05
0.00128923
-8.46641e-05
0.00116961
-0.000141643
0.00108974
-0.000188623
0.00104307
-0.00021999
0.00102738
-0.000244322
0.00103752
-0.00026226
0.00106393
-0.000271661
0.00109547
-0.000271943
0.00112143
-0.000263685
0.00113332
-0.000248655
0.001126
-0.000229762
0.0010975
-0.000210345
0.00104916
-0.000194659
0.000985638
-0.000187823
0.000914081
-0.000194
0.000841644
-0.000213836
0.000773853
-0.000244691
0.000714085
-0.000282056
0.000663787
-0.000321175
0.000623073
-0.000358271
0.000591337
-0.000391093
0.000567736
-0.000418815
0.000551482
-0.000441608
0.000541966
-0.000460156
0.000538778
-0.000475304
0.000541671
-0.000487869
0.000550521
-0.000498584
0.000565282
-0.000508107
0.000585947
-0.000517048
0.000612513
-0.000526
0.000644945
-0.000535546
0.000683143
-0.000546268
0.000726918
-0.000558741
0.000775975
-0.000573522
0.000829902
-0.000591141
0.000888159
-0.000612077
0.000950071
-0.000636744
0.00101481
-0.000665461
0.00108137
-0.000698432
0.00114856
-0.000735711
0.00121499
-0.000777171
0.00127909
-0.000822464
0.00133923
-0.000870995
0.00139389
-0.00092191
0.00144189
-0.00097412
0.00148272
-0.00102635
0.00151664
-0.00107721
0.00154472
-0.00112526
0.00156815
-0.00116911
-0.00120718
0.00158786
-0.000194744
0.000432075
-0.000498881
0.000757391
-0.000722749
0.000805221
-0.000816853
0.000786245
-0.000825362
0.000755551
-0.000822121
0.00070838
-0.000868757
0.00063907
-0.000988472
0.000546117
-0.00117076
0.000432828
-0.00138852
0.000305059
-0.00160988
0.00016908
-0.00180537
3.01961e-05
-0.00194884
-0.000107345
-0.00201731
-0.000239468
-0.00199216
-0.000359569
-0.00185623
-0.000462081
-0.00161443
-0.000519571
-0.00128115
-0.000520164
-0.000878868
-0.000463116
-0.000433117
-0.000362946
3.17922e-05
-0.000243985
0.000494855
-0.000131018
0.000938507
-4.13738e-05
0.00134847
1.62811e-05
0.00171375
4.06182e-05
0.00202737
3.47436e-05
0.00228371
8.54265e-06
0.00247177
-1.95916e-05
0.00258042
-3.61765e-05
0.0026139
-4.68803e-05
0.00257604
-4.68012e-05
0.00247547
-4.10748e-05
0.00232225
-3.5406e-05
0.00213721
-3.49424e-05
0.00193269
-3.98103e-05
0.00171981
-4.93804e-05
0.00150961
-6.14585e-05
0.00131095
-7.32837e-05
0.00113022
-8.29497e-05
0.000971645
-9.00825e-05
0.000837863
-9.59801e-05
0.000730888
-0.00010337
0.000651411
-0.000115181
0.000597224
-0.000133636
0.000562871
-0.000159647
0.00054167
-0.000192635
0.000527561
-0.000230582
0.000516116
-0.000270611
0.000504745
-0.000309803
0.00049235
-0.000345876
0.000478812
-0.000377555
0.000464506
-0.00040451
0.000450013
-0.000427115
0.000435972
-0.000446115
0.000423032
-0.000462364
0.000411846
-0.000476683
0.000403079
-0.000489818
0.000397422
-0.00050245
0.000395586
-0.000515212
0.000398288
-0.000528702
0.000406225
-0.000543482
0.000420028
-0.000560071
0.000440224
-0.000578936
0.000467179
-0.000600477
0.000501055
-0.000625016
0.000541758
-0.000652781
0.000588907
-0.000683893
0.000641796
-0.00071835
0.000699384
-0.00075602
0.000760308
-0.000796636
0.000822933
-0.000839795
0.000885427
-0.000884957
0.000945884
-0.000931451
0.00100245
-0.000978471
0.00105341
-0.00102508
0.00109729
-0.00107023
0.00113283
-0.00111276
0.00115905
-0.00115149
0.00117524
-0.0011853
-0.00121345
0.00118151
0.000748263
-0.000316189
0.00176496
-0.000259303
0.00246982
0.000100354
0.00283789
0.000418175
0.00304778
0.000545664
0.00328954
0.00046662
0.00367302
0.000255587
0.00420324
1.59031e-05
0.00482422
-0.000188151
0.00546748
-0.000338202
0.00607351
-0.00043695
0.00659462
-0.000490916
0.00699286
-0.000505588
0.0072414
-0.000488005
0.00732958
-0.000447748
0.00726039
-0.00039289
0.00707006
-0.000329241
0.00680929
-0.000259397
0.00653239
-0.000186218
0.0062846
-0.000115155
0.00609513
-5.45136e-05
0.00597459
-1.04762e-05
0.00591821
1.50079e-05
0.00591063
2.38583e-05
0.00592219
2.90535e-05
0.00593325
2.36863e-05
0.00592444
1.73583e-05
0.00588755
1.72912e-05
0.00582422
2.71594e-05
0.00572774
4.95964e-05
0.00559455
8.63934e-05
0.00542049
0.000132979
0.00520361
0.000181476
0.0049427
0.000225971
0.00464169
0.000261198
0.00431477
0.000277539
0.00397953
0.000273782
0.00364988
0.000256367
0.00333832
0.000228606
0.00305364
0.000194605
0.00279945