/*--------------------------------*- C++ -*----------------------------------*\
| =========                 |                                                 |
| \\      /  F ield         | OpenFOAM: The Open Source CFD Toolbox           |
|  \\    /   O peration     | Version:  2012                                  |
|   \\  /    A nd           | Website:  www.openfoam.com                      |
|    \\/     M anipulation  |                                                 |
\*---------------------------------------------------------------------------*/
FoamFile
{
    version     2.0;
    format      ascii;
    class       volScalarField;
    location    "0.96";
    object      p;
}
// * * * * * * * * * * * * * * * * * * * * * * * * * * * * * * * * * * * * * //

dimensions      [0 2 -2 0 0 0 0];


internalField   nonuniform List<scalar> 
42400
(
2675.37
2618.24
2548.99
2469.66
2377.05
2279.87
2182.43
2088.48
2000.76
1921.21
1851.96
1796.18
1758.73
1743.67
1750.69
1769.82
1781.29
1762.63
1699.06
1589.41
1443.15
1273.36
1092.86
912.02
738.745
579.015
437.149
315.803
215.912
136.819
76.6291
32.7132
2.17344
-17.831
-29.9103
-36.3677
-39.1669
-39.9286
-39.9405
-39.6809
-39.5226
-40.0502
-41.1804
-42.7342
-44.5465
-46.4716
-48.4063
-50.2924
-52.104
-53.8284
-55.4462
-56.876
-57.9561
-58.7146
-59.0153
-58.7066
-57.6561
-55.7573
-52.9477
-49.2217
-44.6375
-39.3153
-33.4283
-27.182
-20.7947
-14.4759
-8.40652
-2.72603
2.47342
7.14485
11.2787
14.893
18.026
20.7316
23.0774
25.1424
27.0145
28.7868
30.5449
32.5223
6659.91
6697.38
6770.72
6831.27
6830.82
6731.92
6531.17
6241.51
5878.6
5458.85
4999.66
4519.12
4032.37
3549.51
3074.19
2606.49
2146.49
1697.52
1267.76
868.367
510.523
203.266
-49.5757
-248.093
-394.813
-494.134
-551.931
-575.187
-571.468
-548.272
-512.343
-469.168
-422.801
-376.008
-330.593
-287.727
-248.191
-212.554
-181.488
-155.08
-132.716
-113.676
-97.7937
-84.8543
-74.5601
-66.5927
-60.6497
-56.4553
-53.7536
-52.2924
-51.8067
-52.0083
-52.5873
-53.2643
-53.7035
-53.6172
-52.7631
-50.9562
-48.0926
-44.1631
-39.2515
-33.5229
-27.2019
-20.544
-13.8057
-7.21952
-0.974353
4.7943
10.0066
14.6333
18.6849
22.1994
25.2313
27.8454
30.1151
32.1203
33.9429
35.6605
37.3408
39.1312
-34.7773
-383.506
-888.349
-1493.9
-2179.98
-2772.58
-3200.03
-3455.38
-3565.63
-3560.84
-3459.55
-3273.07
-3014.16
-2700.42
-2352.48
-1991.02
-1634.94
-1299.85
-997.415
-734.715
-514.239
-334.428
-191.102
-79.5484
3.76011
60.577
91.7377
98.7024
84.6118
54.2931
13.4846
-32.2421
-77.9584
-119.757
-154.851
-181.547
-199.179
-207.9
-208.168
-201.393
-189.439
-173.958
-156.386
-138.002
-119.865
-102.806
-87.4448
-74.1937
-63.259
-54.6614
-48.2523
-43.743
-40.7015
-38.7049
-37.3536
-36.188
-34.8102
-32.9286
-30.3607
-27.0335
-22.9774
-18.306
-13.1862
-7.80717
-2.35259
3.0183
8.17952
13.0384
17.5309
21.6169
25.2782
28.5192
31.3656
33.862
36.0659
38.0424
39.8565
41.5677
43.2257
44.9139
-12597.6
-12010.7
-11233.2
-10299.9
-9147.94
-7882.31
-6588.17
-5354.7
-4250.11
-3313.74
-2558.87
-1980.79
-1566.27
-1294.93
-1135.5
-1049.17
-1000.43
-965.695
-934.017
-902.086
-868.825
-832.687
-791.788
-745.27
-694.207
-641.299
-589.659
-541.548
-497.798
-458.084
-421.603
-387.636
-355.725
-325.594
-297.022
-269.789
-243.702
-218.633
-194.524
-171.453
-149.557
-128.779
-109.272
-91.1626
-74.5424
-59.4866
-46.2073
-34.8112
-25.2939
-17.7532
-12.0932
-8.12612
-5.64936
-4.30236
-3.70342
-3.52754
-3.477
-3.30028
-2.81564
-1.9145
-0.553008
1.26333
3.49798
6.10028
9.01665
12.194
15.5753
19.0924
22.6598
26.1787
29.5518
32.7032
35.5916
38.2111
40.5816
42.7383
44.7225
46.5765
48.3407
50.0696
5233.26
5085.01
4881.31
4598.5
4226.19
3795.36
3320.14
2809.91
2278.96
1744.24
1216.66
695.705
177.657
-328.63
-792.434
-1169.57
-1424.64
-1545.95
-1549.6
-1468.15
-1338.7
-1191.59
-1045.99
-911.015
-789.797
-683.117
-590.987
-512.885
-447.725
-393.91
-349.458
-312.198
-280.043
-251.249
-224.561
-199.229
-174.94
-151.669
-129.534
-108.688
-89.2711
-71.3898
-55.0881
-40.3693
-27.247
-15.7837
-5.90286
2.40473
9.09605
14.3305
18.1952
20.8018
22.3015
22.8774
22.728
22.0519
21.0392
19.8661
18.6902
17.6493
16.8622
16.4292
16.4325
16.9353
17.9779
19.5712
21.6887
24.2611
27.1782
30.3019
33.4892
36.6177
39.6017
42.3943
44.9793
47.3605
49.5546
51.5892
53.4954
55.3074
3693.21
3760.7
3874.14
3974.52
4041.68
4027.67
3962.12
3893.41
3839.76
3792.29
3739.41
3673.27
3582.85
3451.48
3263.25
3009.81
2698.53
2347.84
1980.41
1614.66
1263.72
938.182
648.72
405.072
212.837
71.4242
-25.2893
-86.6297
-122.366
-140.612
-147.024
-145.228
-137.731
-126.503
-113.143
-98.8631
-84.4985
-70.5717
-57.3748
-45.0503
-33.6536
-23.196
-13.6684
-5.05681
2.64969
9.46307
15.4034
20.494
24.7597
28.2461
30.993
33.0469
34.4583
35.28
35.568
35.3828
34.7938
33.8859
32.7656
31.5625
30.4232
29.4984
28.925
28.8099
29.2179
30.1667
31.628
33.5338
35.7881
38.2818
40.9071
43.5698
46.1959
48.732
51.1431
53.4107
55.5308
57.516
59.3817
61.1491
-798.97
-888.923
-978.286
-1050.69
-1135.22
-1267.96
-1478.17
-1763.48
-2100.17
-2460.44
-2817.18
-3143.41
-3414.26
-3611.05
-3724.01
-3748.28
-3680.24
-3514.32
-3248.12
-2893.26
-2483.99
-2069.7
-1692.81
-1371.54
-1103.38
-879.248
-691.74
-536.726
-411.219
-312.087
-235.878
-178.813
-136.826
-105.923
-82.6558
-64.4141
-49.4144
-36.5353
-25.1203
-14.8149
-5.44714
3.05363
10.7102
17.5305
23.5259
28.72
33.1487
36.858
39.8976
42.317
44.1619
45.4755
46.3021
46.6931
46.7102
46.4282
45.9317
45.3106
44.653
44.0393
43.5384
43.2064
43.0877
43.2156
43.6125
44.2894
45.2441
46.4619
47.9157
49.568
51.3748
53.2818
55.2402
57.2032
59.1318
60.9982
62.7884
64.5034
66.1415
67.7242
-9321.04
-9045.09
-8706.65
-8313.94
-7856.19
-7353.54
-6811.1
-6239.94
-5651.55
-5054.84
-4457.04
-3865.3
-3286.09
-2723.78
-2180.07
-1655.83
-1157.43
-697.563
-293.923
35.4379
278.628
433.866
509.734
524.573
501.395
459.899
412.343
364.803
320.862
282.901
251.21
224.223
200.181
178.535
159.246
142.515
128.405
116.781
107.383
99.8781
93.913
89.1505
85.2904
82.0816
79.3274
76.8834
74.6523
72.5752
70.6219
68.7814
67.0533
65.4412
63.9488
62.5777
61.3277
60.1976
59.188
58.3017
57.5449
56.9267
56.458
56.1511
56.0185
56.0724
56.3225
56.7747
57.4288
58.2779
59.3069
60.4928
61.8063
63.2134
64.6795
66.1727
67.6667
69.1427
70.5904
72.0083
73.3859
74.7566
8395.35
8323.66
8228.03
8104.85
7943.9
7795.73
7653.31
7481.52
7242.87
6913.18
6483.48
5958.82
5358.47
4714.74
4065.32
3445.54
2881.75
2388.98
1972.24
1629.31
1352.42
1130.93
952.83
808.449
690.637
592.28
505.742
425.87
352.446
288.734
237.852
200.755
175.973
160.656
151.659
146.232
142.792
140.014
137.187
133.943
130.132
125.76
120.928
115.789
110.509
105.247
100.139
95.2893
90.7744
86.6406
82.9116
79.5935
76.6798
74.1556
72.0011
70.1936
68.71
67.5275
66.6251
65.9831
65.5834
65.409
65.4434
65.6708
66.0751
66.6405
67.3501
68.1863
69.1304
70.163
71.2648
72.4171
73.6029
74.8078
76.0197
77.23
78.4333
79.6273
80.7996
81.9958
11085
10789.9
10347.5
9681.04
8736.07
7627.64
6446.1
5252.19
4079.05
2951.09
1896.05
945.897
129.839
-533.605
-1039.66
-1394.69
-1610.5
-1702.99
-1691.68
-1599.61
-1451.39
-1269.89
-1071.39
-861.702
-647.37
-440.294
-258.706
-115.926
-12.9156
58.2367
106.989
140.742
164.033
179.293
187.876
190.767
188.939
183.425
175.277
165.486
154.91
144.23
133.941
124.367
115.692
107.996
101.282
95.5104
90.608
86.4883
83.0612
80.2406
77.9496
76.1212
74.6982
73.6311
72.876
72.3942
72.1513
72.1168
72.2641
72.5698
73.0137
73.5778
74.2463
75.0048
75.8402
76.7402
77.6935
78.6895
79.7181
80.7702
81.8376
82.9132
83.9907
85.0657
86.1348
87.1954
88.2366
89.3115
-17947.8
-17414.7
-16762.4
-16030.1
-15240.1
-14394.2
-13456.9
-12388.9
-11160.8
-9769.61
-8246.3
-6651.21
-5064.83
-3577.08
-2272.07
-1210.11
-414.71
124.595
442.614
590.003
623.32
598.359
555.993
511.342
463.953
413.873
364.417
319.716
282.481
252.913
230.166
212.371
197.926
185.748
175.064
165.255
155.831
146.466
137.056
127.709
118.67
110.224
102.605
95.9578
90.3288
85.6908
81.9658
79.0488
76.8253
75.1844
74.0268
73.2699
72.8477
72.7082
72.8091
73.1144
73.5921
74.213
74.951
75.7834
76.6906
77.6565
78.6678
79.7137
80.7853
81.8753
82.9773
84.0862
85.1971
86.3057
87.4082
88.5013
89.5821
90.6481
91.6975
92.7285
93.7404
94.7318
95.6954
96.6882
6771.66
6591.98
6355.02
6030.88
5543.22
4982.41
4399.29
3843.12
3355.4
2958.88
2653.78
2415.11
2205.78
1993.3
1756.98
1487.06
1184.32
858.926
528.695
218.386
-39.711
-214.431
-293.031
-293.401
-250.638
-196.619
-146.037
-103.712
-70.4484
-45.1357
-26.7581
-15.069
-8.6466
-5.65902
-4.39122
-3.67145
-3.03863
-2.48959
-2.00714
-1.282
0.182341
2.78028
6.61464
11.5064
17.1195
23.0876
29.0972
34.9177
40.4026
45.4732
50.1029
54.3024
58.1062
61.5602
64.7128
67.6085
70.2851
72.7731
75.0966
77.2746
79.3226
81.2535
83.0785
84.8071
86.4481
88.0091
89.4971
90.9181
92.2776
93.5801
94.8298
96.0301
97.1839
98.2937
99.3615
100.389
101.379
102.332
103.244
104.173
6942.15
7200.79
7591.4
7979.02
8291.19
8480.84
8550.73
8468.62
8207.14
7787.58
7268.47
6709.51
6150.97
5611.22
5092.3
4589.69
4097.17
3607.46
3112.31
2605.06
2086.25
1573.78
1109.6
742.684
495.901
353.706
278.655
233.313
192.193
143.286
86.4267
28.7644
-23.2429
-64.6975
-91.2511
-101.775
-98.0778
-84.7726
-67.2869
-49.7504
-34.3135
-21.5313
-11.0813
-2.3377
5.30379
12.2432
18.8814
25.3076
31.5653
37.6382
43.4764
49.0258
54.2438
59.1074
63.6095
67.7575
71.569
75.0672
78.2786
81.23
83.9476
86.4558
88.7766
90.9297
92.9323
94.7996
96.5448
98.1795
99.7137
101.156
102.514
103.795
105.003
106.145
107.223
108.244
109.208
110.121
110.979
111.842
-38.9145
-400.207
-908.808
-1554.99
-2398.61
-3296.42
-4110.35
-4692.44
-4960.69
-4948.73
-4758.97
-4476.09
-4135.45
-3753.46
-3354.92
-2968.83
-2614.4
-2298.86
-2023.45
-1787.71
-1589.08
-1421.08
-1274.32
-1138.39
-1005.14
-874.17
-750.655
-640.384
-547.041
-471.397
-411.723
-365.627
-330.524
-303.338
-281.607
-262.426
-243.571
-223.306
-200.747
-176.134
-150.51
-125.116
-100.917
-78.4272
-57.8001
-38.9956
-21.9133
-6.46088
7.43905
19.8624
30.8954
40.6406
49.2162
56.7496
63.3694
69.1986
74.3496
78.9219
83.0011
86.6593
89.9567
92.9429
95.6586
98.1374
100.407
102.492
104.412
106.183
107.822
109.34
110.75
112.059
113.277
114.41
115.465
116.447
117.361
118.21
118.996
119.774
-13978.8
-13255.9
-12342.2
-11338.8
-10180.5
-9040.02
-8058.12
-7323.62
-6840.99
-6568.29
-6422.91
-6296.26
-6127.99
-5933.15
-5732.86
-5513.07
-5255.98
-4959.51
-4626.82
-4263.59
-3882.71
-3500.37
-3130.25
-2782.53
-2464.52
-2178.58
-1922.07
-1689.58
-1475.68
-1277.64
-1095.35
-929.999
-782.613
-653.414
-541.839
-446.579
-365.948
-298.129
-241.29
-193.653
-153.562
-119.551
-90.386
-65.0719
-42.848
-23.1636
-5.64809
9.9315
23.7239
35.8438
46.4122
55.5746
63.4984
70.3595
76.3272
81.5526
86.1639
90.2657
93.9418
97.2586
100.269
103.015
105.53
107.843
109.974
111.943
113.765
115.452
117.015
118.462
119.803
121.043
122.188
123.245
124.219
125.113
125.934
126.683
127.365
128.029
3248.76
3153.76
3034.09
2907.14
2775.23
2646.63
2493.76
2294.14
2054.45
1799.92
1563.2
1374.26
1244.67
1160.45
1093.51
1024.54
952.162
883.349
823.53
773.832
731.392
691.233
648.118
599.349
544.313
485.001
425.153
368.311
316.696
270.361
226.844
183.121
137.464
90.5997
45.3396
5.03887
-27.4312
-50.4498
-63.76
-68.1928
-65.2603
-56.744
-44.3588
-29.5551
-13.4673
3.02503
19.2
34.4371
48.2319
60.2529
70.3858
78.7245
85.5102
91.048
95.6361
99.5245
102.903
105.907
108.629
111.128
113.445
115.606
117.629
119.526
121.306
122.973
124.534
125.991
127.349
128.61
129.778
130.855
131.845
132.751
133.576
134.324
134.998
135.601
136.136
136.648
9077.16
8981.73
8873.94
8728.79
8533.55
8299.38
8034.22
7744.36
7434.37
7107.44
6766.5
6413.5
6050.4
5681.61
5314.06
4955.1
4609.89
4280.51
3966.31
3664.37
3370.21
3078.87
2786.82
2492.32
2197.6
1907.25
1627.41
1365.61
1127.63
916.998
735.065
581.247
453.763
350.294
268.223
204.929
157.636
123.638
100.399
85.5776
77.0523
73.0403
72.1899
73.6377
76.933
81.8134
87.9402
94.7528
101.538
107.647
112.687
116.575
119.455
121.572
123.172
124.457
125.573
126.618
127.653
128.708
129.797
130.92
132.068
133.229
134.389
135.535
136.653
137.73
138.757
139.725
140.628
141.462
142.225
142.915
143.532
144.078
144.555
144.965
145.311
145.63
-2031.01
-1992.3
-1955.27
-1918.04
-1874.34
-1825.98
-1780.92
-1751.17
-1747.73
-1779.01
-1848.86
-1953.38
-2079.99
-2206.87
-2306.25
-2351.94
-2326.74
-2225.62
-2054.96
-1830.45
-1574.98
-1315.86
-1078.23
-876.627
-712.596
-577.601
-460.675
-354.109
-253.565
-157.633
-67.1047
15.9132
88.8843
149.594
196.867
230.593
251.677
261.356
261.651
255.083
243.489
228.884
213.268
198.317
185.367
175.237
168.136
163.698
161.128
159.489
158.004
156.248
154.154
151.892
149.713
147.83
146.374
145.388
144.855
144.719
144.909
145.349
145.971
146.713
147.525
148.367
149.207
150.02
150.79
151.503
152.153
152.733
153.242
153.68
154.048
154.347
154.58
154.75
154.861
154.942
-6187.11
-6193.45
-6171.93
-6079.73
-5890.75
-5620.06
-5303.01
-4978.72
-4676.61
-4415.06
-4205.44
-4052.3
-3951.42
-3887.74
-3837.05
-3773.77
-3680.05
-3548.19
-3375.03
-3149.71
-2860.48
-2517.73
-2164.01
-1847.26
-1585.51
-1366.66
-1172.64
-993.329
-825.084
-667.115
-520.103
-385.559
-265.1
-160.065
-71.239
1.79956
59.5184
103.388
135.12
156.581
170.349
178.296
181.757
181.847
179.371
175.07
169.732
164.172
159.104
155.015
152.1
150.316
149.48
149.375
149.803
150.604
151.65
152.843
154.105
155.377
156.618
157.799
158.903
159.92
160.843
161.67
162.402
163.039
163.583
164.037
164.404
164.689
164.895
165.028
165.091
165.089
165.028
164.911
164.743
164.545
-2663.5
-2493.09
-2240.12
-1936.85
-1601.88
-1311.3
-1072.14
-854.494
-632.01
-401.128
-171.283
50.0238
263.863
480.535
703.681
918.293
1101.82
1240.77
1332.71
1373.88
1357.38
1279.92
1148.06
980.222
799.846
627.338
478.136
362.686
282.493
231.141
198.93
177.272
160.45
145.473
131.157
116.672
101.91
87.1546
73.021
60.5607
51.2843
46.8095
48.1114
54.8286
65.2958
77.4271
89.6715
101.294
112.056
121.857
130.608
138.254
144.813
150.365
155.032
158.95
162.244
165.027
167.388
169.396
171.103
172.549
173.763
174.769
175.586
176.232
176.723
177.072
177.292
177.398
177.4
177.311
177.14
176.896
176.59
176.227
175.816
175.362
174.871
174.353
-6233.39
-5941.57
-5515.27
-4978.9
-4295.25
-3617.26
-3053.36
-2639.97
-2307.75
-1961.43
-1580.48
-1211.84
-899.908
-651.054
-454.845
-304.723
-199.877
-135.571
-100.354
-85.7992
-85.0493
-88.6537
-88.4685
-79.5571
-60.637
-32.8037
1.89738
40.3777
78.2344
109.829
128.627
128.828
108.092
67.4685
11.7285
-51.7581
-113.715
-166.316
-205.37
-230.258
-242.787
-244.023
-235.715
-219.656
-199.188
-177.25
-156.266
-137.99
-123.344
-112.509
-105.168
-100.769
-98.7089
-98.4276
-99.4345
-101.591
-104.21
-107.044
-109.911
-112.662
-115.23
-117.594
-119.723
-121.519
-122.832
-123.532
-123.574
-123.014
-121.968
-120.557
-118.875
-116.989
-114.941
-112.762
-110.48
-108.119
-105.698
-103.238
-100.754
-98.2662
13919.1
13846.1
13694.4
13309.9
12561.6
11426.7
10015.2
8612.24
7492.26
6689.31
6055.25
5475.14
4954.88
4529.63
4167.71
3801.98
3417.92
3080.71
2834.31
2609.5
2334.78
2038.35
1767.08
1527.77
1317.43
1136.75
987.55
870.269
782.248
713.948
652.694
587.904
513.554
426.513
328.173
223.494
119.393
23.0596
-59.6879
-125.006
-170.444
-195.821
-203.669
-199.314
-187.066
-171.633
-155.982
-141.844
-130.038
-120.766
-113.893
-109.115
-106.112
-104.591
-104.277
-104.792
-106.157
-108.204
-110.74
-113.532
-116.297
-118.741
-120.632
-121.849
-122.384
-122.302
-121.692
-120.645
-119.24
-117.547
-115.629
-113.538
-111.32
-109.011
-106.639
-104.225
-101.785
-99.3326
-96.8748
-94.4288
-7717.47
-7401.86
-6984.46
-6496.37
-5875.57
-5189.94
-4486.77
-3805.08
-3164.51
-2578.46
-2055.22
-1597.73
-1205.06
-869.747
-580.949
-329.183
-104.432
94.6557
253.014
340.016
342.489
282.061
187.972
80.362
-28.0279
-126.909
-207.897
-266.102
-299.51
-307.811
-293.743
-262.313
-219.923
-174.268
-133.346
-103.276
-86.9979
-83.6846
-89.8598
-101.135
-113.854
-126.286
-136.833
-144.754
-150.298
-152.943
-153.129
-151.539
-148.82
-145.533
-142.126
-138.947
-136.233
-134.132
-132.68
-131.784
-131.333
-131.166
-131.118
-131.052
-130.872
-130.499
-129.863
-128.906
-127.597
-125.936
-123.955
-121.704
-119.241
-116.625
-113.914
-111.157
-108.396
-105.66
-102.969
-100.33
-97.7448
-95.21
-92.7194
-90.2774
-2501.55
-2745.51
-3098.44
-3511.94
-3943.07
-4271.02
-4449.35
-4485.48
-4415.69
-4270.01
-4061.82
-3801.3
-3506.04
-3199.77
-2904.42
-2630.63
-2377.8
-2147.08
-1948.69
-1797.13
-1700.29
-1652.51
-1638.36
-1639.59
-1639.55
-1626.48
-1593.39
-1535.83
-1454.43
-1354.49
-1244.82
-1135.32
-1033.12
-940.521
-856.011
-777.151
-702.639
-632.601
-567.849
-509.094
-456.693
-410.636
-370.449
-335.812
-306.121
-280.711
-258.955
-240.298
-224.274
-210.388
-198.292
-187.896
-179.011
-171.466
-165.104
-159.772
-155.303
-151.515
-148.225
-145.26
-142.472
-139.743
-136.988
-134.153
-131.208
-128.14
-124.956
-121.672
-118.319
-114.935
-111.563
-108.248
-105.027
-101.926
-98.9593
-96.1255
-93.4142
-90.8094
-88.2934
-85.8578
2089.18
1935.04
1703.5
1391.25
950.85
444.899
-87.6433
-611.295
-1104.45
-1557.74
-1964.9
-2319.22
-2615.16
-2850.48
-3026.82
-3148.95
-3219.78
-3242.08
-3217.13
-3146.93
-3034.98
-2886.53
-2708.66
-2507.43
-2289.89
-2063.1
-1834.59
-1612.97
-1406.04
-1219.5
-1056.72
-918.486
-802.585
-704.463
-619.862
-546.53
-484.844
-435.76
-398.953
-372.397
-353.053
-337.879
-324.675
-311.901
-298.884
-285.53
-271.99
-258.502
-245.318
-232.76
-221.012
-210.036
-199.911
-190.68
-182.344
-174.873
-168.204
-162.251
-156.911
-152.07
-147.618
-143.449
-139.473
-135.61
-131.795
-127.981
-124.14
-120.265
-116.372
-112.491
-108.669
-104.955
-101.393
-98.0143
-94.8312
-91.8387
-89.0181
-86.3445
-83.7928
-81.3441
-5761.6
-5504.3
-5152.73
-4691.07
-4106.92
-3472.45
-2843.39
-2251.05
-1708.16
-1228.12
-829.262
-527.012
-325.025
-214.213
-176.632
-190.542
-234.994
-293.186
-354.231
-410.607
-455.254
-481.322
-484.175
-464.16
-425.227
-376.122
-329.865
-297.451
-283.809
-287.471
-302.942
-324.08
-345.903
-363.916
-376.22
-381.727
-379.572
-370.296
-356.11
-340.016
-324.559
-311.042
-299.594
-289.704
-280.743
-272.167
-263.601
-254.817
-245.987
-236.822
-227.416
-217.916
-208.479
-199.274
-190.458
-182.163
-174.478
-167.448
-161.064
-155.273
-149.988
-145.095
-140.474
-136.014
-131.625
-127.247
-122.857
-118.462
-114.092
-109.791
-105.607
-101.588
-97.7724
-94.1827
-90.8261
-87.6926
-84.76
-81.9997
-79.384
-76.889
10175.5
9949.16
9620.09
9188.42
8686.97
8186.88
7689.89
7176.9
6647.13
6120.7
5619.7
5155.98
4731.63
4345.86
3994.84
3669.8
3360.57
3057.34
2752.65
2445.15
2136.04
1820.26
1492.31
1162.65
855.923
591.099
372.688
197.218
59.9704
-44.0788
-121.037
-176.756
-214.862
-238.277
-248.835
-250.013
-246.572
-242.703
-240.989
-242.127
-245.444
-249.666
-253.551
-256.205
-257.137
-256.169
-253.341
-248.998
-242.888
-235.564
-227.318
-218.442
-209.256
-200.072
-191.171
-182.774
-175.031
-168.007
-161.682
-155.968
-150.725
-145.795
-141.029
-136.311
-131.572
-126.791
-121.987
-117.2
-112.48
-107.872
-103.415
-99.1387
-95.069
-91.2241
-87.6131
-84.2342
-81.0741
-78.1108
-75.3192
-72.676
-3347.08
-3302.36
-3218.07
-3030.56
-2696.18
-2193.94
-1559.07
-904.748
-333.433
129.114
483.56
729.462
884.165
969.089
994.795
970.679
911.588
828.724
722.395
586.429
421.084
243.332
81.0225
-43.4333
-122.108
-159.48
-166.594
-155.981
-138.488
-121.772
-110.44
-106.879
-111.638
-123.516
-140.184
-159.295
-179.023
-198.027
-215.285
-230.023
-241.72
-250.12
-255.237
-257.309
-256.71
-253.833
-249.029
-242.601
-235.092
-226.835
-218.15
-209.351
-200.727
-192.523
-184.92
-178.019
-171.831
-166.283
-161.235
-156.505
-151.902
-147.257
-142.454
-137.443
-132.242
-126.915
-121.555
-116.25
-111.069
-106.059
-101.243
-96.6349
-92.2489
-88.0996
-84.2003
-80.5569
-77.1635
-74.0021
-71.047
-68.2751
-9623.99
-9306.97
-8925.7
-8560.84
-8239.74
-8053.53
-8014.6
-8075.87
-8109.81
-7970.19
-7624.48
-7137.19
-6576.4
-5964.21
-5300.29
-4589.99
-3850.33
-3107.78
-2394.24
-1745.92
-1204.41
-810.322
-585.366
-516.446
-558.33
-654.095
-757.778
-843.774
-902.523
-932.168
-933.671
-909.93
-865.939
-807.803
-741.321
-671.363
-601.852
-535.833
-475.467
-422.01
-375.922
-337.056
-304.777
-278.295
-257.405
-240.555
-226.832
-215.441
-205.821
-197.551
-190.331
-183.965
-178.328
-173.334
-168.899
-164.914
-161.233
-157.679
-154.07
-150.25
-146.112
-141.607
-136.75
-131.607
-126.278
-120.881
-115.521
-110.282
-105.215
-100.342
-95.6683
-91.1924
-86.9183
-82.8566
-79.0211
-75.4214
-72.0567
-68.9145
-65.9748
-63.2231
5542.25
5398.44
5245.69
5034.87
4688.93
4209.15
3566.05
2742.71
1851.98
1109.59
610.128
252.187
-95.9968
-482.176
-892.822
-1302.58
-1699.99
-2080.81
-2437.59
-2758.91
-3024.51
-3213.23
-3312.57
-3319.2
-3236.57
-3073.01
-2842.87
-2564.96
-2256.47
-1933.89
-1619.89
-1336.73
-1098.51
-905.318
-750.47
-626.784
-528.212
-449.846
-387.757
-338.782
-300.39
-270.962
-248.961
-232.293
-218.824
-208.055
-199.23
-191.597
-184.677
-178.202
-172.04
-166.15
-160.542
-155.27
-150.407
-145.996
-141.998
-138.28
-134.662
-130.969
-127.087
-122.975
-118.663
-114.224
-109.748
-105.313
-100.975
-96.7643
-92.687
-88.7396
-84.9157
-81.2148
-77.6439
-74.2163
-70.9459
-67.8419
-64.9048
-62.1267
-59.4981
-57.0215
-3541.28
-3419.34
-3209.98
-2855.73
-2375.06
-1899.54
-1467.26
-1042.23
-630.654
-270.496
29.5642
274.326
457.958
573.794
629.565
641.134
625.493
594.28
546.792
475.541
375.592
247.319
95.0671
-70.8507
-234.834
-381.201
-499.968
-587.311
-643.121
-670.155
-673.228
-657.895
-629.637
-593.545
-553.948
-513.92
-474.656
-436.894
-401.414
-368.702
-339.015
-311.972
-287.404
-265.609
-246.081
-228.249
-211.633
-195.879
-180.85
-166.673
-153.698
-142.317
-132.774
-125.037
-118.835
-113.794
-109.588
-105.934
-102.688
-99.7389
-96.9997
-94.3997
-91.8796
-89.3933
-86.909
-84.4072
-81.8777
-79.3174
-76.7282
-74.1171
-71.4955
-68.8787
-66.2843
-63.7302
-61.232
-58.8016
-56.4454
-54.1661
-51.9694
-49.8808
-1958.22
-1844.88
-1714.8
-1598.99
-1436.98
-1232.27
-1001.56
-770.83
-552.816
-342.307
-125.347
105.518
345.193
580.575
791.92
961.001
1080.48
1156.67
1199.07
1210.42
1190.75
1141.03
1063.88
959.953
829.376
673.938
498.212
310.731
123.078
-52.9261
-207.057
-331.553
-422.461
-480.93
-512.107
-522.636
-518.866
-505.717
-485.153
-458.44
-426.303
-389.296
-348.519
-305.717
-262.889
-222.132
-185.371
-154.243
-129.596
-111.273
-98.3286
-89.475
-83.5033
-79.48
-76.743
-74.8292
-73.4217
-72.3169
-71.3965
-70.5894
-69.8423
-69.1067
-68.336
-67.4902
-66.5383
-65.4616
-64.2523
-62.9122
-61.4499
-59.8792
-58.2169
-56.4812
-54.6908
-52.8641
-51.018
-49.1678
-47.3259
-45.5035
-43.7165
-42.0185
103.608
12.3931
-86.3923
-165.321
-231.565
-284.907
-346.821
-432.707
-543.731
-668.491
-789.806
-893.46
-975.084
-1042.9
-1101.31
-1116.74
-1035.28
-858.961
-654.107
-472.625
-314.341
-158.993
3.32752
170.626
336.284
491.459
625.945
730.068
797.892
830.564
835.452
820.886
792.447
753.336
705.735
651.013
589.698
523.13
452.268
378.877
306.432
238.555
177.923
126.407
84.6406
52.4464
28.4628
11.0242
-1.67253
-11.1455
-18.449
-24.214
-28.7943
-32.4249
-35.319
-37.6844
-39.696
-41.4695
-43.06
-44.478
-45.7103
-46.7358
-47.5355
-48.0965
-48.4132
-48.4876
-48.3278
-47.947
-47.3624
-46.5939
-45.6632
-44.5928
-43.4049
-42.1223
-40.766
-39.3559
-37.9106
-36.4469
-34.9875
-33.6225
1348.98
1457.92
1635.77
1902.76
2263.35
2668.01
3045.9
3351.85
3572.4
3703.03
3736.62
3649.3
3392.4
2944.52
2382.12
1833.47
1361.36
951.148
586.385
278.847
44.1503
-112.027
-192.226
-204.987
-162.808
-78.1266
37.4116
172.407
314.456
448.795
560.203
637.747
677.859
683.679
661.508
619.246
564.911
505.303
445.412
388.531
335.994
288.48
246.113
208.676
175.818
147.132
122.17
100.488
81.6607
65.2734
50.9435
38.3425
27.2145
17.3768
8.70161
1.09159
-5.54075
-11.282
-16.2174
-20.4262
-23.979
-26.9366
-29.3514
-31.2699
-32.735
-33.7871
-34.4654
-34.8085
-34.854
-34.6383
-34.1964
-33.5611
-32.7626
-31.829
-30.7854
-29.6552
-28.46
-27.2172
-25.9491
-24.7788
9863.5
9513.52
9044.21
8448.09
7679.42
6883.95
6117.37
5384.51
4689.79
4063.78
3537.92
3113.81
2765.12
2463.66
2203.16
1992.51
1827.06
1682.54
1539.73
1395.03
1252.16
1114.21
983.625
862.856
754.345
660.584
583.228
522.162
475.392
439.542
410.718
385.575
361.761
337.798
313.636
289.479
265.524
242.181
219.961
199.274
180.287
162.968
147.203
132.843
119.707
107.608
96.364
85.8044
75.775
66.1518
56.8601
47.884
39.257
31.0403
23.302
16.103
9.48985
3.49171
-1.87782
-6.61862
-10.7364
-14.2495
-17.1821
-19.5653
-21.436
-22.8358
-23.8096
-24.4035
-24.6636
-24.6343
-24.3573
-23.8706
-23.2078
-22.3981
-21.4656
-20.4309
-19.3101
-18.1066
-16.8062
-15.506
514.144
533.702
561.414
589.489
604.434
616.342
624.824
603.973
537.108
459.639
439.819
501.889
602.125
677.971
699.161
674.244
627.986
579.511
534.452
492.754
453.258
415.042
377.5
340.387
304.061
269.594
238.514
212.205
191.364
175.807
164.741
157.024
151.503
147.267
143.678
140.28
136.659
132.462
127.445
121.468
114.509
106.682
98.2202
89.453
80.7531
72.4638
64.8144
57.8635
51.5102
45.5666
39.8355
34.2038
28.635
23.1555
17.825
12.7137
7.88915
3.41114
-0.671238
-4.32047
-7.51111
-10.2303
-12.4773
-14.2633
-15.6098
-16.5471
-17.1125
-17.3471
-17.2943
-16.9968
-16.4948
-15.8248
-15.0179
-14.0999
-13.0905
-12.0043
-10.8496
-9.61632
-8.26644
-6.90196
-9189.36
-8695.38
-8032.57
-7252.74
-6332.49
-5426.2
-4618.91
-3943.96
-3381.23
-2889.17
-2439.18
-2032.05
-1680.15
-1386.33
-1144.24
-944.44
-777.82
-637.622
-519.437
-420.115
-337.081
-268.308
-212.138
-167.223
-132.159
-105.558
-85.9667
-71.8594
-61.7714
-54.3849
-48.6098
-43.6035
-38.7772
-33.7518
-28.3184
-22.4525
-16.2485
-9.87425
-3.5367
2.55161
8.19147
13.2051
17.4421
20.7896
23.1837
24.616
25.129
24.8008
23.7274
22.0134
19.7641
17.0862
14.0879
10.8779
7.56393
4.25078
1.0375
-1.98569
-4.74068
-7.16433
-9.21062
-10.8517
-12.0781
-12.8969
-13.3306
-13.4129
-13.1863
-12.6978
-11.9958
-11.1268
-10.1331
-9.05114
-7.91053
-6.73375
-5.53696
-4.33149
-3.12523
-1.90933
-0.665613
0.461815
2453.78
2153.03
1733.83
1229.09
615.662
17.6639
-495.083
-881.399
-1137.3
-1286.64
-1366.18
-1406.7
-1418.24
-1400.66
-1356.68
-1291.33
-1209.3
-1115.71
-1016.7
-919.313
-830.189
-753.616
-690.852
-640.26
-598.514
-561.679
-526.279
-489.704
-450.645
-408.85
-364.874
-319.745
-274.667
-230.816
-189.218
-150.712
-115.924
-85.2744
-58.9886
-37.117
-19.5647
-6.11341
3.56898
9.91877
13.4611
14.7691
14.403
12.8592
10.5418
7.75908
4.7344
1.62816
-1.44301
-4.39079
-7.14342
-9.63912
-11.823
-13.6471
-15.0721
-16.0699
-16.627
-16.7458
-16.4455
-15.7617
-14.7428
-13.4473
-11.9387
-10.281
-8.53476
-6.75392
-4.98317
-3.25701
-1.59953
-0.0252446
1.45897
2.851
4.15178
5.37807
6.54801
7.50088
2836.85
2864.5
2901.96
2915.51
2882.63
2790.43
2646.95
2467.39
2262.85
2037.61
1793.7
1536.42
1275.1
1019.43
774.702
539.445
309.424
84.1155
-131.131
-326.851
-493.224
-622.765
-710.817
-755.525
-758.649
-725.853
-665.344
-586.321
-497.804
-407.66
-321.971
-244.847
-178.587
-124.008
-80.8264
-48.0236
-24.1533
-7.6033
3.20299
9.65586
12.8773
13.72
12.9302
10.9053
8.0284
4.63658
0.987543
-2.73072
-6.38894
-9.87525
-13.1943
-16.3078
-19.1755
-21.7467
-23.9641
-25.7642
-27.0832
-27.8656
-28.0709
-27.6803
-26.7009
-25.1671
-23.1393
-20.6993
-17.9443
-14.9783
-11.9046
-8.81812
-5.80086
-2.91825
-0.217815
2.27038
4.5322
6.56678
8.38253
9.99178
11.407
12.6492
13.7323
14.4928
-4628.81
-4525.92
-4398.25
-4241.5
-4048.53
-3834.28
-3606.05
-3369.34
-3127.68
-2882.12
-2630.69
-2367.56
-2083.28
-1767.36
-1414.39
-1031.37
-639.929
-269.198
56.8124
326.537
539.576
700.604
815.747
890.811
930.367
938.043
917.657
873.769
811.542
736.384
653.529
567.694
482.825
401.981
327.334
260.263
201.509
151.316
109.671
76.1081
49.9189
30.0655
15.1978
4.15734
-4.15569
-10.6405
-15.943
-20.4948
-24.5667
-28.3352
-31.795
-34.9731
-37.9032
-40.3694
-42.2795
-43.5421
-44.0671
-43.7862
-42.663
-40.7012
-37.9461
-34.4766
-30.438
-25.9708
-21.2391
-16.407
-11.6247
-7.01849
-2.68579
1.30672
4.9207
8.14252
10.9792
13.454
15.6013
17.4595
19.0629
20.439
21.5726
22.2371
-93.663
-87.4864
-82.197
-77.794
-74.1559
-71.1415
-68.6197
-66.4729
-64.5981
-62.9074
-61.3276
-59.8004
-58.2815
-56.7449
-55.1776
-53.5612
-51.8555
-49.9998
-47.9497
-45.7057
-43.3128
-40.8387
-38.3512
-35.9052
-33.5384
-31.273
-29.1196
-27.0812
-25.1576
-23.348
-21.6523
-20.0719
-18.6085
-17.2634
-16.0364
-14.9252
-13.9261
-13.0344
-12.2452
-11.5541
-10.9568
-10.4497
-10.0298
-9.69433
-9.44135
-9.26944
-9.17801
-9.16744
-9.23915
-9.39572
-9.64071
-9.97817
-10.4116
-10.9431
-11.5727
-12.299
-13.1197
-14.0313
-15.0274
-16.0971
-17.2222
-18.3748
-19.516
-20.5961
-21.5584
-22.3451
-22.9044
-23.1955
-23.1922
-22.8859
-22.2812
-21.3976
-20.2684
-18.9403
-17.4706
-15.9233
-14.3619
-12.8426
-11.4096
-10.093
-8.91012
-7.86842
-6.96722
-6.19919
-5.55143
-5.00717
-4.54838
-4.15831
-3.82323
-3.53288
-3.28003
-3.05976
-2.86889
-2.70556
-2.56873
-2.45779
-2.37223
-2.3116
-2.27544
-2.26346
-2.27547
-2.31148
-2.3717
-2.45666
-2.56724
-2.70471
-2.87077
-3.06759
-3.29788
-3.5649
-3.87235
-4.22422
-4.62463
-5.07763
-5.58703
-6.15617
-6.78759
-7.48274
-8.24166
-9.06276
-9.94264
-10.876
-11.8558
-12.8732
-13.9179
-14.9783
-16.0415
-17.0939
-18.1208
-19.1074
-20.0382
-20.8978
-21.671
-22.3432
-22.9007
-23.3316
-23.6259
-23.7759
-23.7777
-23.6312
-23.3392
-22.9084
-22.3483
-21.6716
-20.8928
-20.0283
-19.0955
-18.1118
-17.0941
-16.0582
-15.0184
-13.987
-12.9749
-11.9909
-11.0426
-10.1359
-9.27577
-8.46547
-7.70705
-7.00117
-6.34717
-5.74333
-5.18715
-4.67569
-4.20584
-3.77454
-3.37891
-3.01626
-2.68413
-2.38023
-2.10242
-1.84871
-1.61724
-1.40627
-1.21419
-1.03951
-0.880886
-0.737091
-0.607012
-0.489641
-0.384064
-0.289465
-0.205123
-0.130407
-0.0647647
-0.00769534
0.0412395
0.0824581
0.116273
0.143025
0.162815
0.176015
0.182341
0.182619
0.175533
0.163609
0.142191
0.119523
0.0797613
0.0484877
-89.9694
-83.9825
-78.8571
-74.5941
-71.0803
-68.1774
-65.7571
-63.7053
-61.9214
-60.3183
-58.823
-57.3761
-55.9306
-54.4575
-52.9445
-51.3847
-49.7589
-48.0193
-46.1172
-44.0353
-41.801
-39.4721
-37.1138
-34.7821
-32.5165
-30.3404
-28.2647
-26.2926
-24.4238
-22.658
-20.9967
-19.4431
-18.0014
-16.6751
-15.4657
-14.3721
-13.3911
-12.5186
-11.7497
-11.08
-10.5053
-10.022