/*--------------------------------*- C++ -*----------------------------------*\
| =========                 |                                                 |
| \\      /  F ield         | OpenFOAM: The Open Source CFD Toolbox           |
|  \\    /   O peration     | Version:  2012                                  |
|   \\  /    A nd           | Website:  www.openfoam.com                      |
|    \\/     M anipulation  |                                                 |
\*---------------------------------------------------------------------------*/
FoamFile
{
    version     2.0;
    format      ascii;
    class       volVectorField;
    location    "0.96";
    object      U;
}
// * * * * * * * * * * * * * * * * * * * * * * * * * * * * * * * * * * * * * //

dimensions      [0 1 -1 0 0 0 0];


internalField   nonuniform List<vector> 
42400
(
(2.75718 -3.13074 2.39695e-17)
(0.386589 -1.82466 3.50589e-17)
(-6.63733 4.54334 -3.56217e-17)
(-11.6582 9.34705 0)
(-11.8158 11.1059 0)
(-9.31674 11.4162 -5.18866e-19)
(-5.86583 11.6108 0)
(-2.65433 12.3813 5.00505e-19)
(-0.33033 13.9724 0)
(0.825599 16.4085 4.62067e-19)
(0.724452 19.6197 4.37726e-19)
(-0.588237 23.4473 -4.11614e-19)
(-2.85733 27.5474 -2.98085e-17)
(-5.47266 31.2495 3.04052e-17)
(-7.38368 33.4813 -3.33738e-19)
(-7.37526 33.0551 0)
(-4.77987 29.3918 0)
(0.0171887 23.076 0)
(5.7942 15.5832 0)
(11.214 8.4425 0)
(15.4062 2.61868 0)
(18.0685 -1.57442 -2.31831e-19)
(19.2746 -4.225 -2.06584e-17)
(19.2644 -5.57248 3.56317e-18)
(18.3149 -5.88516 1.73864e-17)
(16.6909 -5.42612 -1.41444e-20)
(14.6423 -4.45126 1.93893e-20)
(12.4076 -3.20879 -8.87848e-20)
(10.2038 -1.92267 0)
(8.20125 -0.761875 0)
(6.49789 0.186007 1.24868e-18)
(5.1127 0.917323 -1.2617e-18)
(4.00405 1.48929 -1.52178e-19)
(3.10078 1.98353 5.55355e-19)
(2.33437 2.47678 -4.27155e-19)
(1.65488 3.01903 0)
(1.03686 3.62751 0)
(0.474458 4.28938 0)
(-0.0287246 4.96307 0)
(-0.461297 5.59864 9.58132e-19)
(-0.796493 6.15687 -9.61038e-19)
(-1.01535 6.59632 9.87601e-19)
(-1.12192 6.87327 -7.31767e-20)
(-1.12166 6.9648 -1.98846e-18)
(-1.02129 6.8686 9.72445e-19)
(-0.833486 6.59676 -1.06855e-18)
(-0.573697 6.1734 2.26851e-18)
(-0.256468 5.62887 -1.11477e-18)
(0.108363 4.99345 -7.98782e-20)
(0.517636 4.29193 1.31293e-18)
(0.973401 3.54196 -2.64768e-18)
(1.48127 2.75441 -1.91455e-19)
(2.05147 1.9408 1.5156e-18)
(2.68967 1.11251 -1.63503e-19)
(3.3919 0.276991 0)
(4.14973 -0.553713 0)
(4.94943 -1.3634 0)
(5.77143 -2.13404 1.48949e-19)
(6.59172 -2.84708 1.39086e-19)
(7.38332 -3.4853 0)
(8.11854 -4.03458 1.79472e-18)
(8.77134 -4.48537 -1.86015e-18)
(9.31979 -4.83421 -1.25214e-18)
(9.74763 -5.08398 1.22871e-18)
(10.0461 -5.24341 0)
(10.2144 -5.32584 0)
(10.2595 -5.34699 -2.1351e-19)
(10.1947 -5.32198 2.08745e-19)
(10.0367 -5.26236 -2.83302e-20)
(9.80341 -5.17427 0)
(9.51132 -5.05893 0)
(9.17457 -4.91601 -7.80638e-20)
(8.80598 -4.74816 -8.86163e-20)
(8.41874 -4.56414 0)
(8.02709 -4.378 -1.02989e-19)
(7.64508 -4.20481 -7.83948e-19)
(7.28429 -4.05571 7.60593e-19)
(6.95143 -3.93623 2.27918e-19)
(6.64372 -3.85419 8.63762e-19)
(6.36126 -3.81424 9.89484e-19)
(-1.62839 0.327417 0)
(-0.0218141 -1.51371 9.04936e-17)
(6.9063 -7.55175 -9.30553e-17)
(19.5215 -15.5405 0)
(32.9386 -23.4428 0)
(43.4947 -28.6331 9.85673e-17)
(49.041 -30.1796 -1.00214e-16)
(49.7466 -28.9374 -5.02174e-19)
(46.998 -26.1992 0)
(42.207 -22.8691 -4.6344e-19)
(36.3269 -19.3253 -4.38765e-19)
(29.8976 -15.6262 -7.10127e-17)
(23.2639 -11.7479 8.32054e-18)
(16.7674 -7.74792 6.57715e-17)
(10.8282 -3.872 5.05036e-17)
(5.91603 -0.564591 -5.09591e-17)
(2.40384 1.70003 0)
(0.419129 2.65999 5.76716e-20)
(-0.194215 2.34395 0)
(0.252893 1.0174 0)
(1.38236 -0.966726 0)
(2.8409 -3.25074 -1.33247e-18)
(4.35965 -5.51234 4.71373e-18)
(5.7672 -7.4805 -2.95637e-18)
(6.9587 -8.97227 0)
(7.89284 -9.87834 8.52664e-20)
(8.57984 -10.1602 -1.91471e-20)
(9.0693 -9.85025 8.77215e-20)
(9.4305 -9.04489 1.228e-17)
(9.7243 -7.87926 -1.24317e-17)
(9.97816 -6.49176 1.75031e-19)
(10.1771 -4.99597 1.77836e-19)
(10.2759 -3.4711 9.13724e-18)
(10.2214 -1.96625 -9.25126e-18)
(9.9735 -0.509053 -7.35473e-18)
(9.51679 0.885917 7.45161e-18)
(8.86338 2.21324 0)
(8.05426 3.47571 -1.56536e-19)
(7.14225 4.66897 0)
(6.16359 5.76352 -2.68022e-19)
(5.16028 6.72725 2.73527e-18)
(4.18516 7.54004 -2.98645e-18)
(3.29463 8.19399 1.05344e-19)
(2.52837 8.6736 -9.68075e-20)
(1.91458 8.96196 -5.71527e-20)
(1.47304 9.04767 -8.57251e-20)
(1.21522 8.92744 8.2544e-20)
(1.14487 8.60851 1.25108e-18)
(1.25872 8.10908 -1.24726e-18)
(1.54732 7.45627 0)
(1.99684 6.6829 7.45049e-20)
(2.59105 5.82313 1.61089e-19)
(3.31285 4.90808 1.08089e-18)
(4.14241 3.96336 -1.06948e-18)
(5.05775 3.013 -1.3126e-19)
(6.03528 2.08044 2.29956e-18)
(7.04716 1.18703 -2.52251e-18)
(8.06035 0.352555 -1.48469e-19)
(9.03831 -0.404545 -1.38634e-19)
(9.94325 -1.06832 1.80583e-18)
(10.739 -1.62685 -1.7773e-18)
(11.3939 -2.07381 9.52781e-20)
(11.8842 -2.40961 5.18957e-20)
(12.1959 -2.64198 0)
(12.3265 -2.78592 -3.78155e-19)
(12.2855 -2.86268 2.48767e-19)
(12.0934 -2.89756 1.40319e-19)
(11.7794 -2.91623 0)
(11.3774 -2.93958 9.06501e-20)
(10.92 -2.97822 -8.01604e-20)
(10.4327 -3.02943 -7.04391e-19)
(9.93174 -3.07969 7.64362e-19)
(9.42611 -3.11285 9.56639e-19)
(8.92312 -3.11972 -9.67307e-19)
(8.43315 -3.10291 2.30941e-19)
(7.96999 -3.07396 -9.92449e-19)
(7.54702 -3.0458 6.93922e-19)
(7.17247 -3.02649 -2.2781e-19)
(6.84369 -3.02037 1.32297e-18)
(6.55127 -3.01825 -1.03118e-18)
(-4.51727 4.41048 1.55787e-19)
(2.13851 -6.98786 -3.26124e-19)
(29.799 -28.4526 1.58412e-19)
(52.1912 -53.96 -3.25067e-19)
(63.0563 -65.7655 0)
(60.0033 -66.759 4.40947e-17)
(47.2083 -59.6163 -9.54289e-17)
(30.7313 -48.7932 5.14701e-17)
(15.6882 -37.9725 -5.64082e-17)
(4.51708 -28.7754 8.46702e-19)
(-2.84291 -21.2735 5.77066e-17)
(-7.47071 -15.036 -8.22866e-20)
(-10.3064 -9.78734 -6.86605e-20)
(-11.7993 -5.45898 -4.45504e-17)
(-12.1221 -2.01627 4.54252e-17)
(-11.388 0.638223 -3.05307e-19)
(-9.78553 2.63479 2.77695e-17)
(-7.58413 4.1175 -5.77014e-18)
(-5.12201 5.21093 -2.2183e-17)
(-2.71245 6.01352 -2.50473e-19)
(-0.600022 6.56117 2.14989e-19)
(1.08518 6.83924 1.84208e-19)
(2.32631 6.79227 0)
(3.20815 6.34471 -8.08053e-20)
(3.87297 5.42855 6.69421e-19)
(4.4643 4.03479 -2.47209e-18)
(5.06716 2.25828 1.64562e-18)
(5.67292 0.300758 -2.01477e-18)
(6.18799 -1.57967 2.03934e-18)
(6.4814 -3.1434 6.2713e-19)
(6.44338 -4.22742 -7.49381e-19)
(6.02386 -4.76867 1.01997e-18)
(5.24216 -4.79294 -1.24358e-18)
(4.17495 -4.38423 0)
(2.93043 -3.65445 0)
(1.62306 -2.71905 -1.73855e-19)
(0.353241 -1.68297 0)
(-0.80393 -0.634452 -2.2794e-21)
(-1.789 0.372812 4.93916e-18)
(-2.55806 1.3218 -9.70483e-18)
(-3.09058 2.2148 4.99295e-18)
(-3.40203 3.0273 0)
(-3.51387 3.75627 0)
(-3.44718 4.4002 3.1481e-18)
(-3.2194 4.95137 -2.99855e-18)
(-2.84267 5.39719 -1.23462e-19)
(-2.32463 5.72413 0)
(-1.66999 5.9201 0)
(-0.88269 5.97706 1.42289e-18)
(0.0309846 5.89373 -1.41551e-18)
(1.06184 5.67503 -7.45197e-20)
(2.19639 5.33007 0)
(3.41947 4.87802 -1.00026e-18)
(4.71293 4.34698 9.23798e-19)
(6.05062 3.76108 -1.56261e-18)
(7.39759 3.14242 1.7462e-18)
(8.71459 2.515 -1.40137e-18)
(9.95983 1.90373 2.9108e-18)
(11.0901 1.33151 -2.64424e-18)
(12.0641 0.817886 1.58972e-19)
(12.8463 0.377877 1.06294e-18)
(13.4101 0.0208599 6.59045e-19)
(13.7408 -0.250292 -6.99195e-19)
(13.8368 -0.439675 0)
(13.7108 -0.558447 -5.12243e-20)
(13.3887 -0.624545 -2.03713e-19)
(12.9084 -0.661898 2.83577e-19)
(12.3172 -0.698479 0)
(11.6669 -0.762001 -1.53172e-19)
(11.006 -0.872712 -7.47272e-19)
(10.3702 -1.03547 6.88957e-19)
(9.77554 -1.23652 0)
(9.2213 -1.44936 0)
(8.70013 -1.64767 1.22742e-19)
(8.20956 -1.81687 -1.27963e-19)
(7.75605 -1.95691 -8.6643e-19)
(7.35039 -2.07635 1.40418e-18)
(7.00011 -2.18396 0)
(6.70368 -2.28428 -2.75838e-19)
(6.45055 -2.37023 -1.23523e-18)
(-4.09192 5.45472 1.11475e-16)
(-10.2681 18.9584 -1.61129e-16)
(-14.9893 23.5059 8.03147e-17)
(-13.438 28.169 6.89733e-17)
(-12.8391 27.3823 -7.04049e-17)
(-10.7707 24.6429 0)
(-6.19688 18.8678 9.05616e-17)
(1.09471 10.4078 -9.24826e-17)
(9.33376 0.658684 6.00341e-17)
(15.5627 -8.42032 -6.14125e-17)
(17.3688 -15.2534 3.80083e-17)
(14.2285 -19.6628 -6.86887e-17)
(7.50999 -22.7265 5.55415e-17)
(-0.438221 -25.7016 -4.69249e-17)
(-7.33944 -29.2604 4.19091e-17)
(-11.7159 -33.3942 -2.01138e-17)
(-13.235 -37.6154 -1.88914e-17)
(-12.5243 -41.2636 3.67242e-17)
(-10.6375 -43.7961 -1.85383e-17)
(-8.5389 -44.9349 2.53747e-19)
(-6.82197 -44.6828 1.29877e-19)
(-5.67758 -43.2574 -1.71459e-17)
(-5.00528 -41.0017 1.68782e-17)
(-4.56431 -38.3039 1.35715e-19)
(-4.09832 -35.5271 0)
(-3.41974 -32.9538 9.80658e-20)
(-2.46192 -30.7433 0)
(-1.29342 -28.9194 1.13325e-17)
(-0.0865356 -27.3955 -9.35436e-19)
(0.950204 -26.0253 -1.06886e-17)
(1.6467 -24.6603 -9.26761e-18)
(1.92024 -23.1922 9.20968e-18)
(1.78248 -21.5703 -7.36993e-20)
(1.31433 -19.7976 -2.12221e-19)
(0.630438 -17.9129 -6.73153e-18)
(-0.150987 -15.9709 6.95509e-18)
(-0.928067 -14.0274 0)
(-1.62488 -12.1296 5.16224e-18)
(-2.19091 -10.3085 -5.02364e-18)
(-2.60059 -8.58314 2.84101e-19)
(-2.84929 -6.96221 -1.8247e-19)
(-2.9403 -5.46004 0)
(-2.88402 -4.068 0)
(-2.69247 -2.78403 0)
(-2.37173 -1.61303 -7.7884e-20)
(-1.91883 -0.559489 1.41797e-18)
(-1.32785 0.368848 -1.29029e-18)
(-0.595235 1.15976 0)
(0.282072 1.80643 0)
(1.30229 2.30553 3.59539e-19)
(2.45319 2.65541 -3.61689e-19)
(3.71606 2.86187 1.63556e-19)
(5.06239 2.93418 -1.18585e-19)
(6.45354 2.88503 -2.69935e-20)
(7.84808 2.73338 -1.10582e-19)
(9.20067 2.50259 1.38749e-19)
(10.4626 2.21661 -1.52357e-19)
(11.5857 1.89866 1.73321e-19)
(12.5264 1.57098 0)
(13.2492 1.25357 2.11843e-20)
(13.73 0.963167 1.44217e-20)
(13.9584 0.712315 6.12651e-20)
(13.9388 0.508818 -3.18065e-19)
(13.6899 0.355348 4.66279e-19)
(13.2436 0.249261 -2.30685e-19)
(12.6418 0.182431 -5.35722e-19)
(11.9344 0.141065 3.80146e-19)
(11.1761 0.105833 1.00329e-19)
(10.4216 0.0535886 8.60748e-19)
(9.71815 -0.0377338 -8.61742e-19)
(9.09579 -0.181418 2.53921e-19)
(8.5612 -0.375535 1.29186e-18)
(8.10114 -0.60324 -1.11626e-18)
(7.69558 -0.84097 0)
(7.33147 -1.06916 1.28831e-18)
(7.00775 -1.27817 -2.41156e-19)
(6.73015 -1.46681 -2.94886e-18)
(6.50251 -1.63667 1.29016e-18)
(6.32129 -1.78686 -1.34735e-18)
(6.17125 -1.91215 1.32391e-18)
(17.4331 -13.6633 -2.33059e-17)
(33.1699 -26.3016 0)
(31.1854 -25.6718 0)
(20.1381 -20.3651 -7.86845e-20)
(9.78306 -15.8765 0)
(-1.64527 -12.2201 0)
(-14.843 -8.56531 0)
(-29.9131 -4.11181 -5.51947e-19)
(-46.6753 1.48041 0)
(-64.7059 8.25554 3.44995e-19)
(-83.1922 15.9071 -1.52502e-17)
(-100.211 23.4598 2.33316e-17)
(-112.145 28.8369 -7.40563e-18)
(-114.517 29.3254 0)
(-104.632 23.2304 -1.33625e-19)
(-84.0837 11.3966 2.87095e-19)
(-58.3985 -3.04569 0)
(-33.9124 -16.5004 2.91451e-17)
(-14.7798 -26.6229 -5.86054e-17)
(-2.16149 -32.853 2.07652e-18)
(4.92655 -35.8131 2.76138e-17)
(8.2163 -36.5471 3.20412e-19)
(9.28646 -35.9368 0)
(9.18898 -34.5618 -1.77517e-17)
(8.50796 -32.7689 1.82098e-17)
(7.5438 -30.7856 -1.37706e-17)
(6.46197 -28.7781 1.40684e-17)
(5.37235 -26.8803 1.08483e-17)
(4.36383 -25.1988 -1.07988e-17)
(3.50474 -23.7958 0)
(2.82464 -22.669 -7.6093e-18)
(2.30645 -21.7501 7.68953e-18)
(1.90224 -20.9332 2.32955e-19)
(1.56161 -20.1151 -5.42097e-18)
(1.25182 -19.2233 5.68014e-18)
(0.962101 -18.2233 -6.41702e-20)
(0.69734 -17.1114 -9.80151e-20)
(0.470182 -15.9033 -3.42211e-18)
(0.294861 -14.6226 3.43722e-18)
(0.184448 -13.2956 2.36999e-18)
(0.149268 -11.9487 -2.7504e-19)
(0.197882 -10.6064 -2.05243e-18)
(0.337499 -9.28907 0)
(0.57539 -8.01161 3.49337e-20)
(0.920523 -6.78954 -4.33991e-19)
(1.37813 -5.64102 8.02596e-19)
(1.95194 -4.5814 -3.11413e-19)
(2.64375 -3.62181 6.1634e-20)
(3.44683 -2.77523 0)
(4.34876 -2.05196 -3.20351e-20)
(5.33232 -1.45487 4.33522e-19)
(6.3722 -0.984447 -4.62075e-19)
(7.43591 -0.638368 -5.89506e-20)
(8.48487 -0.409348 4.73514e-19)
(9.47752 -0.285901 -4.14199e-19)
(10.3722 -0.253401 4.91143e-19)
(11.13 -0.294762 5.14576e-19)
(11.7178 -0.391178 -9.32214e-19)
(12.1119 -0.523174 7.96535e-19)
(12.3001 -0.671744 -8.06052e-19)
(12.2833 -0.819435 0)
(12.0758 -0.951263 2.31125e-20)
(11.7029 -1.05546 6.52538e-19)
(11.1987 -1.12409 -5.85999e-19)
(10.6023 -1.15364 -1.8342e-19)
(9.9553 -1.14561 0)
(9.29881 -1.10698 -9.09063e-19)
(8.67128 -1.05022 7.51292e-19)
(8.1044 -0.991946 1.12952e-19)
(7.61814 -0.949724 1.51734e-19)
(7.21693 -0.937662 -2.96551e-19)
(6.89079 -0.962607 2.28471e-20)
(6.62259 -1.02323 1.51756e-18)
(6.39789 -1.11236 -1.30534e-18)
(6.21073 -1.22093 1.86013e-19)
(6.06214 -1.34085 0)
(5.95393 -1.46581 1.81868e-18)
(5.8834 -1.58956 -1.42989e-18)
(5.84199 -1.7036 0)
(5.81006 -1.80349 1.5137e-18)
(3.74771 -3.70772 -1.48909e-19)
(9.72305 -6.90693 2.51907e-17)
(4.68806 -7.54783 -2.71551e-17)
(-12.6779 3.30761 5.62942e-17)
(-38.667 18.3379 -2.90203e-17)
(-61.1252 31.816 -1.59994e-19)
(-72.569 39.186 -2.9726e-17)
(-73.5933 40.614 3.10114e-17)
(-68.75 38.7856 1.08392e-19)
(-60.93 35.8458 -2.67982e-19)
(-50.7517 32.5838 3.05804e-17)
(-38.25 29.0902 3.02228e-17)
(-23.917 25.4065 -6.30214e-17)
(-9.10814 21.7599 5.94562e-17)
(4.15015 18.5344 -1.17228e-16)
(13.9541 16.0229 5.74571e-17)
(19.4533 14.1889 0)
(21.1605 12.6309 0)
(20.4413 10.7827 -3.4688e-17)
(18.7086 8.13517 7.02432e-18)
(17.0071 4.52891 2.88079e-17)
(15.8968 0.100795 -1.61515e-17)
(15.5073 -4.72908 2.73052e-17)
(15.6288 -9.39942 -1.11492e-17)
(15.9459 -13.4293 -3.13692e-18)
(16.1803 -16.4958 2.57072e-18)
(16.1422 -18.4729 4.14574e-19)
(15.7516 -19.4204 1.07561e-19)
(15.043 -19.5424 -9.31628e-20)
(14.142 -19.1176 1.59863e-19)
(13.2013 -18.421 0)
(12.3253 -17.6553 3.1495e-18)
(11.543 -16.9214 -6.27848e-18)
(10.8347 -16.2356 3.10832e-18)
(10.1707 -15.5735 0)
(9.53315 -14.9049 -2.3038e-18)
(8.92041 -14.2089 2.3047e-18)
(8.34203 -13.476 0)
(7.81214 -12.7058 0)
(7.34497 -11.9031 -9.03854e-19)
(6.95268 -11.0764 9.65422e-19)
(6.64463 -10.2365 5.70618e-20)
(6.42701 -9.39509 0)
(6.30321 -8.56475 -3.78705e-21)
(6.2746 -7.75857 -1.97219e-19)
(6.34014 -6.99024 1.42203e-19)
(6.49539 -6.27294 3.70734e-20)
(6.73287 -5.61947 -6.10542e-20)
(7.04108 -5.04156 0)
(7.40378 -4.54783 7.45354e-19)
(7.80113 -4.14404 -1.49443e-18)
(8.20981 -3.83302 8.18998e-19)
(8.60428 -3.61364 8.36236e-20)
(8.95866 -3.48064 9.12256e-19)
(9.24906 -3.42464 -8.29721e-20)
(9.45605 -3.43259 -1.61403e-18)
(9.56686 -3.48847 6.00258e-19)
(9.57687 -3.57449 0)
(9.4899 -3.67237 0)
(9.31699 -3.76476 -1.0249e-19)
(9.07402 -3.83625 -9.87111e-20)
(8.77863 -3.87417 0)
(8.44779 -3.86905 -1.13293e-18)
(8.09665 -3.81518 1.11154e-18)
(7.7386 -3.71118 1.29631e-18)
(7.38583 -3.56038 2.27799e-19)
(7.04939 -3.37069 -1.04921e-18)
(6.73831 -3.15386 1.28971e-18)
(6.45826 -2.924 -1.25973e-18)
(6.21098 -2.6959 4.273e-20)
(5.99566 -2.48344 -1.29972e-18)
(5.81167 -2.29786 1.2539e-18)
(5.66101 -2.14682 1.38036e-18)
(5.54837 -2.03374 -1.72466e-18)
(5.47846 -1.95801 1.43363e-18)
(5.45207 -1.9157 -1.5727e-18)
(5.46372 -1.90068 1.64975e-18)
(5.50282 -1.90446 -3.25292e-18)
(5.55618 -1.91707 -4.98183e-20)
(5.60511 -1.93924 -4.76045e-20)
(-8.57416 4.24447 3.5792e-18)
(-13.7674 4.54666 -7.55636e-20)
(-11.056 -0.501239 -6.90762e-18)
(-8.4145 -6.52549 1.4831e-17)
(-8.25194 -9.68748 -7.85656e-18)
(-8.89797 -10.8191 1.02312e-17)
(-8.3462 -11.043 2.19366e-18)
(-5.55239 -11.4106 -1.19122e-17)
(-0.683015 -12.3972 1.81637e-17)
(5.54737 -13.8979 -1.77779e-17)
(12.3584 -15.5613 2.42312e-17)
(19.039 -17.0518 -2.42638e-17)
(25.0089 -18.1527 2.97233e-17)
(29.8632 -18.7574 -3.02948e-17)
(33.3594 -18.824 3.16742e-20)
(35.3903 -18.3293 5.17501e-20)
(35.9218 -17.1991 6.5813e-17)
(34.8237 -15.2017 -6.70916e-17)
(31.9033 -12.193 -1.88215e-19)
(27.1656 -8.42843 4.32369e-19)
(21.2127 -4.7045 4.53144e-17)
(15.4734 -2.05046 -4.55234e-17)
(11.7256 -1.32885 0)
(10.7202 -2.50031 -1.37339e-19)
(11.9769 -5.09273 0)
(14.3797 -8.37172 0)
(16.7589 -11.5978 -4.73597e-20)
(18.277 -14.1747 -1.0523e-17)
(18.592 -15.7652 1.06738e-17)
(17.8404 -16.3379 6.03231e-18)
(16.4512 -16.1114 -6.26246e-18)
(14.8859 -15.4186 1.167e-19)
(13.4586 -14.5605 -9.98466e-20)
(12.2981 -13.7257 0)
(11.4023 -12.9898 2.83355e-20)
(10.7158 -12.355 0)
(10.1784 -11.7937 0)
(9.74245 -11.2743 3.0285e-20)
(9.37571 -10.7732 0)
(9.05741 -10.2763 0)
(8.77488 -9.77774 3.09235e-20)
(8.5209 -9.27779 -1.55675e-20)
(8.29174 -8.78077 0)
(8.08602 -8.29371 0)
(7.90374 -7.8253 0)
(7.74567 -7.38489 8.09031e-20)
(7.6128 -6.98159 -3.71112e-20)
(7.50584 -6.62345 -8.91389e-19)
(7.4248 -6.31659 9.31211e-19)
(7.36882 -6.06462 -1.04415e-18)
(7.33625 -5.86842 1.17771e-18)
(7.32495 -5.72607 -1.41156e-19)
(7.33258 -5.63321 -8.15013e-20)
(7.35695 -5.58352 0)
(7.39585 -5.56914 0)
(7.44637 -5.58088 9.0756e-19)
(7.50398 -5.60838 1.01842e-19)
(7.5616 -5.64034 -1.02222e-18)
(7.60961 -5.66493 9.79978e-19)
(7.63679 -5.67075 -1.00003e-18)
(7.6322 -5.64788 -1.75974e-18)
(7.58729 -5.58886 9.57006e-21)
(7.4975 -5.48929 3.44365e-18)
(7.36282 -5.34787 -1.75257e-18)
(7.18734 -5.1661 -1.24345e-19)
(6.97817 -4.94788 -1.81466e-19)
(6.74436 -4.69915 -1.74912e-18)
(6.4963 -4.4276 3.46936e-18)
(6.24571 -4.14209 -1.71841e-18)
(6.00534 -3.85266 -1.95143e-19)
(5.78874 -3.56963 -1.8125e-18)
(5.60911 -3.30235 2.0111e-18)
(5.47686 -3.05852 0)
(5.39732 -2.84338 2.11431e-19)
(5.36922 -2.65956 0)
(5.38488 -2.50722 -1.86364e-18)
(5.43205 -2.38431 -5.12192e-20)
(5.49737 -2.28583 1.80178e-18)
(5.56848 -2.20676 -1.35693e-18)
(5.63332 -2.15284 -5.2464e-19)
(-5.93701 5.63168 -4.11545e-17)
(-22.3644 19.171 6.19285e-17)
(-39.3227 32.1284 1.29035e-20)
(-47.2115 40.2436 5.70992e-17)
(-46.4257 41.3879 -5.83571e-17)
(-41.0914 39.8089 5.22072e-17)
(-34.355 37.6679 -1.02922e-16)
(-27.8626 36.2808 4.96516e-17)
(-22.2216 36.078 -4.2437e-17)
(-17.4544 36.9152 4.23254e-17)
(-13.3839 38.4168 0)
(-9.909 40.1866 -5.90088e-19)
(-7.14023 41.9248 1.36867e-19)
(-5.37732 43.4667 0)
(-4.95234 44.735 0)
(-6.04063 45.6793 0)
(-8.57356 46.2297 0)
(-12.3541 46.421 -1.2223e-19)
(-16.9957 46.2724 0)
(-21.8661 45.856 1.05902e-18)
(-25.9649 45.0506 -1.84911e-18)
(-28.202 43.6075 -9.60213e-18)
(-27.6697 41.1018 9.50541e-18)
(-24.3344 37.5252 1.06561e-17)
(-19.0724 33.1191 -1.08815e-17)
(-13.0837 28.2817 9.23171e-18)
(-7.31533 23.3481 -9.32485e-18)
(-2.0722 18.4994 7.31302e-18)
(2.80123 13.7847 -9.05903e-19)
(7.2923 9.30856 -6.76727e-18)
(10.9595 5.3401 0)
(13.3523 2.14711 -1.5235e-19)
(14.4381 -0.222538 -1.36296e-19)
(14.5615 -1.927 0)
(14.1598 -3.17723 -2.82731e-20)
(13.5599 -4.13376 0)
(12.9379 -4.88295 0)
(12.3583 -5.46167 -2.73665e-18)
(11.8293 -5.88829 5.14314e-18)
(11.3405 -6.17775 -2.52614e-18)
(10.88 -6.34684 -2.1529e-18)
(10.4401 -6.41447 2.24406e-18)
(10.0177 -6.40049 7.90883e-20)
(9.6138 -6.32483 0)
(9.23269 -6.20689 -2.06393e-18)
(8.88132 -6.06507 1.83499e-18)
(8.56862 -5.91609 0)
(8.30423 -5.77416 0)
(8.09689 -5.65004 1.57126e-18)
(7.95262 -5.55042 -1.80271e-18)
(7.87305 -5.47765 -1.78829e-18)
(7.85433 -5.43023 1.66379e-18)
(7.88702 -5.40377 1.57941e-18)
(7.95688 -5.39235 -2.93819e-18)
(8.04661 -5.38991 1.4393e-18)
(8.13804 -5.39127 3.40347e-19)
(8.21435 -5.39263 0)
(8.26187 -5.39144 -1.76245e-19)
(8.27106 -5.38582 1.09355e-18)
(8.23675 -5.37379 -2.34345e-18)
(8.15756 -5.35265 1.21504e-18)
(8.0349 -5.3187 0)
(7.87215 -5.2674 1.28216e-19)
(7.67411 -5.19398 0)
(7.44706 -5.09434 1.24392e-19)
(7.19899 -4.96581 1.50461e-19)
(6.93979 -4.80787 2.9771e-19)
(6.68105 -4.62222 2.19371e-18)
(6.4353 -4.41264 -1.84993e-18)
(6.21462 -4.18484 2.90409e-19)
(6.02885 -3.94578 2.16674e-18)
(5.88458 -3.703 -2.64247e-18)
(5.78415 -3.46398 2.14948e-18)
(5.72564 -3.23565 -2.08994e-18)
(5.70339 -3.02368 2.40157e-18)
(5.70913 -2.83208 -1.78502e-18)
(5.73353 -2.66275 -2.08335e-18)
(5.76827 -2.51459 2.0192e-18)
(5.80659 -2.38795 -4.78445e-19)
(5.84457 -2.28993 4.81764e-19)
(14.6408 -7.35255 -3.76034e-17)
(18.2076 -10.7204 -5.62288e-17)
(0.845343 0.853647 1.13301e-16)
(-23.6211 15.195 -1.14253e-16)
(-39.1063 27.3199 5.79886e-17)
(-42.0002 32.1697 1.27782e-20)
(-33.3318 29.8187 -5.73043e-17)
(-18.2321 22.879 1.15649e-16)
(-1.87899 14.3018 -1.54419e-18)
(12.5526 5.9487 -5.7289e-17)
(23.5559 -1.32599 5.41039e-19)
(30.3598 -7.06249 4.79302e-17)
(32.5722 -10.9248 -4.89287e-17)
(30.4227 -12.8267 3.86441e-17)
(24.9998 -13.1275 -3.94297e-17)
(18.0175 -12.471 -2.89881e-17)
(11.0492 -11.4977 2.9552e-17)
(5.13318 -10.5856 1.25592e-19)
(0.734548 -9.86348 0)
(-1.98656 -9.30806 1.47032e-17)
(-2.95519 -8.97906 -1.49465e-17)
(-2.308 -8.7544 2.20822e-20)
(-0.45865 -8.50567 -9.10261e-18)
(1.99029 -8.09606 9.22355e-18)
(4.49427 -7.41275 1.90464e-19)
(6.68122 -6.42837 0)
(8.33205 -5.22182 4.19737e-20)
(9.3883 -3.97415 1.89126e-19)
(9.89934 -2.88901 7.08046e-18)
(9.90727 -2.07321 -7.21553e-18)
(9.45953 -1.5257 -4.98641e-18)
(8.73011 -1.20866 5.12846e-18)
(8.01512 -1.11076 1.30834e-20)
(7.58451 -1.22561 3.77665e-18)
(7.55058 -1.51962 -7.19698e-18)
(7.85257 -1.93556 3.54063e-18)
(8.3412 -2.40256 3.2604e-18)
(8.86781 -2.8569 -3.40529e-18)
(9.32622 -3.26317 -2.56782e-20)
(9.66313 -3.6058 1.13748e-19)
(9.86525 -3.88074 -8.54095e-20)
(9.94142 -4.09077 3.01811e-18)
(9.91016 -4.24136 -2.01045e-19)
(9.79304 -4.33942 -2.90332e-18)
(9.61235 -4.39331 2.79133e-18)
(9.39079 -4.41312 -2.64294e-18)
(9.15126 -4.4104 0)
(8.91591 -4.39727 -2.41294e-18)
(8.70435 -4.38493 2.38106e-18)
(8.53132 -4.3822 -1.93071e-18)
(8.40471 -4.39438 1.97172e-19)
(8.32468 -4.42297 7.43661e-20)
(8.28435 -4.46608 6.43897e-20)
(8.27182 -4.51965 5.49172e-20)
(8.27316 -4.57873 1.69695e-18)
(8.2751 -4.63857 -8.39341e-20)
(8.26697 -4.69516 0)
(8.24139 -4.74533 1.67916e-18)
(8.19404 -4.78642 -1.31082e-18)
(8.12299 -4.81602 0)
(8.02812 -4.83172 1.58816e-18)
(7.91068 -4.83109 -1.19842e-18)
(7.7732 -4.81171 0)
(7.61936 -4.77131 1.76795e-19)
(7.45385 -4.70795 0)
(7.28203 -4.62024 2.4631e-18)
(7.10949 -4.50763 -5.27119e-18)
(6.94168 -4.37068 2.52888e-18)
(6.78357 -4.21134 -2.92591e-19)
(6.63947 -4.03301 -2.90427e-19)
(6.51279 -3.8404 2.49048e-18)
(6.40587 -3.63923 -2.13944e-18)
(6.31971 -3.4356 3.1926e-19)
(6.25379 -3.23538 3.14975e-19)
(6.20605 -3.04364 -5.89215e-19)
(6.17325 -2.86424 -2.75671e-19)
(6.15166 -2.69941 -2.61026e-18)
(6.13817 -2.54941 -3.35216e-20)
(6.13021 -2.41718 2.49033e-18)
(6.12841 -2.3081 5.79514e-19)
(-5.07966 0.595127 0)
(5.59753 -11.206 5.02969e-19)
(29.0761 -25.1448 -1.7281e-19)
(39.7931 -36.41 6.52435e-17)
(34.3987 -35.9004 -1.25994e-16)
(21.0171 -30.6828 1.12504e-16)
(7.92686 -24.9276 -5.3309e-17)
(-1.08473 -21.0102 0)
(-6.02241 -18.9706 -6.99152e-19)
(-8.41229 -17.8637 1.96339e-17)
(-9.64245 -16.7559 -2.05912e-17)
(-10.4648 -15.1666 -4.58114e-18)
(-11.0815 -13.0331 2.65356e-18)
(-11.3712 -10.6115 -5.42101e-18)
(-11.341 -8.18077 -3.86245e-18)
(-11.1066 -5.84166 1.08926e-17)
(-10.981 -3.59493 1.47046e-19)
(-11.1932 -1.47861 -1.60591e-17)
(-11.7002 0.345869 1.62384e-17)
(-12.1433 1.64587 -2.26828e-21)
(-11.8927 2.14037 6.42005e-20)
(-10.3212 1.71522 8.37916e-20)
(-7.21768 0.503233 -9.89203e-18)
(-2.83926 -1.23681 2.26385e-18)
(2.1789 -3.42312 7.94199e-18)
(6.51372 -5.83654 4.41722e-21)
(8.67859 -7.77052 -2.07172e-18)
(8.43402 -8.69536 2.74481e-18)
(6.9393 -8.80737 -4.23132e-19)
(5.54261 -8.66487 -1.95494e-19)
(4.87622 -8.57123 0)
(4.94606 -8.54664 3.59352e-18)
(5.50744 -8.51879 -7.46127e-18)
(6.29988 -8.42827 3.92899e-18)
(7.12014 -8.25573 -4.37367e-18)
(7.83879 -8.0128 4.67271e-18)
(8.39381 -7.72516 1.25029e-19)
(8.77405 -7.4227 0)
(8.99818 -7.13013 4.9778e-23)
(9.09764 -6.8638 3.69033e-18)
(9.10469 -6.63043 -3.92745e-18)
(9.04559 -6.42822 9.76142e-20)
(8.93877 -6.24973 -9.08505e-20)
(8.79668 -6.08573 0)
(8.62943 -5.92861 0)
(8.44818 -5.77453 -2.42078e-18)
(8.26672 -5.62385 2.70364e-18)
(8.10094 -5.48026 1.45524e-19)
(7.96648 -5.34904 2.15303e-18)
(7.87549 -5.23515 -4.315e-18)
(7.8337 -5.14147 1.92036e-18)
(7.839 -5.06797 0)
(7.88191 -5.01169 -1.93601e-18)
(7.94813 -4.96765 1.80812e-18)
(8.02185 -4.93007 0)
(8.08895 -4.89363 -1.78685e-18)
(8.13904 -4.85421 1.66356e-18)
(8.16611 -4.80917 -1.62007e-18)
(8.16806 -4.75714 1.39441e-18)
(8.14562 -4.69766 0)
(8.10118 -4.63063 -3.84194e-19)
(8.0378 -4.55604 -1.81733e-19)
(7.9585 -4.47364 1.51712e-18)
(7.86589 -4.38291 -1.64283e-19)
(7.76221 -4.28318 -1.47177e-18)
(7.64947 -4.17374 0)
(7.52984 -4.05415 -1.70792e-19)
(7.40587 -3.92443 0)
(7.28062 -3.78524 0)
(7.15744 -3.63792 2.81597e-18)
(7.03963 -3.48443 -2.74524e-18)
(6.92996 -3.32724 -2.38761e-18)
(6.83033 -3.16908 -3.54422e-19)
(6.74162 -3.01273 2.31663e-18)
(6.66374 -2.86075 2.93396e-18)
(6.59589 -2.71528 -2.54682e-18)
(6.53697 -2.57768 3.00635e-19)
(6.48615 -2.44849 2.48474e-18)
(6.44263 -2.33157 -5.4473e-18)
(6.40872 -2.22988 1.82299e-18)
(-6.34578 7.61206 1.59683e-16)
(-7.78244 15.1368 -1.19318e-16)
(4.36682 18.4101 -1.13106e-16)
(18.8987 19.9359 1.15651e-16)
(30.1664 21.9501 1.83286e-19)
(39.0929 25.7006 1.94693e-19)
(47.5751 30.2708 0)
(57.0826 34.7706 9.04664e-17)
(67.8464 38.5771 -9.2621e-17)
(78.6997 41.5834 0)
(87.4136 44.2776 -6.10206e-17)
(91.4743 47.3904 1.11358e-16)
(89.0233 51.3733 -1.27883e-17)
(79.8116 56.0211 -6.2994e-17)
(65.2886 60.5516 2.60717e-17)
(48.0123 63.9592 1.84381e-19)
(30.4184 65.4579 -2.01639e-19)
(14.1122 64.5921 0)
(0.0381981 61.2309 -4.83962e-18)
(-11.058 55.3748 5.01872e-18)
(-18.1536 47.1209 -1.09252e-19)
(-20.4488 37.0491 -5.92096e-18)
(-19.2324 26.8306 5.88878e-18)
(-17.7921 18.6927 -5.13099e-18)
(-17.575 13.3662 5.18418e-18)
(-16.9342 9.63925 -4.42665e-21)
(-14.2603 6.26981 -3.74351e-18)
(-9.83658 3.08792 4.52575e-19)
(-4.90196 0.469012 6.32487e-18)
(-0.37408 -1.42636 -3.14659e-19)
(3.39957 -2.68186 -2.72705e-18)
(6.38451 -3.47598 -2.3701e-18)
(8.63273 -3.96343 2.42622e-18)
(10.2211 -4.25295 0)
(11.2429 -4.41997 -1.34277e-19)
(11.799 -4.51327 -1.32631e-19)
(11.9863 -4.56565 0)
(11.8934 -4.59998 -3.42176e-18)
(11.6051 -4.63464 3.55667e-18)
(11.2031 -4.684 1.11512e-19)
(10.7601 -4.75481 0)
(10.3299 -4.84306 -9.73425e-20)
(9.94203 -4.93512 -2.38727e-18)
(9.6047 -5.01318 2.4379e-18)
(9.31432 -5.06177 0)
(9.06522 -5.07199 1.86543e-18)
(8.85559 -5.0427 -2.19128e-18)
(8.68807 -4.9791 0)
(8.56733 -4.89041 0)
(8.49653 -4.78727 1.22099e-19)
(8.47436 -4.67957 1.17927e-19)
(8.49388 -4.57498 0)
(8.54326 -4.47827 -1.61083e-18)
(8.60807 -4.39138 1.70695e-18)
(8.67411 -4.31407 1.6942e-18)
(8.72965 -4.24472 -9.20449e-20)
(8.76656 -4.18106 -3.34177e-18)
(8.78031 -4.12063 3.32626e-18)
(8.76922 -4.06119 2.2045e-19)
(8.73352 -4.00077 -1.43205e-18)
(8.67464 -3.93783 1.9943e-19)
(8.59471 -3.87124 0)
(8.49641 -3.80026 0)
(8.38284 -3.72445 -1.62913e-18)
(8.25749 -3.6436 1.8052e-18)
(8.12402 -3.55764 0)
(7.98609 -3.46655 -2.05637e-19)
(7.84709 -3.37039 0)
(7.70991 -3.26933 -1.56174e-18)
(7.57689 -3.16376 1.52394e-18)
(7.44974 -3.05435 -3.94725e-19)
(7.32964 -2.94203 -3.3626e-18)
(7.21733 -2.82801 2.92498e-18)
(7.11317 -2.71359 -3.77247e-19)
(7.01722 -2.60015 0)
(6.92928 -2.4889 0)
(6.8491 -2.38075 0)
(6.77657 -2.27637 3.04613e-18)
(6.71148 -2.17971 3.42261e-19)
(6.65653 -2.09148 -5.23493e-18)
(19.8906 -7.51393 -3.03232e-17)
(34.9804 -16.6458 -4.35316e-17)
(36.5217 -14.6914 4.4471e-17)
(31.1949 -15.519 -4.0628e-17)
(29.792 -14.5877 4.18854e-17)
(29.3007 -14.6368 3.84798e-19)
(27.6414 -14.9258 3.77719e-19)
(23.7753 -15.0825 0)
(17.7291 -15.3917 2.36815e-19)
(9.99021 -15.9042 0)
(0.669414 -16.6706 3.12833e-19)
(-10.4973 -17.3659 1.93127e-17)
(-23.8535 -17.3122 -1.93839e-17)
(-39.416 -15.847 -1.60377e-17)
(-56.6254 -12.6901 1.58797e-17)
(-74.4669 -7.96427 -1.14554e-17)
(-91.7338 -1.99288 1.25349e-17)
(-107.353 4.76539 0)
(-120.489 11.8356 0)
(-129.956 18.5478 0)
(-132.248 23.3765 -1.34308e-18)
(-120.708 23.6812 3.89039e-18)
(-92.95 17.9549 4.29111e-19)
(-58.2221 8.88568 -5.86245e-18)
(-29.0385 1.0954 2.82957e-18)
(-9.8011 -3.48804 0)
(1.75935 -5.65767 -2.24819e-20)
(8.68148 -6.59204 0)
(12.7316 -6.9581 -6.08595e-19)
(14.8185 -7.01739 6.33754e-19)
(15.5514 -6.87105 -2.55693e-20)
(15.4093 -6.59836 0)
(14.7626 -6.28577 4.89745e-20)
(13.8809 -5.98783 -1.55851e-19)
(12.9425 -5.73054 7.70549e-20)
(12.0407 -5.53004 -3.99366e-20)
(11.2089 -5.39421 7.33157e-20)
(10.4536 -5.32636 -3.33129e-20)
(9.78581 -5.32892 0)
(9.23406 -5.40236 0)
(8.83276 -5.53618 0)
(8.59998 -5.70321 -5.70752e-20)
(8.52321 -5.86379 3.20112e-19)
(8.56283 -5.9784 -2.21323e-19)
(8.66885 -6.01937 0)
(8.7985 -5.97616 6.79966e-19)
(8.92539 -5.85314 -6.37014e-19)
(9.03713 -5.66394 -9.17242e-19)
(9.13059 -5.42728 -7.36336e-20)
(9.20691 -5.16266 -1.17274e-19)
(9.26778 -4.88818 -1.06102e-19)
(9.31382 -4.61912 1.24402e-18)
(9.34429 -4.36714 0)
(9.35763 -4.13999 0)
(9.35233 -3.9417 1.44187e-18)
(9.32765 -3.77313 -1.51432e-18)
(9.28393 -3.63262 0)
(9.22249 -3.51683 0)
(9.14532 -3.42148 -1.05831e-19)
(9.05466 -3.34198 -2.081e-19)
(8.95283 -3.27388 0)
(8.84206 -3.21325 0)
(8.72445 -3.15675 2.22127e-19)
(8.60188 -3.10173 2.2291e-19)
(8.47603 -3.04614 -1.94333e-18)
(8.34831 -2.98846 3.42919e-18)
(8.21989 -2.92765 2.33324e-19)
(8.09176 -2.8631 -3.38915e-18)
(7.96484 -2.79456 3.57834e-18)
(7.84001 -2.7221 -3.32497e-18)
(7.71819 -2.64609 5.87111e-19)
(7.60029 -2.56704 1.61031e-18)
(7.48714 -2.48564 -3.21034e-18)
(7.37939 -2.40264 -6.57299e-20)
(7.27753 -2.3188 6.16652e-18)
(7.1818 -2.23487 -3.40197e-18)
(7.09235 -2.15144 0)
(7.00933 -2.06917 -7.25115e-19)
(6.9328 -1.99165 0)
(6.86545 -1.9177 2.83292e-18)
(15.3788 -5.77406 0)
(49.5643 -15.0057 -8.95941e-20)
(78.9681 -25.7731 9.026e-20)
(94.2069 -27.89 5.7676e-17)
(95.8205 -25.4709 -1.20471e-16)
(89.1597 -18.0337 6.21876e-17)
(75.9361 -7.98633 -3.85324e-19)
(59.4274 1.98155 0)
(43.3397 9.73885 0)
(29.793 14.1967 0)
(19.28 15.5567 -3.20003e-19)
(11.442 14.8756 -2.26283e-19)
(5.69555 13.4414 0)
(1.44382 12.0977 -6.30991e-20)
(-1.76841 11.2875 3.52824e-19)
(-4.21139 11.1856 -3.95387e-17)
(-6.00921 11.8559 3.93114e-17)
(-7.26666 13.3235 9.44351e-20)
(-8.1315 15.6258 0)
(-8.63733 18.7246 -6.06562e-20)
(-8.68118 22.4072 1.53982e-19)
(-8.12584 26.2119 -1.32398e-17)
(-7.04524 29.3158 4.13479e-18)
(-5.78848 30.7528 9.32994e-18)
(-4.66047 30.101 3.90487e-20)
(-3.6854 27.7668 4.20471e-20)
(-2.72859 24.4978 2.63487e-18)
(-1.66721 20.8358 -2.79857e-18)
(-0.434289 17.0664 5.99344e-20)
(0.98201 13.4726 -1.68134e-20)
(2.5263 10.2266 -1.03605e-20)
(4.08838 7.34702 3.56754e-20)
(5.5594 4.89523 -3.61123e-20)
(6.82001 2.91644 7.89463e-20)