/*--------------------------------*- C++ -*----------------------------------*\
| =========                 |                                                 |
| \\      /  F ield         | OpenFOAM: The Open Source CFD Toolbox           |
|  \\    /   O peration     | Version:  2012                                  |
|   \\  /    A nd           | Website:  www.openfoam.com                      |
|    \\/     M anipulation  |                                                 |
\*---------------------------------------------------------------------------*/
FoamFile
{
    version     2.0;
    format      ascii;
    class       surfaceScalarField;
    location    "0.86";
    object      phi;
}
// * * * * * * * * * * * * * * * * * * * * * * * * * * * * * * * * * * * * * //

dimensions      [0 3 -1 0 0 0 0];
oriented        oriented;


internalField   nonuniform List<scalar> 
84340
(
-0.000315967
0.000296402
1.95644e-05
-0.000805453
0.000458002
3.14842e-05
-0.00116652
0.000420191
-5.91213e-05
-0.00133522
0.000440716
-0.000272023
-0.00136427
0.000513348
-0.000484292
-0.00128801
0.000548919
-0.000625179
-0.00111062
0.000516306
-0.000693698
-0.000826904
0.000440013
-0.000723729
-0.00043455
0.000350788
-0.000743142
7.42448e-05
0.000264622
-0.000773417
0.000704762
0.000190825
-0.000821343
0.00143749
0.000139673
-0.000872405
0.00220969
0.000117035
-0.000889228
0.00293474
0.000106197
-0.000831254
0.00352636
9.36138e-05
-0.000685228
0.00393247
7.09773e-05
-0.000477086
0.0041518
3.92738e-05
-0.000258611
0.00422431
3.09115e-06
-7.55962e-05
0.00420624
-3.47493e-05
5.28154e-05
0.00415013
-7.55102e-05
0.000131624
0.00409388
-0.000119168
0.000175419
0.00406104
-0.000164631
0.000197472
0.00406207
-0.000207777
0.00020674
0.00409558
-0.000242471
0.000208965
0.00415468
-0.000267036
0.000207939
0.00422723
-0.000278368
0.000205815
0.00429769
-0.000274868
0.000204403
0.0043514
-0.000256551
0.000202841
0.00437702
-0.00022528
0.000199661
0.00436489
-0.000183351
0.000195478
0.00430872
-0.000134974
0.000191144
0.00420179
-8.50618e-05
0.000191994
0.00403663
-3.84022e-05
0.000203562
0.0038048
3.50643e-07
0.000231487
0.0034986
2.74282e-05
0.000278768
0.00311386
3.98982e-05
0.000344843
0.00265415
3.58598e-05
0.000423847
0.00213482
1.67841e-05
0.000502547
0.00158343
-1.01318e-05
0.000561526
0.00103242
-3.26664e-05
0.00058367
0.000519383
-5.32741e-05
0.000566313
7.78354e-05
-7.98573e-05
0.000521405
-0.000277836
-0.000111074
0.000466745
-0.000545577
-0.000148382
0.000416124
-0.000732285
-0.0001886
0.000375308
-0.000850174
-0.000226248
0.000344137
-0.000912901
-0.000257255
0.00031998
-0.000932883
-0.000280233
0.000300215
-0.000919977
-0.000296087
0.000283181
-0.000880955
-0.000307201
0.000268179
-0.000820292
-0.000316062
0.000255399
-0.000740864
-0.000324848
0.00024542
-0.000644497
-0.00033533
0.000238963
-0.000532381
-0.000348859
0.000236743
-0.00040539
-0.000366382
0.000239392
-0.000264444
-0.000388441
0.000247494
-0.000110682
-0.000415165
0.000261403
5.43538e-05
-0.000446263
0.000281227
0.000228597
-0.000481026
0.000306782
0.000409505
-0.000518378
0.00033747
0.000594244
-0.000556966
0.000372226
0.000779899
-0.000595307
0.000409651
0.000963605
-0.000631956
0.00044825
0.00114259
-0.00066567
0.000486684
0.00131416
-0.000695511
0.000523938
0.00147567
-0.000720889
0.000559382
0.00162446
-0.000741524
0.000592731
0.00175789
-0.000757366
0.000623944
0.00187328
-0.00076851
0.000653113
0.00196806
-0.000775138
0.000680365
0.00203976
-0.000777526
0.000705827
0.00208623
-0.00077614
0.000729669
0.00210581
-0.000771832
0.000752251
0.00209759
-0.000766161
0.000774375
0.00206177
-0.000761785
0.000797605
0.00200005
-0.000762817
0.000824537
0.00191609
-0.000774832
0.000858792
0.00181578
-0.000804163
0.000904475
0.00170721
-0.000856363
0.000964932
-0.000930616
0.00103853
0.0015993
0.000358333
-6.193e-05
0.000734734
8.15994e-05
0.000883833
0.000271092
0.000921203
0.000403347
0.000947942
0.000486608
0.000974529
0.000522333
0.000981325
0.00050951
0.000966131
0.000455207
0.000951017
0.000365903
0.000942325
0.000273314
0.000946097
0.000187054
0.000939057
0.000146713
0.000885803
0.000170289
0.000753776
0.000238223
0.00054367
0.00030372
0.000267338
0.00034731
-5.07023e-05
0.000357314
-0.000372356
0.000324745
-0.000652291
0.000245186
-0.000848964
0.000121162
-0.000930635
-3.74966e-05
-0.000879866
-0.0002154
-0.000694223
-0.00039342
-0.000387931
-0.000548764
1.10006e-06
-0.000656067
0.00041764
-0.000694907
0.000805422
-0.000662649
0.00112671
-0.000577835
0.0013713
-0.000469871
0.00155099
-0.00036304
0.00168569
-0.000269682
0.00179278
-0.000192151
0.00188256
-0.000128175
0.0019574
-7.4491e-05
0.00201244
-2.76128e-05
0.00203591
1.64303e-05
0.00201329
5.84762e-05
0.00194006
9.00112e-05
0.0018074
0.000122529
0.00163035
0.00014439
0.00142651
0.000150567
0.00120842
0.000138234
0.000989609
0.000107734
0.000778323
6.29039e-05
0.00057996
9.76268e-06
0.000399558
-4.58458e-05
0.000239628
-9.73243e-05
9.99004e-05
-0.000140506
-2.23325e-05
-0.000173854
-0.000121828
-0.000207705
-0.00019427
-0.000243621
-0.000238952
-0.000280165
-0.000256829
-0.000317453
-0.00024959
-0.000356099
-0.000219071
-0.000396901
-0.000166923
-0.000440588
-9.45242e-05
-0.000487564
-3.10551e-06
-0.000537682
0.000105993
-0.000590124
0.00023104
-0.000643425
0.00036973
-0.000695656
0.000519132
-0.000744709
0.00067579
-0.000788614
0.000835909
-0.000825789
0.000995587
-0.000855189
0.00115101
-0.000876311
0.00129857
-0.000889086
0.00143493
-0.000893721
0.00155697
-0.000890554
0.00166184
-0.000880003
0.00174694
-0.00086263
0.00181012
-0.000839317
0.00184985
-0.000811561
0.00186556
-0.000781879
0.00185804
-0.000754259
0.00182971
-0.000734488
0.00178487
-0.00072999
0.00172946
-0.000748757
0.00167031
-0.000797208
-0.000873666
0.00161336
-0.000299754
0.000237824
-0.000875768
0.000657614
-0.00161131
0.00100663
-0.00247747
0.0012695
-0.00345232
0.00146146
-0.0045132
0.00158321
-0.00565399
0.00165029
-0.00686067
0.00166189
-0.00808453
0.00158976
-0.00924782
0.0014366
-0.0103056
0.00124484
-0.0112247
0.00106585
-0.0119691
0.000914611
-0.0124948
0.000763926
-0.0127899
0.000598869
-0.0128591
0.000416446
-0.0127179
0.000216163
-0.0123844
-8.80894e-06
-0.0118806
-0.000258533
-0.0112276
-0.000531847
-0.0104471
-0.000817978
-0.00956243
-0.00110012
-0.00859443
-0.00136142
-0.00755889
-0.0015843
-0.00648954
-0.00172541
-0.00548384
-0.00170061
-0.00467457
-0.00147192
-0.00412468
-0.00112772
-0.00379112
-0.000803426
-0.00358656
-0.000567607
-0.0034417
-0.000414538
-0.0033188
-0.000315048
-0.0032024
-0.000244582
-0.00308547
-0.00019142
-0.00296203
-0.000151049
-0.00282442
-0.000121181
-0.00266608
-9.98669e-05
-0.00249029
-8.57784e-05
-0.00228972
-7.80436e-05
-0.00206848
-7.68447e-05
-0.00183532
-8.25919e-05
-0.00160174
-9.53526e-05
-0.00137947
-0.000114537
-0.00117705
-0.000139511
-0.000993813
-0.000173474
-0.000835079
-0.00020458
-0.000698207
-0.000234196
-0.000576844
-0.000261869
-0.000463423
-0.000287275
-0.000360262
-0.000310865
-0.000270539
-0.000333344
-0.000195025
-0.000355678
-0.000133166
-0.000379312
-8.30972e-05
-0.000406167
-4.16375e-05
-0.000438361
-4.38847e-06
-0.000477838
3.38381e-05
-0.00052579
7.82772e-05
-0.000582121
0.000133296
-0.000645143
0.000201622
-0.000711751
0.000283943
-0.000777977
0.000378969
-0.000839735
0.000483828
-0.000893473
0.000594678
-0.00093664
0.000707363
-0.000967874
0.000817975
-0.000986922
0.000923211
-0.000994322
0.00102049
-0.000991003
0.00110791
-0.000977971
0.00118411
-0.000956203
0.00124824
-0.000926764
0.00130002
-0.00089109
0.00133985
-0.000851395
0.00136908
-0.000811106
0.00139006
-0.000775246
0.00140608
-0.000750508
0.00142078
-0.000744684
0.00143721
-0.000765187
0.00145667
-0.000816673
-0.000894924
0.00147793
-0.000189359
0.000427183
-0.00036664
0.000834896
-0.000419992
0.00105998
-0.000427067
0.00127658
-0.000482675
0.00151707
-0.00064428
0.00174482
-0.000927855
0.00193387
-0.00129787
0.00203191
-0.00169918
0.00199107
-0.0020451
0.00178252
-0.00221892
0.00141866
-0.00210184
0.000948774
-0.00161993
0.000432698
-0.000793615
-6.23849e-05
0.000266525
-0.000461271
0.00141216
-0.000729192
0.00251721
-0.000888884
0.00350069
-0.000992289
0.00432225
-0.0010801
0.00495389
-0.00116348
0.00536278
-0.00122687
0.00552654
-0.00126387
0.00543095
-0.00126583
0.00507869
-0.00123205
0.00449677
-0.00114349
0.00373937
-0.000943215
0.0028886
-0.000621143
0.00203957
-0.000278695
0.00126826
-3.21167e-05
0.000614895
8.57577e-05
8.99831e-05
0.000110374
-0.000313222
8.81572e-05
-0.000605796
4.7992e-05
-0.000798014
7.97577e-07
-0.000906719
-4.2344e-05
-0.000943783
-8.41169e-05
-0.000923273
-0.000120377
-0.000852348
-0.000156704
-0.000738566
-0.000191826
-0.000590061
-0.00022535
-0.000415985
-0.000256667
-0.000225948
-0.00028539
-2.93105e-05
-0.000311175
0.000164908
-0.000333729
0.000344124
-0.000352691
0.000506807
-0.000367264
0.000649706
-0.000377095
0.000769914
-0.000382077
0.000865065
-0.000382426
0.00093297
-0.000378771
0.000971911
-0.000372285
0.000981055
-0.000364823
0.000960948
-0.000359205
0.000914169
-0.000359388
0.000846006
-0.000370198
0.00076446
-0.000396291
0.000679251
-0.000440582
0.000600028
-0.000502898
0.000534592
-0.000579707
0.000487838
-0.000664997
0.000461589
-0.000751728
0.000455013
-0.00083316
0.000465302
-0.000903762
0.000488433
-0.00095977
0.000520003
-0.000999444
0.000556032
-0.00102295
0.000593558
-0.00103185
0.000630867
-0.00102831
0.000667403
-0.00101451
0.000703545
-0.000992345
0.000740416
-0.000963634
0.000779813
-0.000930488
0.000824178
-0.000895758
0.000876454
-0.000863381
0.000939685
-0.000838477
0.00101623
-0.000827053
0.00110671
-0.000835165
0.00120904
-0.000867517
0.00131817
-0.000925799
-0.00100481
0.00142805
0.000775864
-0.000348682
0.00197853
-0.00036777
0.0030568
-1.82857e-05
0.00393195
0.000401429
0.00469146
0.000757558
0.00541339
0.00102289
0.00617266
0.0011746
0.006999
0.00120556
0.007859
0.00113107
0.00865171
0.000989806
0.00927033
0.000800053
0.0096438
0.000575301
0.00973403
0.000342462
0.00951469
0.00015696
0.00899273
6.06918e-05
0.00821189
5.16408e-05
0.00723795
8.50542e-05
0.00613523
0.000110431
0.0049521
0.000103037
0.0037233
6.53161e-05
0.00248505
1.13857e-05
0.00126462
-4.34518e-05
8.33622e-05
-8.45703e-05
-0.00104869
-9.99926e-05
-0.00210481
-8.73716e-05
-0.0029864
-6.16296e-05
-0.00355449
-5.3047e-05
-0.00375682
-7.63701e-05
-0.00367135
-0.00011758
-0.00340552
-0.000180072
-0.0030491
-0.000246044
-0.00265112
-0.000309829
-0.00223952
-0.000363602
-0.00182922
-0.000409501
-0.00142137
-0.000450196
-0.00102032
-0.000485173
-0.000626588
-0.000514107
-0.000246329
-0.000536963
0.000115839
-0.000553993
0.000456139
-0.00056565
0.000771718
-0.000572247
0.00106044
-0.000574108
0.00132076
-0.000571495
0.00155155
-0.000564527
0.00175196
-0.000553097
0.00192157
-0.000536872
0.00205978
-0.000515309
0.00216555
-0.000487846
0.00223728
-0.000454157
0.00227302
-0.000414505
0.00227098
-0.000370249
0.00223043
-0.000324264
0.00215249
-0.000281273
0.00204088
-0.000247772
0.00190186
-0.000231176
0.00174375
-0.000238184
0.00157591
-0.000272747
0.00140763
-0.000334616
0.00124716
-0.00041924
0.00110115
-0.000518978
0.000974208
-0.00062479
0.000868725
-0.000727677
0.000784704
-0.00081974
0.000720018
-0.000895085
0.000671185
-0.00095061
0.000634571
-0.000986339
0.000607583
-0.00100486
0.000589317
-0.00101005
0.000580553
-0.00100574
0.000583301
-0.000995093
0.000600258
-0.000980591
0.000634351
-0.000964581
0.000688327
-0.000949735
0.00076426
-0.000939314
0.000862898
-0.000937114
0.00098291
-0.000947065
0.00112028
-0.000972537
0.00126823
-0.00101547
0.0014181
-0.00107566
-0.00114858
0.00156187
-0.000699062
0.00035038
-0.00183459
0.000767763
-0.0029855
0.00113262
-0.00393322
0.00134915
-0.00449501
0.00131935
-0.00463129
0.00115918
-0.0044056
0.000948905
-0.00393539
0.000735358
-0.00336625
0.000561928
-0.00282782
0.000451375
-0.00241238
0.000384616
-0.00217397
0.000336895
-0.00212607
0.000294561
-0.0022228
0.000253687
-0.00237232
0.000210213
-0.00247986
0.000159178
-0.00249519
0.000100381
-0.00242453
3.97722e-05
-0.00230585
-1.56381e-05
-0.00217789
-6.26497e-05
-0.00206451
-0.000101988
-0.00197216
-0.000135801
-0.00188991
-0.000166828
-0.00178962
-0.000200277
-0.00162896
-0.000248036
-0.00139089
-0.000299691
-0.00108292
-0.000361025
-0.000735544
-0.000423742
-0.000367664
-0.00048546
-2.44154e-06
-0.000545295
0.000350676
-0.000599162
0.000684915
-0.000644068
0.00100056
-0.000679246
0.00129605
-0.000704992
0.00156811
-0.000722251
0.0018145
-0.000731563
0.00203382
-0.000733426
0.00222514
-0.000728285
0.00238784
-0.000716696
0.00252156
-0.000699367
0.00262647
-0.000677163
0.00270344
-0.000651075
0.00275403
-0.000622087
0.00278051
-0.00059101
0.0027857
-0.000558286
0.00277276
-0.000523935
0.002745
-0.000487544
0.00270567
-0.000448517
0.00265785
-0.000406342
0.00260439
-0.000361041
0.00254778
-0.000313638
0.00249002
-0.000266507
0.0024324
-0.000223651
0.00237494
-0.000190314
0.00231603
-0.000172264
0.00225246
-0.000174615
0.0021803
-0.000200588
0.00209634
-0.000250654
0.00199945
-0.000322349
0.00189116
-0.000410688
0.00177523
-0.000508859
0.00165653
-0.000608977
0.00153974
-0.000702949
0.00142837
-0.00078372
0.00132462
-0.000846862
0.00123004
-0.000891754
0.00114652
-0.000921343
0.00107688
-0.000940405
0.0010246
-0.000953467
0.000993206
-0.000963696
0.000985631
-0.000973017
0.00100387
-0.000982822
0.00104874
-0.000994601
0.00111962
-0.0010102
0.00121421
-0.00103171
0.00132828
-0.00106113
0.00145566
-0.00109991
0.00158865
-0.00114846
0.00171877
-0.00120578
-0.00126926
0.00183945
0.000426795
-7.64142e-05
0.00110331
9.1249e-05
0.00190549
0.000330443
0.00280638
0.000448257
0.00365287
0.000472855
0.00430048
0.000511567
0.00462058
0.000628809
0.00453395
0.00082198
0.00405572
0.00104016
0.00332288
0.00118421
0.00255489
0.00115261
0.00197292
0.000918871
0.00171432
0.00055316
0.00179374
0.00017427
0.00212677
-0.000122822
0.00259133
-0.000305379
0.00308554
-0.000393835
0.00354609
-0.000420775
0.00394437
-0.000413918
0.0042734
-0.000391681
0.00453728
-0.000365866
0.00474593
-0.000344454
0.00491263
-0.000333532
0.00504993
-0.000337572
0.00516134
-0.000359444
0.00525971
-0.000398063
0.00534664
-0.000447959
0.0054266
-0.0005037
0.00550175
-0.000560608
0.00556911
-0.00061266
0.00562552
-0.000655568
0.00566745
-0.000686
0.0056906
-0.000702397
0.00569039
-0.000704783
0.00566239
-0.000694251
0.00560383
-0.000673002
0.00551425
-0.000643843
0.0053959
-0.000609941
0.00525356
-0.000574348
0.00509375
-0.000539563
0.00492384
-0.000507249
0.00475088
-0.000478113
0.00458076
-0.000451967
0.00441772
-0.000427974
0.00426429
-0.000404853
0.00412157
-0.000381218
0.00398995
-0.000355922
0.00386971
-0.000328281
0.00376163
-0.000298255
0.00366699
-0.000266402
0.00358727
-0.000233922
0.00352343
-0.00020266
0.00347475
-0.00017497
0.00343822
-0.000153789
0.00340828
-0.000142326
0.00337725
-0.000143586
0.00333647
-0.000159807
0.00327769
-0.000191874
0.00319452
-0.000239179
0.00308338
-0.000299539
0.00294391
-0.000369392
0.00277908
-0.000444154
0.00259487
-0.000518734
0.00239961
-0.000588465
0.00220322
-0.000650467
0.00201618
-0.000704715
0.00184846
-0.00075362
0.00170819
-0.000800139
0.00160069
-0.000845962
0.00152813
-0.000891142
0.00149009
-0.000934976
0.00148431
-0.000977037
0.00150736
-0.00101766
0.00155502
-0.00105786
0.00162232
-0.001099
0.00170356
-0.00114238
0.00179246
-0.00118881
0.00188241
-0.00123842
0.00196687
-0.00129024
-0.00134368
0.00204129
-0.000283508
0.000207094
-0.000513787
0.000321528
-0.000504348
0.000321003
-0.000462368
0.000406277
-0.000592861
0.000603348
-0.000934721
0.000853427
-0.00142675
0.00112084
-0.0019788
0.00137403
-0.0024963
0.00155767
-0.00289661
0.00158451
-0.00312438
0.00138038
-0.00315405
0.000948541
-0.00298515
0.000384257
-0.00263099
-0.000179892
-0.00211384
-0.000639964
-0.00147202
-0.000947201
-0.000746287
-0.00111957
2.19389e-05
-0.001189
0.000784285
-0.00117626
0.00150206
-0.00110945
0.00214584
-0.00100965
0.00269398
-0.000892589
0.00313218
-0.000771728
0.00345511
-0.000660506
0.00366682
-0.000571154
0.00378172
-0.000512957
0.00382383
-0.000490071
0.00381965
-0.000499526
0.00379109
-0.000532049
0.00375359
-0.000575157
0.0037148
-0.00061678
0.0036768
-0.000647996
0.00363819
-0.000663789
0.00359615
-0.000662746
0.00354829
-0.000646388
0.00349364
-0.000618348
0.00343324
-0.00058345
0.00336997
-0.00054667
0.00330785
-0.000512228
0.00325127
-0.000482982
0.00320407
-0.000460044
0.00316889
-0.000442935
0.00314683
-0.000429911
0.00313731
-0.000418452
0.00313832
-0.000405863
0.00314697
-0.000389864
0.00316009
-0.000369045
0.0031749
-0.000343094
0.00318945
-0.0003128
0.00320289
-0.000279849
0.00321545
-0.000246484
0.00322793
-0.000215134
0.0032411
-0.000188143
0.00325492
-0.000167614
0.00326789
-0.000155294
0.00327677
-0.000152466
0.00327679
-0.000159824
0.00326227
-0.000177352
0.00322732
-0.000204236
0.00316661
-0.000238829
0.00307599
-0.000278768
0.00295332
-0.000321489
0.00279996
-0.00036537
0.00262252
-0.000411027
0.00243353
-0.000461474
0.00224919
-0.000520376
0.00208499
-0.000589424
0.00195174
-0.000666888
0.00185412
-0.000748337
0.00179169
-0.000828718
0.00176092
-0.000904207
0.00175685
-0.000972963
0.00177409
-0.0010349
0.00180729
-0.00109106
0.00185125
-0.00114296
0.00190099
-0.00119211
0.00195182
-0.00123964
0.00199946
-0.00128606
0.00204019
-0.00133097
-0.00137477
0.00207128
0.00016893
3.81643e-05
0.000421012
6.94457e-05
0.000721636
2.038e-05
0.00109856
2.9348e-05
0.00156199
0.000139925
0.00213043
0.000284988
0.00281253
0.000438728
0.00360357
0.000582998
0.00446693
0.000694306
0.00530903
0.000742413
0.0059833
0.000706115
0.00634766
0.000584177
0.00633885
0.000393064
0.00600396
0.000154998
0.00547023
-0.000106231
0.00488636
-0.000363335
0.00437047
-0.000603671
0.00398367
-0.000802201
0.003758
-0.000950596
0.00367577
-0.00102722
0.00369467
-0.00102855
0.00376237
-0.00096029
0.00382658
-0.000835935
0.00384693
-0.000680856
0.0038032
-0.00052743
0.00369569
-0.000405446
0.00353813
-0.000332513
0.00334735
-0.000308738
0.003135
-0.000319707
0.00290546
-0.00034561
0.00265901
-0.00037033
0.00239684
-0.000385828
0.0021247
-0.00039165
0.00185393
-0.00039198
0.0015997
-0.000392156
0.00137724
-0.000395892
0.0011978
-0.000404001
0.00106629
-0.000415161
0.000981211
-0.000427153
0.000936189
-0.00043796
0.000922414
-0.000446269
0.000930553
-0.000451075
0.000952212
-0.000451569
0.00098083
-0.000447069
0.00101205
-0.00043708
0.00104366
-0.000421473
0.00107527
-0.000400663
0.0011078
-0.000375615
0.00114282
-0.000347822
0.00118211
-0.000319137
0.00122714
-0.000291514
0.00127871
-0.000266708
0.00133668
-0.000246112
0.00139966
-0.000230589
0.00146482
-0.00022046
0.00152793
-0.000215577
0.00158362
-0.000215506
0.00162609
-0.000219829
0.00165037
-0.000228508
0.00165365
-0.000242111
0.00163665
-0.00026177
0.00160416
-0.000288999
0.00156453
-0.000325739
0.00152791
-0.000374405
0.00150351
-0.00043708
0.00149695
-0.000513817
0.00150906
-0.000601532
0.00153686
-0.000694689
0.00157576
-0.000787237
0.00162141
-0.000874362
0.00167043
-0.000953226
0.00172031
-0.00102284
0.00176898
-0.00108357
0.00181453
-0.00113662
0.00185519
-0.00118362
0.00188936
-0.00122628
0.00191579
-0.00126607
0.00193359
-0.00130386
0.00194232
-0.00133971
-0.00137391
0.00194147
-0.000518512
0.000556676
-0.00186082
0.00141175
-0.00366147
0.00182104
-0.00535426
0.00172213
-0.00652855
0.00131422
-0.00710054
0.000856981
-0.00713032
0.000468505
-0.00671223
0.000164912
-0.0059449
-7.30284e-05
-0.0049336
-0.000268887
-0.00378573
-0.000441753
-0.00260746
-0.000594092
-0.00147291
-0.000741484
-0.000430486
-0.000887428
0.000497832
-0.00103455
0.00130974
-0.00117525
0.00199886
-0.00129279
0.00256639
-0.00136973
0.0030145
-0.00139871
0.00335793
-0.00137065
0.00360871
-0.00127933
0.00377375
-0.00112533
0.00385848
-0.000920668
0.0038689
-0.000691277
0.00380143
-0.000459954
0.00366883
-0.000272852
0.00347179
-0.000135467
0.00320538
-4.23331e-05
0.00286663
1.90411e-05
0.00246058
6.04411e-05
0.00200254
8.7709e-05
0.00151563
0.000101087
0.00102501
9.89728e-05
0.000552583
8.04427e-05
0.000114398
4.60285e-05
-0.000279574
-1.9198e-06
-0.000624378
-5.91962e-05
-0.000918965
-0.000120574
-0.00116518
-0.000180938
-0.00136692
-0.00023622
-0.00152919
-0.000283996
-0.00165674
-0.000323527
-0.00175345
-0.000354856
-0.00182205
-0.000378472
-0.00186412
-0.000395012
-0.00188045
-0.000405137
-0.00187156
-0.000409556
-0.00183808
-0.000409096
-0.00178116
-0.00040474
-0.00170268
-0.000397624
-0.00160522
-0.000388972
-0.00149193
-0.000379995
-0.00136626
-0.000371786
-0.0012316
-0.000365243
-0.00109102
-0.000361045
-0.00094688
-0.000359714
-0.000800606
-0.00036178
-0.000652419
-0.000368016
-0.000501251
-0.000379676
-0.000344847
-0.000398515
-0.000180164
-0.000426453
-4.21531e-06
-0.000464947
0.000184531
-0.000514485
0.000384431
-0.000574306
0.000589869
-0.000642518
0.000792357
-0.000716305
0.00098312
-0.000792295
0.00115553
-0.000867098
0.00130614
-0.000937847
0.00143425
-0.00100248
0.00154081
-0.00105978
0.00162728
-0.00110932
0.00169512
-0.0011514
0.00174554
-0.00118704
0.00177971
-0.00121778
0.00179892
-0.0012455
0.00180474
-0.00127189
0.00179894
-0.00129806
0.00178341
-0.00132419
-0.00135
0.00175951
0.000439947
0.000116729
0.00100701
0.000844684
0.0013942
0.00143385
0.00160979
0.00150653
0.00169642
0.0012276
0.00170184
0.000851559
0.00167715
0.000493197
0.00166592
0.000176139
0.00169533
-0.00010244
0.00176427
-0.000337828
0.00185331
-0.000530795
0.00194366
-0.000684442
0.00200269
-0.000800514
0.00199779
-0.000882526
0.00189482
-0.000931574
0.0016627
-0.000943132
0.00127835
-0.000908441
0.000746422
-0.000837796
8.11857e-05
-0.000733472
-0.000682078
-0.00060739
-0.00148545
-0.000475959
-0.00225732
-0.000353461
-0.00292399
-0.000253993
-0.00342525
-0.000190024
-0.00371585
-0.000169354
-0.00381528
-0.000173421
-0.00376706
-0.000183683
-0.00363151
-0.00017788
-0.0034622
-0.00015027
-0.00328783
-0.000113935
-0.00311549
-8.46304e-05
-0.00294458
-6.98193e-05
-0.002774
-7.16137e-05
-0.00260375
-8.9798e-05
-0.00243668
-0.000121043
-0.0022782
-0.0001604
-0.00213422
-0.000203178
-0.00200874
-0.000246051
-0.00190305
-0.000286633
-0.00181626
-0.000323011
-0.00174632
-0.000353936
-0.00169096
-0.000378879
-0.00164791
-0.000397908
-0.00161483
-0.000411558
-0.00158918
-0.000420655
-0.00156813
-0.000426187
-0.00154849
-0.000429193
-0.00152689
-0.000430697
-0.00149997
-0.000431663
-0.00146462
-0.000432977
-0.00141815
-0.000435436
-0.0013584
-0.000439749
-0.00128365
-0.00044653
-0.00119261
-0.000456291
-0.00108421
-0.000469439
-0.00095764
-0.000486288
-0.000812324
-0.000507095
-0.000648223
-0.000532118
-0.00046622
-0.000561678
-0.00026858
-0.000596155
-5.91727e-05
-0.00063586
0.000156713
-0.000680833
0.000372843
-0.000730614
0.000582787
-0.00078425
0.000780639
-0.000840369
0.000961706
-0.000897372
0.001123
-0.000953594
0.0012633
-0.00100739
0.00138264
-0.00105719
0.00148174
-0.00110158
0.00156148
-0.00113952
0.00162265
-0.00117049
0.001666
-0.00119475
0.0016924
-0.00121344
0.00170303
-0.00122842
0.00169951
-0.00124198
0.00168386
-0.00125623
0.00165834
-0.00127254
0.00162525
-0.0012911
-0.00131113
0.00158638
-0.000213651
0.00033038
0.000274523
0.00035651
0.00144878
0.0002596
0.00271573
0.000239575
0.0037192
0.000224131
0.00439423
0.000176523
0.00478186
0.000105573
0.0049141
4.38954e-05
0.00478801
2.36473e-05
0.00437575
7.44331e-05
0.00365549
0.00018947
0.00264735
0.0003237
0.00142268
0.000424156
7.67693e-05
0.000463382
-0.00129676
0.000441958
-0.0026143
0.00037441
-0.00380309
0.00028034
-0.00483181
0.000190932
-0.00567266
0.000107377
-0.00630794
2.7884e-05
-0.00672938
-5.45124e-05
-0.00693445
-0.000148389
-0.00692961
-0.000258839
-0.00673947
-0.000380163
-0.00641832
-0.000490505
-0.0060352
-0.000556536
-0.0056626
-0.000556289
-0.00534208
-0.000498397
-0.00507621
-0.000416139
-0.00482075
-0.000369393
-0.00453941
-0.000365975
-0.00423292
-0.000376312
-0.00391784
-0.000386691
-0.00361234
-0.000395297
-0.00332632
-0.000407061
-0.00306211
-0.000424617
-0.00281784
-0.000447444
-0.00259084
-0.000473052
-0.00237915
-0.000498323
-0.00218161
-0.000520554
-0.00199752
-0.000538019
-0.00182635
-0.000550053
-0.00166741
-0.000556844
-0.00151983
-0.000559137
-0.00138249
-0.000558
-0.00125409
-0.00055459
-0.0011332
-0.000550075
-0.00101833
-0.000545573
-0.000907872
-0.000542119
-0.000800203
-0.000540646
-0.000693674
-0.000541966
-0.000586669
-0.000546755
-0.000477664
-0.000555534
-0.000365294
-0.000568661
-0.000248408
-0.000586324
-0.000126141
-0.000608554
2.00616e-06
-0.000635242
0.000136053
-0.000666164
0.000275379
-0.000701005
0.000418586
-0.000739362
0.000563463
-0.000780737
0.000707152
-0.000824523
0.00084655
-0.000870012
0.000978692
-0.000916393
0.00110108
-0.00096276
0.00121182
-0.00100811
0.00130954
-0.00105132
0.00139335
-0.0010912
0.0014627
-0.00112653
0.00151736
-0.00115624
0.00155738
-0.00117954
0.00158315
-0.00119625
0.00159531
-0.00120692
0.00159488
-0.001213
0.00158317
-0.0012167
0.00156176
-0.00122057
0.00153239
-0.00122687
0.00149683
-0.00123698
0.00145676
-0.00125103
-0.00126788
0.00141351
0.000800477
-0.000470097
0.00218081
-0.00102382
0.00376171
-0.00132129
0.005504
-0.00150272
0.00733145
-0.00160332
0.00912546
-0.00161748
0.0107486
-0.0015176
0.0120613
-0.0012688
0.0129375
-0.000852533
0.0133092
-0.000297284
0.0131956
0.000303078
0.0126993
0.000819996
0.011964
0.00115943
0.0111293
0.00129812
0.0103006
0.00127067
0.00953515
0.00113985
0.00884714
0.000968348
0.00823872
0.000799349
0.00769398
0.000652123
0.00719215
0.000529709
0.00669598
0.000441654
0.006171
0.000376596
0.00558585
0.000326314
0.00490328
0.000302399
0.00413081
0.000281973
0.00330866
0.000265612
0.00249473
0.000257639
0.0017436
0.000252731
0.0010969
0.000230558
0.000555959
0.000171553
0.000107047
8.29369e-05
-0.000260669
-8.59535e-06
-0.000540488
-0.000106872
-0.000742555
-0.00019323
-0.000876403
-0.000273213
-0.000950874
-0.000350146
-0.000976391
-0.000421928
-0.00096418
-0.000485262
-0.000925115
-0.000537388
-0.000868516
-0.000577153
-0.000801483
-0.000605051
-0.000728887
-0.000622649
-0.000653717
-0.000632014
-0.000577572
-0.000635283
-0.000501172
-0.000634399
-0.0004247
-0.000631063
-0.000348044
-0.000626731
-0.000270946
-0.000622672
-0.000193054
-0.000620011
-0.000113959
-0.000619741
-3.3205e-05
-0.000622719
4.96674e-05
-0.000629627
0.000135097
-0.000640964
0.000223443
-0.000657007
0.000314911
-0.000677793
0.000409485
-0.000703128
0.000506842
-0.000732599
0.000606298
-0.00076562
0.000706768
-0.000801474
0.000806783
-0.000839377
0.000904573
-0.000878526
0.000998194
-0.000918144
0.00108569
-0.000957506
0.00116523
-0.000995939
0.00123528
-0.00103281
0.00129464
-0.00106747
0.00134256
-0.00109924
0.00137875
-0.00112739
0.00140337
-0.00115115
0.00141697
-0.00116984
0.00142046
-0.00118303
0.001415
-0.00119078
0.00140194
-0.00119386
0.00138274
-0.00119381
0.00135883
-0.00119279
0.00133144
-0.00119317
0.00130145
-0.00119689
0.00126948
-0.00120501
0.00123596
-0.0012175
-0.00123323
0.00120131
-0.000247159
-0.000222938
-0.000786007
-0.000484976
-0.00139834
-0.000708957
-0.00194542
-0.000955648
-0.00239816
-0.00115058
-0.00278809
-0.00122756
-0.00315
-0.00115568
-0.00348578
-0.000933017
-0.00376062
-0.000577702
-0.00389075
-0.000167146
-0.00377596
0.00018828
-0.00336245
0.000406488
-0.00267821
0.000475196
-0.00181506
0.000434974
-0.00088985
0.000345457
-2.0193e-05
0.000270196
0.000687049
0.000261105
0.00115282
0.000333575
0.00137218
0.000432768
0.00143232
0.000469568
0.00145982
0.000414151
0.00149625
0.000340166
0.00149569
0.000326873
0.00144894
0.000349151
0.00135506
0.000375851
0.00123882
0.000381858
0.00113389
0.000362567
0.00106206
0.000324562
0.00101471
0.000277911
0.000953718
0.000232541
0.000839883
0.000196771
0.000667444
0.000163844
0.00044524
0.000115332
0.00020297
4.90402e-05
-3.50425e-05
-3.5201e-05
-0.000248968
-0.00013622
-0.000441124
-0.000229772
-0.000599937
-0.000326449
-0.000721907
-0.000415418
-0.000808173
-0.000490887
-0.000861799
-0.000551425
-0.000886382
-0.000598067
-0.000885298
-0.000633098
-0.000861463
-0.000659118
-0.000817388
-0.000678474
-0.000755392
-0.000693058
-0.000677755
-0.000704368
-0.000586775
-0.000713651
-0.000484767
-0.00072202
-0.00037402
-0.000730489
-0.000256768
-0.000739971
-0.000135143
-0.000751251
-1.11756e-05
-0.000764932
0.000113219
-0.0007814
0.000236233
-0.000800808
0.00035617
-0.000823065
0.000471437
-0.000847866
0.000580554
-0.000874736
0.000682175
-0.000903095
0.00077512
-0.000932321
0.000858411
-0.000961817
0.000931316
-0.000991048
0.000993366
-0.00101956
0.00104437
-0.00104695
0.00108441
-0.00107284
0.00111378
-0.00109684
0.001133
-0.00111845
0.00114274
-0.00113713
0.0011439
-0.00115231
0.0011376
-0.00116354
0.00112522
-0.00117065
0.00110839
-0.00117396
0.00108887
-0.00117434
0.00106832
-0.00117325
0.00104799
-0.00117247
0.00102856
-0.00117374
0.00101004
-0.00117837
0.000991976
-0.00118695
0.00097384
-0.00119937
-0.00121495
0.000955557
-0.000400952
0.000178014
-0.000942974
5.70458e-05
-0.00147621
-0.000175724
-0.0021263
-0.000305551
-0.00293347
-0.000343409
-0.00383146
-0.000329567
-0.00472326
-0.000263884
-0.00552262
-0.000133653
-0.00614825
4.7926e-05
-0.00652977
0.000214371
-0.00665808
0.000316592
-0.00658429
0.000332695
-0.00639621
0.000287121
-0.00618778
0.000226542
-0.00603364
0.000191319
-0.00597028
0.000206831
-0.00598485
0.000275682
-0.00604402
0.000392738
-0.0061102
0.000498951
-0.00615803
0.000517396
-0.0061693
0.000425418
-0.00611435
0.000285218
-0.00596224
0.000174765
-0.00573075
0.000117665
-0.00545076
9.58545e-05
-0.00515676
8.78572e-05
-0.00487579
8.16034e-05
-0.00462396
7.27292e-05
-0.00440437
5.83265e-05
-0.00420879
3.69557e-05
-0.0040194
7.38076e-06
-0.00382047
-3.50872e-05
-0.00361066
-9.44792e-05
-0.0033948
-0.000166817
-0.00315533
-0.000274666
-0.00290257
-0.000388982
-0.00263204
-0.0005003
-0.00235833
-0.000600164
-0.00209254
-0.000681208
-0.00184368
-0.000739751
-0.00161869
-0.000776412
-0.00142126
-0.000795493
-0.00125115
-0.000803212
-0.00110479
-0.000805478
-0.000976892
-0.000806371
-0.000862041
-0.00080791
-0.00075567
-0.000810738
-0.000654376
-0.000814945
-0.000555807
-0.000820588
-0.000458465
-0.00082783
-0.000361537
-0.000836898
-0.000264791
-0.000847997
-0.000168482