/*--------------------------------*- C++ -*----------------------------------*\
| =========                 |                                                 |
| \\      /  F ield         | OpenFOAM: The Open Source CFD Toolbox           |
|  \\    /   O peration     | Version:  2012                                  |
|   \\  /    A nd           | Website:  www.openfoam.com                      |
|    \\/     M anipulation  |                                                 |
\*---------------------------------------------------------------------------*/
FoamFile
{
    version     2.0;
    format      ascii;
    class       volScalarField;
    location    "0.11";
    object      p;
}
// * * * * * * * * * * * * * * * * * * * * * * * * * * * * * * * * * * * * * //

dimensions      [0 2 -2 0 0 0 0];


internalField   nonuniform List<scalar> 
42400
(
8892.82
8656.97
8417.06
8159.54
7795.05
7353.37
6813.51
6164.26
5417.39
4598.76
3740.02
2870.2
2014.45
1197.1
443.14
-223.17
-776.689
-1190.52
-1444.43
-1540.37
-1508.25
-1389.4
-1213.9
-1000.83
-774.246
-563.003
-386.625
-249.844
-147.758
-72.573
-17.3927
22.8163
51.4516
70.7209
82.7013
89.2505
91.6327
91.0535
88.431
84.4844
79.7937
74.7297
69.5479
64.4173
59.4674
54.7295
50.1371
45.5821
41.1791
36.9872
33.0739
29.5869
26.6812
24.2993
22.5875
21.786
21.7923
22.4456
23.5755
25.0121
26.5963
28.19
29.6837
31.0004
32.0939
32.9432
33.5455
33.9101
34.0543
34.001
33.7763
33.4086
32.927
32.3608
31.7391
31.0916
30.4513
29.8628
29.3704
29.0469
3222.09
3294.33
3390.89
3445.24
3449.45
3384.72
3290.98
3210.48
3167.3
3163.17
3185.3
3214.5
3232.24
3224.33
3182.2
3102.39
2985.31
2833.85
2652.37
2446.2
2221.28
1985.5
1748.77
1521.11
1309.82
1118.11
946.183
792.623
655.917
534.897
428.788
337.053
259.417
195.297
143.5
102.793
72.0159
49.6006
34.1222
24.0646
17.9845
14.6999
13.2589
12.9035
12.8283
12.5503
11.4076
9.23094
5.89764
1.83891
-2.33211
-5.74408
-7.57523
-7.27915
-4.91984
-1.49654
2.41107
6.42531
10.3707
14.2012
17.897
21.4105
24.6727
27.6185
30.2047
32.4115
34.2359
35.6859
36.777
37.5313
37.9778
38.152
38.0957
37.8557
37.4829
37.03
36.5514
36.1018
35.7283
35.4901
-3643.42
-3204.73
-2608.12
-1985.78
-1314.9
-664.846
-27.4869
584.46
1142.06
1618.18
1993.89
2258.53
2407.59
2441.76
2370.45
2212.56
1994.83
1747.3
1495.89
1257.44
1039.55
843.432
667.977
511.21
371.602
248.292
140.835
48.8231
-28.2064
-90.8037
-139.622
-175.467
-199.417
-212.413
-215.759
-210.953
-199.924
-184.28
-165.464
-144.697
-123.087
-101.717
-81.7514
-63.7152
-47.7994
-34.2742
-23.0601
-14.3317
-8.20498
-4.56811
-3.06781
-3.10138
-3.87307
-4.66071
-5.11827
-4.85735
-3.79305
-1.5911
1.77827
6.2541
11.5237
17.1132
22.5363
27.4418
31.6566
35.1415
37.9293
40.0831
41.675
42.778
43.4632
43.7992
43.8533
43.6915
43.3784
42.976
42.5423
42.1289
41.7968
41.5597
2159.4
1973.88
1735.39
1442.2
1071.37
635.823
141.281
-401.483
-981.617
-1593.81
-2233.91
-2890.67
-3538.78
-4137.11
-4634.58
-4981.26
-5143.18
-5112.56
-4908.38
-4568.53
-4138.89
-3661.11
-3171.51
-2696.37
-2254.02
-1857.12
-1510.68
-1217.21
-974.943
-779.219
-623.858
-501.972
-406.793
-332.33
-273.647
-226.883
-188.891
-157.882
-132.819
-112.928
-97.4984
-85.6301
-76.0322
-67.8394
-60.5724
-53.6793
-46.7712
-39.7423
-32.7011
-25.8669
-19.4268
-13.3575
-7.34218
-0.924888
6.17969
13.8821
21.8489
29.5623
36.5921
43.0059
47.9608
51.4782
53.686
54.7789
55.0648
54.8607
54.4149
53.8835
53.3439
52.8197
52.3054
51.7856
51.2473
50.6863
50.1086
49.5289
48.9671
48.4474
47.9976
47.6121
-13079.5
-12691.8
-12240.5
-11749
-11198.9
-10599.2
-9930.63
-9173.59
-8317.16
-7370.39
-6362.04
-5323.87
-4276.62
-3239.46
-2250.07
-1363.01
-627.157
-64.7341
333.105
593.92
749.362
827.119
847.738
826.323
773.848
698.369
606.568
503.819
395.114
285.324
179.224
81.1655
-5.4603
-78.5548
-137.316
-182.072
-213.882
-234.145
-244.318
-246.025
-240.247
-228.077
-210.888
-190.224
-167.223
-142.905
-118.104
-93.4192
-69.2755
-46.0038
-23.9185
-3.35565
15.3382
31.8424
45.8905
57.2881
65.9518
71.9513
75.4837
76.3172
75.3282
73.3862
70.9572
68.4601
66.1785
64.2403
62.6688
61.4277
60.4523
59.6682
59.0051
58.4039
57.8219
57.2333
56.6287
56.0106
55.3904
54.7854
54.2071
53.6868
5873.46
5749.01
5586.57
5377.77
5048.91
4694.52
4375.76
4169.11
4147.55
4323.95
4606.79
4840.96
4915.16
4817.47
4593.3
4287.89
3929.53
3538.07
3131.31
2726.27
2336.61
1968.82
1628.14
1317.29
1038.45
793.998
585.852
414.013
275.477
164.639
75.2336
2.42921
-56.4728
-102.688
-136.979
-160.361
-174.222
-180.232
-180.115
-174.891
-165.674
-153.696
-139.714
-124.621
-108.701
-92.0658
-74.8191
-57.1202
-39.2325
-21.5327
-4.48312
11.4298
25.775
38.243
48.6744
57.0465
63.4346
67.9806
70.8711
72.3827
73.1239
73.019
72.3707
71.4597
70.4686
69.5051
68.6196
67.8252
67.1134
66.4645
65.8533
65.2534
64.6413
64.0002
63.3218
62.6068
61.8642
61.1067
60.3374
59.6222
13614.5
13353.7
12912.1
12193.5
11201.3
10122.6
9065.67
8049.62
7049.04
6033.2
4981.22
3896.54
2830.78
1855.65
1021
339.19
-207.017
-642.459
-984.57
-1241.76
-1418.02
-1517.49
-1546.17
-1511.97
-1425.55
-1301.4
-1156.6
-1006.94
-863.343
-731.185
-612.532
-507.966
-417.51
-340.741
-276.696
-223.963
-180.904
-145.828
-117.139
-93.5479
-74.3163
-58.3448
-44.88
-32.8517
-21.6945
-11.0529
-0.716984
9.39967
19.2791
28.8195
37.8618
46.2214
53.7214
60.2248
65.6529
69.9855
73.2502
75.5213
76.9214
77.6131
77.7803
77.5602
77.078
76.4428
75.7382
75.0231
74.3351
73.694
73.1043
72.5566
72.0303
71.4976
70.9303
70.305
69.6077
68.835
67.9938
67.0942
66.138
65.2207
-14562
-13923.7
-13201.8
-12563.4
-11890.3
-11162.6
-10375.9
-9578.48
-8825.84
-8163.86
-7612.08
-7144.77
-6703.23
-6230.3
-5698.98
-5114.52
-4498.92
-3876.95
-3266.21
-2676.26
-2112.48
-1580.81
-1091.1
-658.831
-307.432
-60.3539
75.3921
119.179
107.138
72.8894
36.8188
7.55784
-12.695
-24.4675
-29.0174
-27.8296
-22.4345
-14.2325
-4.3723
6.26744
17.0878
27.3993
36.8522
45.2759
52.617
58.9007
64.1999
68.6116
72.2398
75.1876
77.5512
79.4172
80.8631
81.9532
82.7434
83.2875
83.6263
83.7905
83.8044
83.6904
83.4639
83.1367
82.7216
82.2358
81.7
81.1358
80.5634
79.9973
79.4429
78.894
78.3335
77.7374
77.0816
76.3472
75.524
74.6113
73.6172
72.5515
71.422
70.3233
-3462.65
-3261.65
-2952.26
-2550.42
-2076.94
-1641.88
-1296.74
-1049.07
-876.46
-748.688
-640.384
-539.114
-442.975
-349.87
-255.387
-169.589
-126.678
-157.619
-257.579
-392.899
-524.584
-620.597
-658.583
-630.363
-546.191
-431.802
-313.732
-206.975
-115
-36.4881
29.0462
81.4174
120.785
148.291
165.663
174.971
178.33
177.619
174.372
169.729
164.438
158.955
153.547
148.312
143.283
138.447
133.772
129.234
124.786
120.482
116.387
112.553
109.036
105.887
103.135
100.786
98.8167
97.1781
95.8034
94.6197
93.5574
92.5598
91.5884
90.6243
89.6658
88.7225
87.8076
86.9302
86.0887
85.2696
84.4496
83.6018
82.7028
81.7371
80.6985
79.5896
78.4198
77.2003
75.944
74.7202
8123.57
7963.7
7792.14
7598.72
7360.09
7083.71
6750.43
6343.31
5854.64
5278
4602.27
3810.96
2919.66
2058.74
1449.87
1195.97
1167.52
1189.44
1212.44
1251.94
1301.48
1341.76
1359.99
1349.42
1308.64
1241.9
1156.95
1061.74
962.407
864.294
771.443
686.639
611.047
544.715
487.038
437.132
394.071
356.998
325.141
297.8
274.32
254.086
236.515
221.116
207.462
195.202
184.072
173.889
164.569
156.012
148.169
141.041
134.635
128.949
123.962
119.631
115.893
112.666
109.861
107.389
105.172
103.148
101.275
99.5309
97.9064
96.3997
95.0074
93.7171
92.5058
91.3413
90.189
89.0188
87.8106
86.5556
85.2549
83.9167
82.5532
81.1769
79.7998
78.4661
791.059
959.8
1215.18
1493.2
1788.25
2083.67
2386.93
2668.11
2884.73
3010.7
3041.05
2993.55
2914.93
2862.08
2858.11
2865.3
2824.68
2717.77
2569.89
2410.3
2252.26
2098.24
1947
1796.81
1646.79
1497.38
1350.1
1206.82
1070.14
942.36
825.729
721.555
630.188
551.175
483.718
426.958
379.79
341.133
309.876
284.817
264.698
248.296
234.539
222.584
211.835
201.915
192.612
183.826
175.527
167.718
160.42
153.659
147.448
141.787
136.657
132.025
127.845
124.069
120.646
117.528
114.675
112.049
109.625
107.383
105.308
103.389
101.608
99.9396
98.353
96.8149
95.2961
93.776
92.2444
90.7004
89.1496
87.6009
86.0646
84.5491
83.0604
81.6254
5591.98
5436.7
5262.52
5059.06
4793.19
4466.42
4078.78
3640.05
3163.88
2664.44
2158.07
1661.92
1191.34
757.873
366.627
18.3846
-284.094
-533.687
-721.478
-840.751
-890.292
-876.631
-813.467
-716.768
-599.764
-471.933
-340.589
-212.989
-96.496
3.62169
84.6935
146.284
189.697
217.511
232.92
239.071
239.068
235.425
229.925
223.409
216.691
210.209
204.072
198.243
192.624
187.125
181.688
176.295
170.956
165.704
160.582
155.639
150.91
146.421
142.182
138.189
134.433
130.903
127.582
124.455
121.506
118.723
116.095
113.614
111.27
109.054
106.95
104.938
102.998
101.111
99.2633
97.4463
95.658
93.8993
92.1737
90.485
88.8373
87.2326
85.6708
84.1691
-12787.9
-12355.5
-11815.2
-11158.3
-10325.5
-9325.58
-8179.03
-6945.12
-5716.09
-4590.62
-3638.23
-2879.83
-2300.62
-1875.24
-1580.15
-1393.04
-1290.72
-1248.4
-1240.25
-1242.65
-1238.9
-1220.3
-1183.77
-1130.19
-1062.36
-983.702
-896.621
-802.781
-703.438
-600.432
-496.783
-395.125
-298.221
-208.925
-129.889
-62.453
-7.06632
36.931
70.6974
96.0429
114.399
127.223
135.887
141.547
145.125
147.3
148.531
149.088
149.116
148.682
147.829
146.595
145.019
143.148
141.028
138.708
136.237
133.66
131.019
128.348
125.677
123.029
120.423
117.874
115.393
112.986
110.656
108.399
106.212
104.089
102.026
100.022
98.0752
96.1863
94.3556
92.5837
90.8708
89.2153
87.6143
86.0786
3776.59
3428.86
2962.12
2396.66
1663.18
880.687
107.314
-599.377
-1188.4
-1631.45
-1926.78
-2089.92
-2141.87
-2102.3
-1989.13
-1820.22
-1613.79
-1387.47
-1156.2
-930.245
-715.559
-516.041
-336.366
-182.123
-58.9411
30.428
87.4004
117.079
126.135
120.823
107.443
90.889
75.2259
63.4874
57.4578
57.4728
62.3115
69.7291
77.8984
85.7685
93.0292
99.7881
106.214
112.385
118.235
123.643
128.473
132.612
135.982
138.546
140.31
141.31
141.605
141.269
140.385
139.037
137.311
135.289
133.042
130.632
128.112
125.526
122.909
120.293
117.7
115.153
112.666
110.252
107.919
105.669
103.503
101.419
99.4141
97.4843
95.6267
93.8387
92.118
90.4609
88.8631
87.3312
3386.25
3594.39
3908.38
4263.92
4620.04
4916.2
5141.89
5286.65
5333.97
5268.71
5085.51
4794.31
4419.41
3994.02
3551.26
3119.37
2719.75
2364.36
2055.12
1787.84
1552.86
1339.27
1139.46
950.673
773.663
610.518
463.243
333.686
222.775
132.021
61.1966
9.02632
-25.59
-43.4322
-45.621
-34.0587
-11.8431
16.582
45.9599
71.735
92.1533
107.325
118.379
126.491
132.511
136.998
140.324
142.73
144.371
145.342
145.707
145.524
144.847
143.734
142.241
140.426
138.346
136.055
133.604
131.04
128.404
125.734
123.061
120.412
117.81
115.272
112.811
110.433
108.14
105.931
103.805
101.759
99.7891
97.8938
96.0704
94.3169
92.6311
91.0096
89.4478
87.9501
1674.16
1567.1
1421.84
1242.25
1024.91
782.207
519.723
242.133
-47.7131
-347.981
-653.82
-955.848
-1240.41
-1491.85
-1694.04
-1832.23
-1895.86
-1877.4
-1779.72
-1617.38
-1414.1
-1195.43
-980.963
-781.394
-599.988
-435.755
-287.022
-154.546
-40.8157
51.237
122.152
175.311
214.48
242.306
260.298
269.529
271.346
267.51
259.633
249.477
238.39
227.618
217.83
209.184
201.529
194.595
188.147
182.049
176.249
170.743
165.541
160.636
156.044
151.735
147.683
143.862
140.241
136.795
133.503
130.349
127.322
124.413
121.618
118.933
116.353
113.875
111.496
109.211
107.017
104.91
102.886
100.943
99.075
97.2806
95.5566
93.9002
92.3091
90.7791
89.3063
87.8923
-7244.15
-6970.26
-6609.75
-6169.98
-5646.74
-5077.39
-4482.55
-3885.85
-3310.97
-2776.84
-2295.56
-1868.66
-1485.11
-1126.6
-780.194
-449.641
-150.74
98.8246
287.219
405.477
447.778
418.782
336.483
228.165
122.646
42.2917
-2.73488
-15.8638
-8.82351
8.26504
30.7332
57.2978
87.193
118.904
150.338
179.243
203.584
222.06
233.817
238.831
238.142
233.314
225.734
216.65
207.059
197.641
188.79
180.682
173.354
166.764
160.836
155.485
150.628
146.19
142.106
138.324
134.797
131.492
128.379
125.436
122.643
119.987
117.455
115.037
112.724
110.509
108.387
106.35
104.395
102.517
100.711
98.9734
97.3008
95.6902
94.1393
92.6461
91.2086
89.8237
88.4886
87.203
10212.7
9977.81
9716
9392.15
8905.55
8294.56
7565.15
6730.37
5802.61
4783.9
3679.46
2529.87
1440.47
548.786
-76.9316
-487.158
-770.381
-961.715
-1054.19
-1051.53
-979.365
-867.101
-739.312
-612.721
-495.481
-389.67
-295.174
-212.09
-140.751
-80.752
-30.7147
11.2053
46.69
76.8679
102.271
123.098
139.533
151.688
160.131
165.666
168.87
169.994
169.506
167.825
165.286
162.155
158.639
154.901
151.068
147.236
143.477
139.842
136.364
133.064
129.95
127.02
124.267
121.68
119.245
116.947
114.771
112.703
110.73
108.843
107.032
105.288
103.606
101.98
100.405
98.8786
97.3978
95.9605
94.5655
93.212
91.8996
90.6282
89.3975
88.2059
87.0525
85.9357
-4567.32
-4084.55
-3453.08
-2835.4
-2223.06
-1693.44
-1223.07
-797.736
-423.766
-116.39
114.371
269.854
361.232
400.201
390.914
336.708
255.555
179.713
136.101
132.104
158.712
199.983
242.143
276.614
300.032
312.136
313.636
306.367
292.396
274.206
254.594
236.144
220.551
208.298
199.065
191.675
185.27
179.35
173.563
167.774
161.96
156.164
150.467
144.965
139.752
134.904
130.478
126.504
122.989
119.92
117.266
114.985
113.029
111.344
109.879
108.585
107.417
106.338
105.316
104.328
103.354
102.381
101.402
100.411
99.4044
98.3833
97.3484
96.302
95.2474
94.1881
93.1283
92.0719
91.023
89.9855
88.963
87.9588
86.9757
86.0148
85.0779
84.1623
-5751.88
-5449.53
-5042.8
-4583.88
-4037.15
-3458.06
-2852.66
-2235.86
-1631.93
-1067.82
-566.884
-141.902
209.123
496.774
728.138
904.824
1032.32
1124.37
1195.73
1253.17
1293.23
1306.78
1286.13
1230.15
1144.73
1039.89
926.476
811.882
702.014
601.041
511.452
434.419
369.936
316.922
273.308
237.156
206.711
180.749
158.526
139.714
124.032
111.188
100.878
92.7926
86.6365
82.137
79.0456
77.1376
76.2097
76.0778
76.5732
77.5419
78.8431
80.3497
81.9499
83.5482
85.0674
86.4487
87.6514
88.6516
89.4394
90.016
90.3909
90.5787
90.5974
90.4667
90.2063
89.8359
89.3739
88.8373
88.2416
87.6007
86.9268
86.2303
85.5204
84.8046
84.0892
83.3787
82.6774
81.9814
227.663
-151.918
-611.821
-1107.82
-1682.84
-2271.01
-2863.25
-3455.9
-4041.12
-4602.52
-5111.38
-5530.23
-5822.09
-5961.74
-5944.32
-5784.31
-5513.11
-5164.21
-4766.47
-4342.67
-3910.74
-3485.01
-3077.06
-2695.79
-2347.62
-2035.89
-1760.99
-1521.97
-1316.28
-1140.41
-990.213
-861.139
-748.584
-648.819
-558.86
-476.803
-401.55
-333.168
-272.035
-220.419
-180.249
-151.883
-134.591
-126.18
-123.587
-123.823
-124.757
-125.34
-125.32
-124.797
-123.933
-122.837
-121.561
-120.132
-118.569
-116.892
-115.122
-113.283
-111.398
-109.484
-107.555
-105.619
-103.679
-101.737
-99.789
-97.8317
-95.8606
-93.8715
-91.8608
-89.8256
-87.7643
-85.676
-83.5613
-81.4214
-79.2584
-77.0752
-74.8753
-72.6588
-70.4326
-68.1991
-7362.65
-7023.06
-6567.26
-6040.98
-5462.09
-4899.94
-4372.33
-3884.9
-3439.63
-3037.54
-2678.29
-2360.01
-2080.79
-1841.15
-1642.61
-1484.78
-1363.45
-1271.59
-1200.03
-1140.28
-1086.12
-1032.82
-978.287
-922.603
-867.653
-816.523
-773.262
-740.942
-719.92
-707.276
-697.993
-686.95
-670.404
-646.548
-615.748
-578.487
-535.366
-487.123
-435.999
-384.17
-333.601
-286.355
-243.916
-207.513
-177.804
-154.663
-137.388
-125.126
-117.011
-111.887
-108.893
-107.317
-106.579
-106.243
-106.012
-105.705
-105.224
-104.533
-103.633
-102.542
-101.288
-99.8967
-98.3931
-96.7965
-95.1214
-93.3787
-91.5758
-89.7183
-87.8097
-85.8533
-83.8517
-81.8075
-79.7239
-77.6041
-75.452
-73.2723
-71.07
-68.8463
-66.6108
-64.3751
5177.44
5201.09
5231.23
5226.8
5189.18
5097.9
4955.36
4772.03
4568.1
4374.48
4222.13
4122.06
4052.49
3968.26
3830.65
3631.48
3388.19
3125.13
2860.37
2603.85
2359.88
2127.44
1901.94
1679.11
1459.51
1249.39
1055.01
877.832
715.086
563.767
423.414
296.007
184.106
89.5624
13.8813
-43.0909
-82.6494
-107.661
-121.305
-126.847
-127.229
-124.971
-121.97
-119.352
-117.529
-116.388
-115.598
-114.726
-113.478
-112.06
-110.566
-109.058
-107.59
-106.187
-104.846
-103.552
-102.281
-101.01
-99.7184
-98.3914
-97.0179
-95.591
-94.1066
-92.5623
-90.9572
-89.291
-87.5642
-85.7776
-83.9326
-82.0307
-80.0741
-78.0655
-76.0082
-73.9063
-71.7645
-69.5885
-67.3845
-65.1557
-62.913
-60.6732
6948.67
6771.12
6542.89
6233.27
5818.96
5320.54
4752.23
4122.94
3445.44
2753.75
2113.99
1606.26
1279.75
1119.45
1067.27
1065.68
1080.75
1096.4
1105.08
1103.28
1089.88
1063.45
1020.49
957.892
875.818
777.98
671.239
563.817
462.819
372.515
294.176
227.104
169.937
121.276
79.6121
44.0923
14.0166
-11.3548
-32.3928
-49.2546
-62.5908
-72.9894
-80.9929
-87.0743
-91.621
-94.9468
-97.3146
-98.9425
-99.999
-100.609
-100.857
-100.804
-100.498
-99.9854
-99.3043
-98.4849
-97.5503
-96.5201
-95.4064
-94.2169
-92.956
-91.6262
-90.2286
-88.7635
-87.2312
-85.6313
-83.9641
-82.2299
-80.4294
-78.5639
-76.6355
-74.647
-72.602
-70.505
-68.3615
-66.1779
-63.9625
-61.7203
-59.462
-57.2028
-6635.91
-6092.47
-5322.48
-4457.13
-3540.41
-2696.92
-1944.78
-1299.51
-777.282
-369.518
-42.6996
226.791
429.079
538.336
547.408
474.646
346.332
186.758
15.5115
-152.31
-306.092
-439.071
-546.773
-626.808
-678.067
-700.979
-697.71
-672.253
-630.268
-578.202
-521.984
-466.11
-413.337
-365.006
-321.61
-283.228
-249.737
-220.88
-196.38
-176.006
-159.05
-145.114
-133.934
-125.129
-118.292
-113.047
-109.058
-106.033
-103.726
-101.933
-100.494
-99.2871
-98.2197
-97.2258
-96.2576
-95.2814
-94.2762
-93.2249
-92.1288
-90.9739
-89.756
-88.4726
-87.1216
-85.7013
-84.2103
-82.6475
-81.0119
-79.3032
-77.5215
-75.6678
-73.7438
-71.7523
-69.6974
-67.5837
-65.4172
-63.2056
-60.9595
-58.6868
-56.3943
-54.0865
2465.62
2138.57
1702.66
1162.84
476.355
-296.544
-1114.59
-1924
-2671.35
-3315.9
-3836.55
-4234.44
-4525.43
-4725.13
-4838.13
-4859.17
-4780.64
-4603
-4337.68
-4004.78
-3629.2
-3235.54
-2844.08
-2468.64
-2118.27
-1798.23
-1511.02
-1257.15
-1036.19
-847.121
-688.154
-556.453
-448.548
-361.064
-291.301
-237.387
-196.854
-167.473
-146.776
-132.479
-122.925
-116.665
-112.507
-109.656
-107.587
-105.949
-104.531
-103.223
-101.972
-100.752
-99.5535
-98.3741
-97.211
-96.0602
-94.9159
-93.7711
-92.6191
-91.452
-90.2507
-89.0153
-87.7394
-86.4164
-85.04
-83.6045
-82.1048
-80.5364
-78.8956
-77.1797
-75.3869
-73.5168
-71.5701
-69.5493
-67.4579
-65.3011
-63.0849
-60.8182
-58.5151
-56.1873
-53.834
-51.4401
-11881.4
-11489.8
-11012
-10461.5
-9782.65
-8975.57
-8044.77
-7035.79
-6013.69
-5034.35
-4133.94
-3330.58
-2629.54
-2027.25
-1515.47
-1085
-727.871
-437.067
-206.822
-32.2399
91.4353
169.648
209.146
217.305
202.627
173.197
135.496
93.9572
51.2412
9.12403
-30.5956
-65.8583
-94.8968
-116.825
-131.564
-140.377
-144.925
-146.362
-145.627
-143.307
-139.756
-135.338
-130.446
-125.461
-120.676
-116.286
-112.382
-108.975
-106.032
-103.492
-101.287
-99.3513
-97.623
-96.0497
-94.588
-93.2033
-91.8668
-90.555
-89.2492
-87.9336
-86.5962
-85.2315
-83.8249
-82.3669
-80.849
-79.264
-77.6054
-75.8683
-74.0491
-72.1455
-70.1575
-68.0868
-65.9371
-63.7134
-61.4224
-59.0742
-56.6867
-54.2757
-51.8323
-49.3212
11013.9
10885.6
10698.9
10394.9
9941.43
9382.18
8757.48
8108.87
7466.66
6840.54
6226.71
5623.06
5033.06
4463.56
3920.83
3408.43
2927.42
2477.65
2059.76
1676.31
1331.5
1029.26
771.704
558.283
385.925
248.99
140.665
54.5023
-14.6738
-69.7713
-111.727
-140.95
-158.225
-165.223
-164.771
-159.399
-151.827
-143.962
-136.803
-130.696
-125.628
-121.445
-117.957
-114.988
-112.393
-110.067
-107.935
-105.949
-104.078
-102.302
-100.607
-98.9833
-97.423
-95.9178
-94.4596
-93.0391
-91.6459
-90.2683
-88.8948
-87.5141
-86.1152
-84.7086
-83.2701
-81.7845
-80.2419
-78.6333
-76.9503
-75.1854
-73.3326
-71.3878
-69.3492
-67.2177
-64.9968
-62.6917
-60.3099
-57.8631
-55.3714
-52.8532
-50.2963
-47.6622
1514.82
1366.05
1145.09
885.517
563.859
274.41
60.0651
-55.4741
-74.881
-27.8524
46.1815
116.476
167.39
195.213
203.835
200.087
187.942
165.352
127.633
73.9701
9.84756
-55.8851
-114.185
-157.181
-181.136
-185.494
-175.322
-159.471
-145.827
-137.893
-134.827
-133.738
-132.156
-129.095
-124.913
-120.602
-117.019
-114.481
-112.841
-111.781
-111.039
-110.47
-109.997
-109.558
-109.077
-108.481
-107.71
-106.733
-105.545
-104.165
-102.629
-100.982
-99.271
-97.5338
-95.7999
-94.089
-92.4127
-90.7766
-89.1811
-87.6226
-86.0904
-84.5445
-82.9913
-81.4245
-79.8282
-78.185
-76.4778
-74.691
-72.8119
-70.8314
-68.7446
-66.5514
-64.2561
-61.866
-59.391
-56.8449
-54.2474
-51.6156
-48.9421
-46.2175
-12118.2
-11866.1
-11569.5
-11211.9
-10785.8
-10278.7
-9682.09
-8994.8
-8225.75
-7392.08
-6516.21
-5626.33
-4756.55
-3939.89
-3198.23
-2542.32
-1981.95
-1529.59
-1189.94
-951.475
-790.833
-683.55
-609.362
-552.981
-503.355
-456.042
-410.172
-367.132
-328.757
-295.904
-268.229
-244.792
-224.638
-207.006
-191.37
-177.444
-165.152
-154.479
-145.31
-137.419
-130.621
-124.905
-120.365
-116.997
-114.588
-112.79
-111.257
-109.736
-108.08
-106.228
-104.181
-101.993
-99.7386
-97.4952
-95.3225
-93.2582
-91.3198
-89.5073
-87.8045
-86.1869
-84.6337
-83.1425
-81.6819
-80.2226
-78.7326
-77.1848
-75.5544
-73.8197
-71.9633
-69.9737
-67.8465
-65.5852
-63.2006
-60.7092
-58.1305
-55.4853
-52.7936
-50.0667
-47.305
-44.5584
11810.1
11492.1
11063.9
10456.5
9592.93
8531.33
7322.28
6034.73
4747.45
3532.89
2444.14
1510.56
743.657
142.404
-304.443
-617.492
-823.953
-950.674
-1017.34
-1035.92
-1014.92
-961.828
-883.841
-788.448
-683.989
-578.164
-477.774
-388.295
-313.256
-253.99
-209.925
-179.186
-159.245
-147.427
-141.308
-139.005
-139.264
-141.283
-144.356
-147.656
-150.334
-151.858
-152.193
-151.622
-150.388
-148.486
-145.705
-141.8
-136.679
-130.49
-123.527
-116.399
-109.655
-103.711
-98.7459
-94.7298
-91.5212
-88.9439
-86.735
-84.7911
-83.0696
-81.4969
-79.9694
-78.5196
-77.0852
-75.6205
-74.0809
-72.4232
-70.6106
-68.6167
-66.4306
-64.058
-61.5211
-58.8552
-56.1025
-53.3053
-50.4959
-47.6849
-44.8753
-42.1802
1930.86
2238.12
2669.66
3146.93
3676.01
4178.59
4643.03
5059
5404.39
5647.92
5762.75
5739.97
5588.59
5327.22
4978.07
4564.54
4109.61
3635.32
3160.92
2701.87
2270.41
1876.37
1526.76
1225.23
971.806
762.784
592.392
453.629
339.736
245.154
165.8
99.2708
43.8799
-1.71764
-38.6364
-67.966
-90.8758
-108.547
-121.977
-131.816
-138.433
-142.264
-144.113
-144.997
-145.613
-145.961
-145.465
-143.427
-139.427
-133.531
-126.324
-118.292
-110.255
-102.912
-96.5704
-91.2435
-86.9788
-83.5636
-80.8995
-78.8268
-77.1889
-75.8838
-74.8778
-73.9904
-73.1477
-72.2682
-71.2737
-70.0775
-68.6073
-66.8119
-64.669
-62.191
-59.4256
-56.4496
-53.3575
-50.2448
-47.1876
-44.2195
-41.3413
-38.7
-9300.61
-9077.09
-8799.77
-8476.8
-8088.86
-7658.57
-7171.17
-6608.88
-5963.62
-5246.9
-4489.05
-3730.32
-3007.87
-2348.14
-1765.64
-1265.02
-844.051
-498.559
-223.248
-11.4299
145.251
256.805
333.479
383.972
413.8
425.054
417.062
389.223
342.697
281.058
209.31
133.603
60.0549
-6.49142
-62.9749
-107.998
-141.48
-164.288
-177.873
-183.956
-184.308
-180.601
-174.309
-166.609
-158.268
-149.626
-140.7
-131.384
-121.636
-111.62
-101.773
-92.871
-85.4247
-79.6577
-75.5547
-72.8668
-71.0473
-69.801
-68.9388
-68.344
-67.9572
-67.7466
-67.6841
-67.7237
-67.7901
-67.7878
-67.6372
-67.1816
-66.2948
-64.8803
-62.8838
-60.3093
-57.2266
-53.7668
-50.105
-46.4296
-42.9043
-39.626
-36.6081
-33.9868
5629.13
5385.14
5103.5
4759.63
4258.43
3606.07
2804
1897.06
950.793
14.9343
-881.35
-1718.04
-2474.44
-3128.64
-3662.14
-4064.07
-4333.17
-4477.78
-4513.96
-4460.3
-4333.51
-4147.3
-3913.18
-3640.36
-3336.98
-3011.11
-2670.03
-2323.88
-1984.55
-1664.53
-1374.58
-1122.63
-911.989
-741.421
-606.546
-501.506
-420.232
-357.216
-307.845
-268.459
-236.285
-209.326
-186.22
-166.087
-148.385
-132.795
-119.124
-107.256
-97.0984
-88.5538
-81.4957
-75.7654
-71.1786
-67.546
-64.6881
-62.4452
-60.6856
-59.3225
-58.3103
-57.636
-57.3031
-57.3134
-57.6494
-58.262
-59.0624
-59.9147
-60.6129
-60.9976
-60.8748
-60.067
-58.4584
-56.0208
-52.827
-49.0499
-44.9429
-40.7965
-36.8784
-33.3718
-30.339
-27.8554
-7825.96
-7522.24
-7107.48
-6593.92
-5985.17
-5340.44
-4665.74
-3953.67
-3202.53
-2427.1
-1655.08
-920.3
-257.286
305.472
750.721
1074.7
1285.84
1398.18
1423.9
1373.31
1259.85
1101.29
915.734
718.952
523.243
339.109
173.396
32.4064
-80.4213
-164.576
-221.588
-254.27
-266.219
-261.575
-244.803
-220.364
-192.317
-163.939
-137.51
-114.336
-94.9283
-79.2626
-67.0044
-57.681
-50.7894
-45.856
-42.4625
-40.2521
-38.9262
-38.237
-37.981
-37.9932
-38.1439
-38.3356
-38.5028
-38.6148
-38.6768
-38.726
-38.8231
-39.0385
-39.4365
-40.0634
-40.938
-42.0444
-43.3266
-44.6835
-45.9668
-46.9216
-47.4304
-47.2921
-46.3441
-44.5244
-41.8859
-38.5956
-34.9167
-31.1652
-27.645
-24.5794
-22.0714
-20.0803
2986.57
3101.68
3210.42
3209.22
3123.22
2973.49
2814.14
2672.24
2554.41
2458.18
2374.13
2290.12
2195.33
2081.68
1946.1
1794.33
1640.2
1498.62
1376.88
1271.32
1173.54
1079.23
989.041
904.373
825.924
752.342
682.305
614.583
548.453
483.96
421.815
362.889
307.293
255.622
208.591
166.867
130.94
101.017
76.9534
58.2737
44.2416
33.9764
26.5712
21.1909
17.136
13.8702
11.0189
8.34931
5.74014
3.15024
0.589534
-1.90436
-4.28324
-6.50069
-8.52076
-10.3241
-11.9116
-13.3046
-14.5416
-15.6725
-16.7517
-17.832
-18.9584
-20.1609
-21.444
-22.7686
-24.0487
-25.2829
-26.2195
-26.6978
-26.6079
-25.8914
-24.5649
-22.7317
-20.5692
-18.2961
-16.1298
-14.2382
-12.7253
-11.4943
6860.74
6697.28
6472.28
6153.6
5689.17
5141.94
4561.36
3984.63
3435.07
2928.52
2474.16
2073.45
1723.49
1424.31
1180.4
992.882
852.877
747.724
670.094
614.896
575.188
545.054
521.043
500.638
481.884
463.657
445.226
425.594
404.408
381.572
357.054
330.941
304.151
277.231
250.717
225.1
200.806
178.201
157.541
138.97
122.512
108.08
95.5047
84.5677
75.0288
66.6549
59.2395
52.6073
46.6215
41.18
36.2102
31.6617
27.4999
23.7005
20.2462
17.1244
14.3264
11.8449
9.67
7.78391
6.15416
4.73041
3.44715
2.23507
1.02535
-0.24064
-1.58923
-2.92931
-4.17173
-5.23769
-6.05069
-6.55278
-6.72391
-6.58682
-6.20162
-5.65338
-5.03737
-4.44091
-3.94094
-3.46969
2496.83
2383.02
2198.11
1984.4
1760.51
1607.62
1524.31
1477.29
1432.04
1364.39
1260.47
1116.07
936.149
732.598
521.113
317.158
133.692
-19.2576
-134.496
-209.117
-245.248
-249.103
-230.137
-199.118
-164.938
-132.136
-101.073
-70.6203
-40.6694
-12.4785
12.5683
33.6984
50.695
63.8674
73.6366
80.4698
84.8246
87.135
87.797
87.1595
85.5223
83.1308
80.1818
76.8306
73.1975
69.3761
65.4408
61.4526
57.4623
53.5141
49.6481
45.9072
42.332
38.9637
35.8428
33.0042
30.4716
28.2558
26.3478
24.7165
23.3111
22.0648
20.9018
19.7439
18.5251
17.2089
15.7828
14.266
12.7036
11.1589
9.70056
8.38946
7.26852
6.35919
5.66278
5.16268
4.82354
4.59237
4.39468
4.27672
-3934.3
-3814.58
-3733.54
-3692.89
-3621.62
-3490.37
-3313.09
-3123.73
-2941.61
-2769.62
-2606.01
-2449.29
-2298.23
-2151.42
-2007.34
-1862.89
-1713.94
-1554.16
-1378.98
-1187.19
-982.317
-774.562
-580.791
-419.531
-301.493
-224.445
-177.845
-149.941
-131.68
-117.194
-102.903
-87.1913
-69.7712
-51.1764
-32.2192
-13.8221
3.20949
18.3449
31.2518
41.7457
49.8768
55.8146
59.7925
62.0715
62.9187
62.5977
61.3626
59.4476
57.0625
54.3888
51.5802
48.764
46.0415
43.4927
41.1758
39.1254
37.3039
35.7505
34.4357
33.314
32.3313
31.4261
30.5353
29.6004
28.5737
27.4251
26.1455
24.7486
23.2708
21.7659
20.2965
18.9242
17.6974
16.6412
15.7501
14.9891
14.3023
13.6316
12.913
12.2761
-8872.15
-8589.76
-8254.81
-7874.33
-7424.82
-6931.01
-6411.49
-5893.14
-5395.03
-4924.39
-4481.15
-4063.91
-3671.66
-3301.41
-2946.26
-2598.36
-2250.78
-1899.76
-1546.87
-1203.05
-886.286
-610.075
-377.118
-190.191
-55.6643
32.4164
94.748
145.971
185.811
209.806
217.87
213.799
202.44
187.831
172.613
157.951
144.385
132.14
121.201
111.476
102.747
94.8609
87.6779
81.0662
74.881
69.0647
63.6495
58.6221
53.9816
49.7605
46.0016
42.7359
39.9773
37.7716
36.0102
34.6499
33.7016
33.0681
32.6921
32.5087
32.4453
32.4285
32.3909
32.2765
32.0456
31.6769
31.1677
30.5305
29.79
28.9772
28.1235
27.256
26.3932
25.5432
24.7036
23.8612
22.9908
22.052
20.9522
19.7005
-63.963
-58.0066
-52.5197
-47.5456
-43.1116
-39.2163
-35.8418
-32.9534
-30.5035
-28.4365
-26.693
-25.2118
-23.93
-22.7841
-21.7154
-20.6783
-19.6473
-18.6164
-17.5952
-16.6013
-15.655
-14.7761
-13.9837
-13.2947
-12.7199
-12.2606
-11.9087
-11.6496
-11.4648
-11.3336
-11.2342
-11.1434
-11.0376
-10.8952
-10.7034
-10.4608
-10.177
-9.86424
-9.53177
-9.18306
-8.81855
-8.43892
-8.04673
-7.64642
-7.24355
-6.84397
-6.45323
-6.0762
-5.71671
-5.37732
-5.05899
-4.76106
-4.48137
-4.21675
-3.96379
-3.71969
-3.48275
-3.25251
-3.02946
-2.81462
-2.60912
-2.4139
-2.22959
-2.05646
-1.89441
-1.74305
-1.60178
-1.46983
-1.34648
-1.23114
-1.12343
-1.0232
-0.930505
-0.845494
-0.768312
-0.699077
-0.637313
-0.585561
-0.540886
-0.503487
-0.472866
-0.448219
-0.428618
-0.413054
-0.400472
-0.389838
-0.380225
-0.370896
-0.361335
-0.351244
-0.340518
-0.329218
-0.317532
-0.305717
-0.294042
-0.282751
-0.272045
-0.262074
-0.25293
-0.244639
-0.237174
-0.230473
-0.224462
-0.219057
-0.214166
-0.20969
-0.205539
-0.201652
-0.197995
-0.194549
-0.191296
-0.188216
-0.185292
-0.182513
-0.17987
-0.177342
-0.174894
-0.172484
-0.17009
-0.167718
-0.165392
-0.163127
-0.160915
-0.158727
-0.15654
-0.154352
-0.152174
-0.150009
-0.14784
-0.145635
-0.143375
-0.14107
-0.138754
-0.136462
-0.134209
-0.131989
-0.129792
-0.127613
-0.125456
-0.123321
-0.121199
-0.119078
-0.116957
-0.114843
-0.112751
-0.110685
-0.108633
-0.106578
-0.10451
-0.102432
-0.100354
-0.0982845
-0.0962179
-0.0941437
-0.0920544
-0.0899522
-0.0878466
-0.0857477
-0.0836621
-0.0815936
-0.0795459
-0.0775221
-0.0755193
-0.0735261
-0.0715241
-0.0694979
-0.0674431
-0.0653681
-0.0632856
-0.0612017
-0.0591107
-0.0569991
-0.0548564
-0.0526851
-0.0505012
-0.0483272
-0.0461807
-0.0440675
-0.0419817
-0.0399114
-0.0378478
-0.0357904
-0.0337471
-0.0317291
-0.0297433
-0.0277872
-0.0258488
-0.0239134
-0.0219722
-0.020028
-0.0180927
-0.0161763
-0.0142775
-0.01238
-0.0104633
-0.00851652
-0.00655483
-0.00460668
-0.00271385
-0.00088333
-60.1557
-54.3223
-49.0028
-44.2324
-40.0046
-36.3425
-33.2032
-30.5454
-28.3213
-26.4746
-24.9442
-23.6661
-22.5736
-21.5994
-20.6818
-19.7735
-18.8487
-17.9033
-16.9496
-16.0089
-15.1059
-14.2657
-13.512
-12.8649
-12.3358
-11.9247
-11.6208
-11.407
-11.2627
-11.1659
-11.0938
-11.023
-10.9308
-10.7997
-10.6217
-10.3988
-10.1396
-9.85152
-9.53727
-9.19624
-8.82797
-8.43463
-8.02144
-7.5957
-7.16551
-6.73877
-6.32268
-5.92333
-5.54538
-5.19161