/*--------------------------------*- C++ -*----------------------------------*\
| =========                 |                                                 |
| \\      /  F ield         | OpenFOAM: The Open Source CFD Toolbox           |
|  \\    /   O peration     | Version:  2012                                  |
|   \\  /    A nd           | Website:  www.openfoam.com                      |
|    \\/     M anipulation  |                                                 |
\*---------------------------------------------------------------------------*/
FoamFile
{
    version     2.0;
    format      ascii;
    class       volVectorField;
    location    "0.11";
    object      U;
}
// * * * * * * * * * * * * * * * * * * * * * * * * * * * * * * * * * * * * * //

dimensions      [0 1 -1 0 0 0 0];


internalField   nonuniform List<vector> 
42400
(
(13.8838 -15.5356 7.96396e-17)
(28.1885 -35.953 1.1507e-16)
(34.4568 -43.7783 -1.17138e-16)
(31.7358 -49.5335 0)
(29.3916 -53.3086 0)
(24.776 -56.9944 -6.12437e-19)
(18.0239 -59.8324 0)
(9.75411 -60.8868 5.5823e-19)
(0.544026 -60.1621 0)
(-8.77908 -58.0196 4.82553e-19)
(-17.6825 -54.9442 4.39779e-19)
(-25.9787 -51.2094 -3.94592e-19)
(-33.6866 -46.8501 -2.73242e-17)
(-40.8351 -41.7271 2.78933e-17)
(-47.528 -35.7165 -2.50101e-19)
(-53.8885 -28.7096 0)
(-59.8321 -20.6981 0)
(-64.8476 -12.0613 0)
(-67.9867 -3.81013 0)
(-68.3284 2.63112 0)
(-65.585 6.29445 0)
(-60.2855 7.49197 -9.42836e-20)
(-53.584 7.53891 2.27695e-17)
(-46.8196 7.4852 -4.68956e-18)
(-40.7538 7.46087 -1.89245e-17)
(-35.3873 7.22651 -9.36025e-20)
(-30.6405 6.68726 -9.56045e-20)
(-26.5705 5.88783 1.87797e-19)
(-23.0975 4.90045 0)
(-19.9945 3.76849 0)
(-17.0755 2.54822 5.48745e-20)
(-14.3136 1.32192 -5.54214e-20)
(-11.7898 0.196136 1.13379e-19)
(-9.60403 -0.747811 -1.80386e-18)
(-7.83641 -1.46592 1.73435e-18)
(-6.49038 -1.95123 0)
(-5.5137 -2.2322 0)
(-4.82543 -2.35654 0)
(-4.34059 -2.37241 0)
(-3.9931 -2.31797 -2.00591e-18)
(-3.74037 -2.21692 2.01225e-18)
(-3.55953 -2.08292 -1.77152e-18)
(-3.44029 -1.92711 1.90337e-19)
(-3.37599 -1.76086 3.11299e-18)
(-3.35723 -1.59592 -1.46816e-18)
(-3.37019 -1.44457 1.23668e-18)
(-3.40109 -1.32252 -2.41199e-18)
(-3.43626 -1.25267 1.12815e-18)
(-3.45715 -1.25447 3.57959e-20)
(-3.44049 -1.34093 -8.48997e-19)
(-3.36607 -1.51803 1.59899e-18)
(-3.21604 -1.77779 -4.09068e-20)
(-2.9735 -2.09311 -6.96359e-19)
(-2.63644 -2.43422 2.50147e-20)
(-2.21786 -2.77616 0)
(-1.72938 -3.08826 0)
(-1.17993 -3.34993 0)
(-0.582297 -3.55628 -4.05162e-20)
(0.050613 -3.70816 -4.69657e-20)
(0.70665 -3.80824 0)
(1.37392 -3.86014 -1.17451e-18)
(2.04125 -3.86854 1.21969e-18)
(2.69912 -3.83931 1.25555e-18)
(3.34016 -3.77883 -1.23155e-18)
(3.95888 -3.69288 0)
(4.55091 -3.58563 0)
(5.1122 -3.4594 1.28495e-18)
(5.63854 -3.31492 -1.25566e-18)
(6.12553 -3.15203 -1.60926e-19)
(6.56895 -2.97036 0)
(6.96534 -2.77008 0)
(7.31257 -2.55237 -1.50517e-19)
(7.61033 -2.31974 -1.45349e-19)
(7.86027 -2.07602 0)
(8.06572 -1.82612 -1.33785e-19)
(8.23115 -1.57579 -9.2378e-19)
(8.3611 -1.33163 8.95974e-19)
(8.4605 -1.09951 2.32644e-19)
(8.52919 -0.893415 7.98195e-19)
(8.58464 -0.690276 7.64218e-19)
(-1.60563 0.262043 0)
(4.22504 -3.53032 4.4739e-17)
(11.1289 -12.965 -4.61637e-17)
(9.15131 -10.6565 0)
(-4.03121 0.0694682 0)
(-16.8883 11.3235 5.0146e-17)
(-22.8626 16.8449 -5.0696e-17)
(-21.5628 16.2663 -5.68926e-19)
(-16.3687 12.5079 0)
(-10.6792 8.38929 -4.92073e-19)
(-6.29057 5.27271 -4.4826e-19)
(-3.59269 3.33031 -5.37345e-17)
(-2.27369 2.21237 2.91692e-19)
(-1.85242 1.49712 5.67402e-17)
(-1.93956 0.903629 5.65347e-17)
(-2.29764 0.370367 -5.65632e-17)
(-2.83105 0.0212995 0)
(-3.55592 0.0795892 6.76301e-19)
(-4.50102 0.70471 0)
(-5.63753 1.8677 0)
(-6.8725 3.3308 0)
(-8.07113 4.76832 -3.76299e-17)
(-9.08848 5.91608 4.84577e-18)
(-9.77685 6.63926 3.44534e-17)
(-10.0031 6.89362 0)
(-9.70499 6.67952 -1.35489e-19)
(-8.92548 6.06022 9.46582e-20)
(-7.78884 5.15253 -1.85919e-19)
(-6.44507 4.09248 -1.32284e-17)
(-5.03836 2.99835 1.33783e-17)
(-3.69295 1.96313 -1.02452e-19)
(-2.52449 1.04666 -5.78351e-20)
(-1.59791 0.295149 -5.36045e-18)
(-0.920079 -0.266297 5.31713e-18)
(-0.454927 -0.63574 2.9882e-18)
(-0.138228 -0.836983 -2.88696e-18)
(0.0912531 -0.904882 0)
(0.275594 -0.870462 -5.05249e-20)
(0.431487 -0.761068 0)
(0.557849 -0.597733 -9.13628e-20)
(0.641508 -0.398757 -4.77933e-19)
(0.66181 -0.184008 3.99091e-19)
(0.599295 0.0272843 -6.32042e-20)
(0.447499 0.220277 5.90717e-20)
(0.216826 0.383031 -8.19577e-20)
(-0.0724458 0.500564 5.13668e-20)
(-0.399673 0.547497 -4.69124e-20)
(-0.746341 0.501918 -1.43027e-19)
(-1.09242 0.351488 1.48405e-19)
(-1.4049 0.095986 0)
(-1.62984 -0.249623 4.05241e-21)
(-1.70934 -0.665258 -3.55563e-20)
(-1.60047 -1.12561 2.04213e-19)
(-1.29402 -1.60248 -1.99377e-19)
(-0.810731 -2.05282 -1.45829e-20)
(-0.200723 -2.45559 -2.86798e-20)
(0.478686 -2.81877 1.7354e-20)
(1.19207 -3.14981 4.04558e-20)
(1.91647 -3.44743 4.69008e-20)
(2.63435 -3.70173 -6.97561e-19)
(3.32993 -3.8985 6.86367e-19)
(3.99006 -4.02841 -6.52833e-20)
(4.60617 -4.09167 -6.1015e-20)
(5.17561 -4.09693 0)
(5.70025 -4.05634 1.09043e-18)
(6.18359 -3.98081 7.85962e-20)
(6.62818 -3.87773 -1.4403e-18)
(7.03449 -3.7511 0)
(7.40097 -3.60264 3.39079e-19)
(7.72476 -3.43309 -1.77953e-19)
(8.00269 -3.24324 -1.31534e-18)
(8.23208 -3.03471 1.43148e-18)
(8.41155 -2.81034 1.389e-18)
(8.54145 -2.57434 -1.3714e-18)
(8.62399 -2.33202 2.90127e-19)
(8.66302 -2.08931 -1.10473e-18)
(8.6632 -1.85243 7.83626e-19)
(8.63149 -1.62435 -2.32744e-19)
(8.56292 -1.42163 1.23847e-18)
(8.52275 -1.17382 -9.46979e-19)
(1.92208 -2.2412 1.63268e-17)
(13.8404 -4.92235 -3.24516e-20)
(24.0854 -17.428 2.11618e-20)
(34.6852 -22.0913 -1.50657e-20)
(36.7121 -23.2564 0)
(36.6955 -20.0514 5.22787e-18)
(36.6592 -16.0677 -1.17646e-18)
(36.4353 -12.2508 -4.27095e-18)
(34.6873 -7.96965 2.1954e-17)
(30.5666 -2.59335 6.95634e-18)
(24.2659 3.78582 -3.0054e-17)
(16.6951 10.5197 -3.63714e-19)
(8.9466 16.8033 -3.82515e-19)
(1.93014 21.9245 4.26144e-17)
(-3.80305 25.458 -4.34232e-17)
(-8.06349 27.1883 -9.61482e-19)
(-10.8891 27.2219 -3.45457e-17)
(-12.499 25.9181 4.55924e-18)
(-13.1741 23.7697 3.13455e-17)
(-13.1773 21.2504 -5.07192e-19)
(-12.7102 18.7183 4.81903e-19)
(-11.9031 16.3964 4.44497e-19)
(-10.8281 14.3911 0)
(-9.52268 12.7224 -6.83897e-19)
(-8.01343 11.3584 6.53783e-18)
(-6.33372 10.2444 -1.08213e-17)
(-4.52754 9.33127 4.21104e-18)
(-2.65038 8.58304 -2.37838e-19)
(-0.767304 7.97563 2.40474e-19)
(1.06253 7.48921 -2.86072e-18)
(2.79065 7.10848 6.22359e-18)
(4.38146 6.8257 9.78929e-19)
(5.80615 6.63516 -4.52953e-18)
(7.03538 6.52595 0)
(8.05516 6.49681 0)
(8.86711 6.56764 -3.96231e-20)
(9.46733 6.74974 0)
(9.84495 7.03172 -7.6917e-20)
(9.99198 7.39573 3.70137e-18)
(9.90715 7.82328 -7.02901e-18)
(9.60286 8.30277 3.29963e-18)
(9.1048 8.83323 0)
(8.43909 9.39988 0)
(7.61961 9.96186 1.3502e-18)
(6.66942 10.4895 -1.32418e-18)
(5.61767 10.9532 -6.63889e-20)
(4.50267 11.3086 0)
(3.3928 11.5101 0)
(2.38584 11.4883 1.53931e-19)
(1.60947 11.1481 -1.53315e-19)
(1.20435 10.3961 -4.01253e-21)
(1.26361 9.19033 0)
(1.76281 7.59112 -1.16481e-19)
(2.54572 5.76526 9.92405e-20)
(3.39226 3.92564 -2.15915e-19)
(4.13078 2.2463 2.50073e-19)
(4.70254 0.822913 -1.20567e-19)
(5.14841 -0.344183 1.18086e-19)
(5.5406 -1.28656 1.7822e-19)
(5.92366 -2.03596 2.11289e-19)
(6.30079 -2.60859 -3.7808e-19)
(6.65708 -3.02154 -8.31364e-19)
(6.97992 -3.2985 8.77553e-19)
(7.26759 -3.47135 0)
(7.52798 -3.57291 -1.1718e-18)
(7.77064 -3.62793 -1.22223e-19)
(8.0004 -3.65006 1.78092e-18)
(8.21575 -3.64404 0)
(8.4104 -3.60965 -3.93913e-19)
(8.57574 -3.54499 -1.35049e-18)
(8.70314 -3.44876 1.28314e-18)
(8.78569 -3.32169 0)
(8.81946 -3.16705 0)
(8.80406 -2.99051 1.62341e-19)
(8.74254 -2.79945 -1.564e-19)
(8.64063 -2.60191 -9.37349e-19)
(8.50577 -2.40549 1.53441e-18)
(8.34522 -2.21755 0)
(8.16751 -2.04268 -2.65161e-19)
(8.02056 -1.84747 -1.10276e-18)
(-6.22655 2.88291 -1.91251e-17)
(-10.8832 1.7937 2.64427e-17)
(-9.42239 -4.20192 -1.27718e-17)
(-8.41716 -12.9614 -9.12378e-18)
(-9.01597 -20.3838 9.04686e-18)
(-10.8807 -27.1001 0)
(-13.2847 -33.2622 1.88746e-18)
(-15.7945 -38.8609 -1.35509e-18)
(-18.2082 -43.8846 2.00428e-17)
(-20.1503 -48.2583 -2.04645e-17)
(-21.2612 -51.9949 4.11141e-17)
(-21.5565 -55.0554 -9.58876e-17)
(-21.6433 -57.2384 1.19033e-16)
(-22.4709 -58.216 -1.42341e-16)
(-24.6402 -57.6099 1.62923e-16)
(-27.8353 -55.3795 -8.69358e-17)
(-30.7779 -52.0108 -9.47969e-17)
(-31.9854 -48.2499 1.89681e-16)
(-30.715 -44.5682 -9.5774e-17)
(-27.269 -40.9794 5.03342e-19)
(-22.5707 -37.2388 4.48896e-20)
(-17.5027 -33.1047 -6.97524e-17)
(-12.595 -28.5389 6.9971e-17)
(-8.03596 -23.6879 3.54594e-19)
(-3.85946 -18.7824 0)
(-0.0551438 -13.9969 2.68429e-19)
(3.36771 -9.43397 0)
(6.38097 -5.14561 2.39098e-17)
(8.94356 -1.1742 -4.85495e-18)
(11.0237 2.43641 -1.93463e-17)
(12.6258 5.65995 -1.2735e-17)
(13.778 8.46983 1.26108e-17)
(14.5249 10.8423 6.96687e-20)
(14.9159 12.757 -1.48774e-19)
(15.0014 14.206 -5.85133e-18)
(14.818 15.1957 6.04182e-18)
(14.3937 15.7462 0)
(13.7664 15.909 3.5895e-18)
(12.9761 15.7624 -3.47944e-18)
(12.0579 15.3946 1.93265e-19)
(11.0449 14.8944 -2.54226e-19)
(9.97139 14.3428 0)
(8.87315 13.8051 0)
(7.79466 13.3468 0)
(6.77025 13.0191 -1.72254e-19)
(5.81623 12.8371 1.28164e-18)
(4.94427 12.7982 -1.21257e-18)
(4.17169 12.8842 0)
(3.52381 13.0572 0)
(3.03222 13.258 5.40662e-19)
(2.72766 13.4105 -5.05342e-19)
(2.62288 13.4337 2.445e-19)
(2.69672 13.2583 -2.37919e-19)
(2.89888 12.8413 -4.46992e-20)
(3.18073 12.1654 1.53847e-19)
(3.52182 11.241 -2.389e-19)
(3.93304 10.1033 1.15049e-18)
(4.43609 8.77418 -9.96164e-19)
(5.00972 7.26447 0)
(5.62669 5.67525 1.6094e-19)
(6.22856 4.11172 2.11296e-18)
(6.74439 2.64944 -4.30459e-20)
(7.15213 1.3504 -4.55394e-18)
(7.47684 0.242668 4.25442e-18)
(7.75517 -0.679804 -1.87651e-18)
(8.01173 -1.43425 -2.12236e-18)
(8.25262 -2.03745 1.57987e-18)
(8.47136 -2.50378 2.67954e-19)
(8.65647 -2.84647 1.88551e-18)
(8.79627 -3.07843 -1.88177e-18)
(8.88122 -3.21285 4.47325e-19)
(8.9054 -3.26357 1.96656e-18)
(8.86747 -3.24527 -1.68838e-18)
(8.77096 -3.17321 0)
(8.62359 -3.06246 1.54282e-18)
(8.43592 -2.92702 -3.64796e-19)
(8.21969 -2.77912 -3.23764e-18)
(7.98666 -2.62871 1.37718e-18)
(7.75135 -2.47874 -1.30923e-18)
(7.53181 -2.33403 1.2834e-18)
(3.32924 1.59388 5.87944e-17)
(5.38825 7.21559 0)
(1.93211 16.6971 0)
(-1.72861 26.9389 4.59144e-19)
(-4.40844 33.3147 0)
(-6.33872 37.63 0)
(-7.77897 39.7118 0)
(-8.34271 39.3542 -2.73561e-19)
(-7.86883 36.5083 0)
(-7.28366 32.1298 -1.90128e-19)
(-8.8803 28.7292 9.59138e-17)
(-15.1068 29.3199 -1.77665e-16)
(-26.6569 35.0571 8.23715e-17)
(-41.0062 43.7107 0)
(-52.873 50.765 -4.77195e-19)
(-57.1727 52.3048 6.55562e-19)
(-52.1218 47.1784 0)
(-39.9679 37.1666 -2.46809e-18)
(-25.0905 25.3999 1.18823e-17)
(-11.3208 14.4832 4.58469e-18)
(-0.546455 5.63713 -1.38381e-17)
(7.09547 -1.01881 4.46862e-19)
(12.3088 -5.87137 0)
(15.9118 -9.3572 1.63058e-17)
(18.4702 -11.8265 -1.71884e-17)
(20.2854 -13.467 1.39659e-17)
(21.458 -14.3756 -1.43436e-17)
(21.9854 -14.6252 -9.74285e-18)
(21.8542 -14.3046 9.97403e-18)
(21.0925 -13.5242 0)
(19.788 -12.3898 2.95882e-18)
(18.0555 -10.9855 -2.98537e-18)
(16.0085 -9.36463 1.48067e-19)
(13.7467 -7.56498 -2.34109e-18)
(11.3648 -5.629 2.50815e-18)
(8.959 -3.62175 -2.4424e-20)
(6.64208 -1.62034 -1.43403e-19)
(4.51931 0.291254 -5.68836e-18)
(2.68939 2.0435 5.71817e-18)
(1.21726 3.5674 5.68325e-18)
(0.111512 4.80192 3.9343e-20)
(-0.654027 5.74228 -5.95465e-18)
(-1.13867 6.42688 0)
(-1.43179 6.90731 2.38833e-19)
(-1.62555 7.23371 -3.38815e-18)
(-1.78794 7.45513 7.11903e-18)
(-1.95373 7.60747 -5.73553e-18)
(-2.12278 7.70377 2.44776e-18)
(-2.26461 7.73541 0)
(-2.33214 7.67723 5.06098e-20)
(-2.28028 7.49784 -3.40335e-19)
(-2.0843 7.17352 3.27058e-19)
(-1.74987 6.70068 -4.86728e-20)
(-1.30746 6.09988 8.46478e-19)
(-0.794632 5.40716 -6.83357e-19)
(-0.2393 4.66139 1.40674e-18)
(0.346649 3.89559 1.90564e-18)
(0.968655 3.14027 -3.21629e-18)
(1.63231 2.40043 3.34097e-18)
(2.35217 1.67473 -3.4543e-18)
(3.10954 0.922071 0)
(3.90397 0.175797 1.63906e-19)
(4.72255 -0.523578 2.85353e-18)
(5.53073 -1.1545 -2.49114e-18)
(6.28908 -1.70419 -6.40067e-19)
(6.96619 -2.16762 0)
(7.54308 -2.54701 -2.39589e-18)
(8.01191 -2.84785 2.04109e-18)
(8.37149 -3.07556 2.58498e-19)
(8.62336 -3.23436 2.79603e-19)
(8.77043 -3.32816 -5.1043e-19)
(8.81786 -3.36213 2.83551e-20)
(8.77451 -3.34378 2.13728e-18)
(8.65345 -3.28284 -1.83443e-18)
(8.47116 -3.19027 2.32272e-19)
(8.24565 -3.07689 0)
(7.99459 -2.95229 1.98842e-18)
(7.7345 -2.8236 -1.55851e-18)
(7.48032 -2.69701 0)
(7.2501 -2.58441 1.43865e-18)
(25.3349 -15.5325 2.74472e-19)
(43.2989 -30.419 3.96029e-17)
(36.6081 -20.2561 -3.82165e-17)
(11.8724 -3.05304 7.50992e-17)
(-12.5422 18.4007 -3.75371e-17)
(-36.4434 38.2665 -8.52076e-19)
(-59.2545 55.8564 -3.13774e-17)
(-80.3598 70.8207 3.25831e-17)
(-96.356 80.8991 6.87983e-19)
(-101.248 81.8319 8.4202e-19)
(-91.7254 70.8249 3.89348e-17)
(-72.0915 51.5057 4.2294e-17)
(-51.1612 31.9926 -8.37353e-17)
(-34.5131 17.6079 8.29232e-17)
(-22.4559 8.56844 -1.6304e-16)
(-13.3049 3.0115 8.09568e-17)
(-5.82733 -0.705104 0)
(0.448577 -3.58182 0)
(5.63631 -6.15686 -5.70125e-17)
(9.83454 -8.64445 7.23452e-18)
(13.2356 -11.0406 5.01385e-17)
(16.0499 -13.281 -3.61854e-17)
(18.4255 -15.319 6.68246e-17)
(20.4139 -17.0829 -3.01917e-17)
(21.9193 -18.4822 -1.899e-17)
(22.6897 -19.4025 4.82893e-18)
(22.4049 -19.7208 1.51499e-17)
(20.8516 -19.3735 1.01526e-19)
(18.1091 -18.4362 -1.02019e-19)
(14.593 -17.1341 1.99195e-19)
(10.904 -15.7467 0)
(7.55615 -14.4906 4.30023e-19)
(4.80418 -13.4509 -2.29135e-18)
(2.65978 -12.6006 1.86335e-18)
(1.01856 -11.8588 0)
(-0.255761 -11.1454 -4.12616e-18)
(-1.26712 -10.3963 4.17139e-18)
(-2.09394 -9.58935 0)
(-2.79744 -8.73433 0)
(-3.41728 -7.84338 -4.00129e-18)
(-3.97706 -6.91711 4.17463e-18)
(-4.49578 -5.96848 1.30261e-19)
(-4.98489 -5.01809 0)
(-5.45124 -4.09519 2.63113e-18)
(-5.89948 -3.22969 -6.1218e-19)
(-6.31943 -2.43618 -2.64893e-18)
(-6.69034 -1.72113 -5.78431e-20)
(-6.9855 -1.08835 1.51342e-19)
(-7.17582 -0.541338 0)
(-7.23393 -0.0847212 -3.6926e-19)
(-7.13814 0.276187 1.8936e-19)
(-6.87476 0.537066 1.22906e-19)
(-6.43785 0.696681 6.08799e-20)
(-5.82658 0.758114 1.12111e-18)
(-5.0427 0.728586 8.15271e-20)
(-4.09074 0.618301 -2.59627e-18)
(-2.98215 0.43818 9.88773e-19)
(-1.73943 0.19705 0)
(-0.398097 -0.0990673 0)
(0.997085 -0.424308 -2.03867e-19)
(2.38184 -0.751552 -2.01784e-19)
(3.69637 -1.06211 0)
(4.88163 -1.36003 -2.78542e-18)
(5.90229 -1.64416 2.73711e-18)
(6.7477 -1.9121 3.11932e-18)
(7.42622 -2.16334 3.15388e-19)
(7.95688 -2.39653 -2.31665e-18)
(8.35993 -2.60765 2.51082e-18)
(8.65029 -2.78979 -2.45246e-18)
(8.83595 -2.93482 2.85717e-20)
(8.9208 -3.03611 -1.9974e-18)
(8.90931 -3.09095 1.94837e-18)
(8.81037 -3.10171 1.85849e-18)
(8.63849 -3.07518 -2.31925e-18)
(8.41238 -3.02067 1.71919e-18)
(8.1523 -2.94773 -1.8948e-18)
(7.87753 -2.86421 1.7951e-18)
(7.60492 -2.77541 -3.45872e-18)
(7.34728 -2.68934 2.03592e-20)
(7.12027 -2.6156 1.80122e-20)
(5.46638 -4.71047 -6.09811e-17)
(28.5129 -24.7873 -5.02453e-19)
(61.4254 -47.2279 8.70503e-17)
(78.0257 -63.4417 -1.71223e-16)
(72.9883 -63.2417 8.4572e-17)
(51.4483 -52.9112 -7.01404e-17)
(21.6094 -37.2504 7.12156e-18)
(-9.87906 -19.7392 6.62476e-17)
(-38.5718 -2.346 -5.22163e-17)
(-60.4136 12.2592 5.21641e-17)
(-71.7373 20.8726 -3.64805e-17)
(-71.873 22.3814 3.73976e-17)
(-64.0844 18.5926 -2.00273e-17)
(-52.9667 12.3548 1.99459e-17)
(-41.6766 5.62539 -3.87543e-19)
(-31.6058 -0.793914 -3.2513e-19)
(-22.8936 -6.80873 7.71492e-18)
(-15.1635 -12.4812 -7.85129e-18)
(-8.07435 -17.8097 3.17975e-19)
(-1.51144 -22.7277 5.90477e-19)
(4.49776 -27.1546 2.93305e-17)
(9.86712 -30.9901 -2.8799e-17)
(14.4314 -34.0363 0)
(17.8857 -35.9643 -3.49926e-19)
(19.8565 -36.4644 0)
(20.1249 -35.5007 0)
(18.8454 -33.4133 -1.82533e-19)
(16.5632 -30.7613 -2.04695e-17)
(13.98 -28.0607 2.08997e-17)
(11.6284 -25.6101 1.49375e-17)
(9.70169 -23.4796 -1.53201e-17)
(8.11958 -21.6124 1.81918e-19)
(6.71087 -19.9269 -1.72379e-19)
(5.34925 -18.3721 0)
(3.99037 -16.9327 -1.13294e-19)
(2.6442 -15.6109 0)
(1.3369 -14.4057 0)
(0.0901489 -13.3066 -6.06265e-20)
(-1.07898 -12.2887 0)
(-2.16013 -11.3291 0)
(-3.15671 -10.4232 1.63322e-18)
(-4.07279 -9.57106 -1.47432e-18)
(-4.90498 -8.77054 0)
(-5.63982 -8.01219 0)
(-6.25974 -7.28074 0)
(-6.75066 -6.57251 3.68799e-20)
(-7.0979 -5.88903 5.80894e-20)
(-7.28584 -5.23461 -3.86334e-19)
(-7.29913 -4.61569 3.48244e-19)
(-7.12457 -4.04004 -8.08088e-19)
(-6.75316 -3.51583 9.15128e-19)
(-6.18201 -3.05046 -1.3721e-19)
(-5.41595 -2.64946 -9.98933e-20)
(-4.46831 -2.31539 0)
(-3.36149 -2.04765 0)
(-2.12693 -1.84203 1.42673e-18)
(-0.807949 -1.6947 2.57148e-19)
(0.54711 -1.59985 -1.66667e-18)
(1.88379 -1.55072 1.70651e-18)
(3.14647 -1.53868 -1.69565e-18)
(4.29312 -1.55614 -3.12168e-18)
(5.29838 -1.6004 1.46764e-20)
(6.15052 -1.66932 6.15719e-18)
(6.8537 -1.76104 -3.11035e-18)
(7.42536 -1.87353 -1.95407e-19)
(7.88874 -2.00333 -3.5137e-19)
(8.26458 -2.14424 -2.81737e-18)
(8.56478 -2.28672 5.48578e-18)
(8.79045 -2.41879 -2.66795e-18)
(8.93494 -2.52826 -3.08191e-19)
(8.9902 -2.6057 -2.48206e-18)
(8.95327 -2.64666 2.73225e-18)
(8.83005 -2.65256 0)
(8.63533 -2.62975 2.67719e-19)
(8.39003 -2.5875 0)
(8.11722 -2.53526 -2.05895e-18)
(7.83868 -2.48013 2.53959e-20)
(7.5726 -2.42632 1.91182e-18)
(7.33057 -2.38225 -1.32939e-18)
(7.12633 -2.35095 -4.34591e-19)
(10.7297 -3.023 -6.38599e-17)
(41.6257 -10.3273 9.62557e-17)
(59.6542 -21.4411 4.37281e-19)
(49.8186 -12.3825 8.68877e-17)
(22.7939 2.9864 -8.8997e-17)
(0.803355 17.1628 8.06088e-17)
(-9.57712 25.86 -1.58128e-16)
(-11.1275 31.193 7.75461e-17)
(-8.80319 36.0085 -6.75577e-17)
(-5.36351 41.506 6.86136e-17)
(-1.08386 47.4042 0)
(4.39661 52.9942 2.90507e-19)
(10.2824 57.945 -4.76247e-19)
(14.8205 62.226 0)
(17.056 65.6225 0)
(17.2948 67.8097 0)
(16.4552 68.5898 0)
(15.2976 68.0197 2.93408e-19)
(14.1766 66.2172 0)
(13.179 63.1935 -2.3693e-17)
(12.4697 58.886 2.29555e-17)
(12.3797 53.1202 2.62079e-17)
(13.397 45.7258 -2.71408e-17)
(15.7202 36.7541 -9.65895e-18)
(18.6009 26.7943 1.03148e-17)
(20.4884 17.0766 1.3755e-19)
(20.2796 8.93017 4.28972e-20)
(18.2161 2.93035 2.3476e-18)
(15.359 -1.26966 -5.11029e-19)
(12.5858 -4.3175 -2.03471e-18)
(10.221 -6.63275 0)
(8.24457 -8.37822 -3.20723e-20)
(6.54809 -9.6184 -3.93702e-20)
(5.04925 -10.4218 0)
(3.70288 -10.8697 1.13414e-19)
(2.48774 -11.0371 0)
(1.38979 -10.9866 0)
(0.396408 -10.7671 2.88164e-19)
(-0.500887 -10.4185 -2.72449e-19)
(-1.3045 -9.97571 -2.1135e-20)
(-2.0137 -9.46219 -4.74925e-19)
(-2.63002 -8.8967 5.46011e-19)
(-3.15493 -8.29887 7.34131e-20)
(-3.58513 -7.68045 0)
(-3.91187 -7.05096 -1.52608e-18)
(-4.12431 -6.41947 1.3362e-18)
(-4.21052 -5.79448 0)
(-4.15908 -5.18447 0)
(-3.96045 -4.59803 1.64741e-18)
(-3.60805 -4.04393 -1.93608e-18)
(-3.10023 -3.53034 -2.12428e-18)
(-2.4418 -3.06426 1.97094e-18)
(-1.64481 -2.65108 2.03021e-18)
(-0.729479 -2.2946 -3.84619e-18)
(0.27628 -1.99672 1.91377e-18)
(1.33819 -1.75741 4.84393e-19)
(2.41626 -1.57266 0)
(3.47223 -1.43606 -2.53172e-19)
(4.46704 -1.3431 1.60008e-18)
(5.36819 -1.28749 -3.4165e-18)
(6.154 -1.26307 1.78665e-18)
(6.81586 -1.26505 0)
(7.35865 -1.29074 2.0611e-19)
(7.79863 -1.339 0)
(8.15871 -1.40902 1.95329e-19)
(8.46106 -1.49855 2.06403e-19)
(8.71973 -1.60233 4.0041e-19)
(8.93603 -1.71158 2.96576e-18)
(9.09945 -1.8151 -2.52095e-18)
(9.19369 -1.90153 3.63831e-19)
(9.20491 -1.96207 2.69828e-18)
(9.1282 -1.99226 -3.28249e-18)
(8.97008 -1.99268 2.51539e-18)
(8.74702 -1.96844 -2.44634e-18)
(8.48182 -1.92786 2.62878e-18)
(8.19947 -1.88044 -1.96873e-18)
(7.92353 -1.83445 -2.13346e-18)
(7.67331 -1.79625 2.0682e-18)
(7.45995 -1.77552 -4.71289e-19)
(7.2918 -1.77094 4.56236e-19)
(15.6708 -8.19935 1.55111e-17)
(28.119 -13.5404 2.08143e-17)
(23.366 -15.084 -4.08037e-17)
(13.9114 -11.1448 3.5665e-17)
(4.95256 -8.44211 -1.66334e-17)
(-1.98346 -4.84604 -3.66345e-19)
(-6.34919 -1.40925 8.77863e-18)
(-8.40725 1.83966 -1.63041e-17)
(-8.84599 5.03839 1.47272e-18)
(-8.43708 8.49282 6.45011e-18)
(-8.24611 12.4955 2.50238e-19)
(-9.77387 17.1876 -4.54941e-18)
(-14.8984 22.4834 4.60475e-18)
(-24.7154 27.6382 -2.60206e-18)
(-37.5536 30.9782 2.65449e-18)
(-49.1303 30.9697 1.32523e-18)
(-56.0083 27.9336 -1.35159e-18)
(-58.0217 23.8309 -2.92577e-19)
(-57.0173 20.273 0)
(-54.6817 17.6909 -4.34704e-18)
(-51.7861 16.0105 4.49259e-18)
(-48.6336 15.1079 -1.1257e-19)
(-45.165 14.7507 6.55189e-18)
(-41.0428 14.3999 -6.54527e-18)
(-35.9655 13.369 -2.65101e-19)
(-29.9663 11.3846 0)
(-23.3874 8.75921 1.42503e-19)
(-16.7045 5.99079 1.31423e-19)
(-10.4873 3.41428 -1.84408e-18)
(-5.28438 1.21249 1.71823e-18)
(-1.42284 -0.517689 -1.24818e-18)
(1.09242 -1.78388 1.15588e-18)
(2.49186 -2.67562 -2.26671e-19)
(3.09157 -3.30182 3.93678e-18)
(3.17858 -3.74715 -7.74673e-18)
(2.96343 -4.06412 4.06387e-18)
(2.58343 -4.27989 4.06337e-18)
(2.12379 -4.40621 -4.30461e-18)
(1.63875 -4.44675 -1.25176e-19)
(1.16291 -4.40732 1.78372e-19)
(0.719997 -4.29473 -6.94905e-20)
(0.328898 -4.11368 3.83856e-18)
(0.00268461 -3.87242 -2.04102e-19)
(-0.247922 -3.57982 -3.71522e-18)
(-0.41357 -3.24672 3.61644e-18)
(-0.485929 -2.88486 -3.46083e-18)
(-0.457198 -2.50602 0)
(-0.320945 -2.12238 -3.33341e-18)
(-0.0738029 -1.74791 3.23803e-18)
(0.284057 -1.39592 -2.71638e-18)
(0.74978 -1.07613 2.40872e-19)
(1.31592 -0.796578 8.77055e-20)
(1.96935 -0.563778 7.88768e-20)
(2.6912 -0.381582 6.91786e-20)
(3.45734 -0.250845 2.42324e-18)
(4.23968 -0.169559 -1.05813e-19)
(5.00758 -0.13293 0)
(5.73155 -0.134432 2.40887e-18)
(6.3855 -0.166507 -1.87856e-18)
(6.95056 -0.221577 0)
(7.41858 -0.293292 2.25258e-18)
(7.79419 -0.377403 -1.69714e-18)
(8.09414 -0.471899 0)
(8.34303 -0.576253 2.40524e-19)
(8.56558 -0.689918 0)
(8.77789 -0.810685 3.22487e-18)
(8.98119 -0.933699 -6.8643e-18)
(9.1615 -1.05173 3.24943e-18)
(9.29567 -1.1566 -3.75816e-19)
(9.36089 -1.24109 -3.63733e-19)
(9.34312 -1.30039 2.90471e-18)
(9.24105 -1.33256 -2.49022e-18)
(9.0652 -1.33843 3.49319e-19)
(8.83426 -1.32125 3.35305e-19)
(8.57099 -1.28649 -6.2376e-19)
(8.29894 -1.24149 -2.89871e-19)
(8.04013 -1.19454 -2.56436e-18)
(7.81266 -1.15429 3.50062e-20)
(7.62695 -1.13189 2.36507e-18)
(7.48629 -1.12818 5.14219e-19)
(11.0681 -6.59725 0)
(25.0871 -15.4259 1.23434e-19)
(28.8929 -19.4895 2.41369e-19)
(27.2966 -22.5095 5.21253e-17)
(26.8997 -25.5714 -1.04802e-16)
(28.0274 -29.9273 1.03404e-16)
(31.487 -35.7285 -5.15321e-17)
(37.2329 -42.5392 0)
(44.0214 -49.6798 -3.02438e-19)
(49.8829 -56.0173 3.93137e-17)
(51.9443 -60.1348 -4.04499e-17)
(45.0514 -60.0171 -2.8033e-17)
(22.1338 -52.4363 5.02851e-17)
(-17.3326 -34.9875 -6.07527e-18)
(-57.627 -13.1376 -3.86334e-18)
(-77 0.087108 -1.1772e-17)
(-70.8957 -0.257351 -2.90339e-19)
(-53.2273 -5.60233 1.14241e-17)
(-37.1086 -8.56085 -1.13793e-17)
(-25.9047 -9.21692 -6.6518e-20)
(-18.3226 -8.87876 -2.80371e-19)
(-13.0729 -7.83667 -4.36516e-19)
(-9.42411 -6.38383 1.41453e-17)
(-6.81433 -4.84305 -9.09436e-19)
(-4.69823 -3.451 -1.36526e-17)
(-2.75103 -2.34447 -4.65487e-19)
(-1.04351 -1.51699 1.25037e-17)
(0.235598 -0.940636 -2.37819e-17)
(0.983142 -0.589422 2.18375e-17)
(1.26617 -0.457113 -1.00767e-17)
(1.24408 -0.526821 0)
(1.07823 -0.754966 1.52073e-17)
(0.886679 -1.08192 -2.84789e-17)
(0.734655 -1.44593 1.34004e-17)
(0.647464 -1.79705 -1.06429e-17)
(0.6265 -2.0994 1.14045e-17)
(0.661229 -2.33045 2.15629e-19)
(0.737879 -2.47746 0)
(0.84343 -2.53393 -5.15557e-20)
(0.966989 -2.49778 6.59486e-18)
(1.10089 -2.3707 -7.0154e-18)
(1.24081 -2.15896 1.92745e-19)
(1.38569 -1.87388 -1.80901e-19)
(1.53797 -1.52989 0)
(1.70264 -1.14487 0)
(1.88697 -0.73734 -4.34675e-18)
(2.09925 -0.326282 4.92612e-18)
(2.34775 0.0698424 2.30738e-19)
(2.6405 0.435954 3.8883e-18)
(2.9831 0.759698 -7.77999e-18)
(3.37688 1.02904 3.41449e-18)
(3.81929 1.23486 0)
(4.30384 1.37266 -3.31763e-18)
(4.81938 1.4419 3.08114e-18)
(5.35051 1.44589 0)
(5.87866 1.39165 -2.85257e-18)
(6.38397 1.28926 2.66274e-18)
(6.84787 1.15082 -2.48323e-18)
(7.25632 0.989066 2.13186e-18)
(7.60308 0.815795 0)
(7.8919 0.640447 -5.58262e-19)
(8.13632 0.469211 -2.56668e-19)
(8.35598 0.305027 2.06999e-18)
(8.56997 0.148528 -2.74533e-19)
(8.78911 -0.000458969 -1.95839e-18)
(9.01044 -0.14155 0)
(9.21683 -0.273158 -2.17245e-19)
(9.38241 -0.392749 0)
(9.48158 -0.497676 0)
(9.49776 -0.585996 3.2172e-18)
(9.42796 -0.65678 -3.13702e-18)
(9.28205 -0.709825 -2.59242e-18)
(9.07823 -0.745168 -3.08906e-19)
(8.83769 -0.762983 2.44388e-18)
(8.58087 -0.764139 2.94146e-18)
(8.32596 -0.751106 -2.54409e-18)
(8.08873 -0.728508 2.9353e-19)
(7.882 -0.703295 2.27675e-18)
(7.71345 -0.685613 -4.91909e-18)
(7.58549 -0.679268 1.60858e-18)
(3.37152 -1.52743 -7.46208e-18)
(9.39883 -1.71025 5.89989e-18)
(8.28781 -3.66131 9.11575e-18)
(-3.65328 0.964294 -9.35159e-18)
(-22.0861 6.6622 -2.60554e-19)
(-37.6447 11.8623 -2.68044e-19)
(-48.0896 14.6088 0)
(-53.7665 14.5738 -2.18724e-17)
(-54.7518 11.9765 2.2613e-17)
(-51.4732 7.13516 0)
(-45.1772 0.63982 2.5537e-17)
(-37.9218 -6.34802 -5.16202e-17)
(-32.4014 -11.7323 1.79412e-19)
(-30.6086 -13.2662 5.1297e-17)
(-31.7278 -10.7658 -2.61529e-17)
(-32.357 -6.82212 -2.95097e-19)
(-30.0093 -4.03768 1.07211e-19)
(-25.2592 -2.76797 0)
(-20.0586 -2.3036 -2.45819e-17)
(-15.5857 -2.15654 2.46581e-17)
(-12.0378 -2.00109 1.71957e-19)
(-9.2206 -1.67377 -2.00659e-17)
(-6.87491 -1.18019 2.08075e-17)
(-4.80666 -0.588115 -1.75173e-17)
(-2.93813 0.0292446 1.77781e-17)
(-1.26905 0.601766 4.59584e-19)
(0.128567 1.09439 -1.43365e-17)
(1.20782 1.46337 1.54084e-18)
(1.97326 1.70674 2.3734e-17)
(2.48992 1.82317 -1.52887e-18)
(2.82971 1.80155 -9.91677e-18)
(3.07965 1.6194 -7.78782e-18)
(3.31561 1.27491 8.01527e-18)
(3.57414 0.790403 0)
(3.85364 0.209442 -3.5911e-19)
(4.1331 -0.397606 -3.22158e-19)
(4.39657 -0.959857 0)
(4.63848 -1.42452 -7.87363e-18)
(4.85793 -1.75514 8.15403e-18)
(5.05132 -1.93154 2.2202e-19)
(5.2115 -1.9511 0)
(5.33088 -1.82542 -1.92409e-19)
(5.40536 -1.57726 -5.59831e-18)
(5.43726 -1.23575 5.61143e-18)
(5.43466 -0.83151 0)
(5.40944 -0.393393 4.37794e-18)
(5.37513 0.0531367 -5.10507e-18)
(5.34533 0.486192 0)
(5.33272 0.887193 0)
(5.34898 1.24042 2.43673e-19)
(5.40381 1.53337 2.30811e-19)
(5.50391 1.75758 0)
(5.6524 1.90927 -3.20172e-18)
(5.84831 1.98953 3.37856e-18)
(6.08646 2.00408 3.10699e-18)
(6.35793 1.9623 -2.93944e-19)
(6.65124 1.87599 -5.78371e-18)
(6.95414 1.75781 5.54027e-18)
(7.25585 1.61978 2.44929e-19)
(7.54922 1.47197 -2.25381e-18)
(7.83204 1.32165 2.9312e-19)
(8.10654 1.17302 0)
(8.37658 1.02758 0)
(8.64313 0.884975 -2.15094e-18)
(8.89991 0.744206 2.37728e-18)
(9.1315 0.604631 0)
(9.31595 0.466609 -2.47741e-19)
(9.43114 0.331544 0)
(9.4624 0.201508 -1.77162e-18)
(9.40774 0.0787362 1.72908e-18)
(9.27813 -0.0346576 -4.2015e-19)
(9.09338 -0.136637 -3.51607e-18)
(8.87586 -0.225057 3.0483e-18)
(8.6453 -0.297718 -3.67718e-19)
(8.4166 -0.352875 0)
(8.20031 -0.390075 0)
(8.00437 -0.410865 0)
(7.83519 -0.419278 2.6743e-18)
(7.69694 -0.422822 2.38802e-19)
(7.59225 -0.425318 -4.37635e-18)
(-20.745 5.30761 -2.50446e-17)
(-43.4935 9.25162 -3.59994e-17)
(-48.8278 7.33809 3.67865e-17)
(-48.4126 2.31418 -3.4602e-17)
(-49.5984 -0.518202 3.51674e-17)
(-50.3437 -2.49197 -1.38826e-19)
(-49.1747 -4.04346 -1.19501e-19)
(-45.6309 -5.49853 0)
(-39.9528 -7.12186 -1.8333e-19)
(-32.771 -9.00206 0)
(-24.8737 -11.1348 -4.66235e-20)
(-16.9479 -13.3864 1.17158e-17)
(-9.42574 -15.4734 -1.19799e-17)
(-2.52644 -17.0116 -4.8249e-18)
(3.66228 -17.6515 4.99908e-18)
(9.16157 -17.25 1.06173e-18)
(14.1352 -16.0348 -1.11067e-18)
(18.8468 -14.4312 0)
(23.4608 -12.7211 0)
(27.8381 -10.9656 0)
(31.5182 -9.06476 -8.33164e-18)
(33.9378 -6.9134 1.69666e-17)
(34.7985 -4.48908 -7.13735e-19)
(34.2132 -1.83449 -1.46018e-17)
(32.4993 0.936308 7.1318e-18)
(29.9432 3.67057 0)
(26.7317 6.22773 2.07224e-19)
(22.9921 8.49556 0)
(18.929 10.414 -3.52354e-19)
(14.8097 11.9288 2.57584e-19)
(10.8931 13.0074 -2.32945e-19)
(7.40916 13.637 0)
(4.5426 13.8261 -2.48807e-18)
(2.41419 13.6148 4.97815e-18)
(1.07809 13.0629 -2.65526e-18)
(0.516626 12.2434 2.82151e-18)
(0.634805 11.2243 -5.6605e-18)
(1.28303 10.0922 2.8368e-18)
(2.27762 8.94292 0)
(3.41282 7.84058 0)
(4.50373 6.83503 0)
(5.41876 5.96009 -2.51813e-18)
(6.09466 5.23393 7.59035e-18)
(6.52627 4.65327 -4.90543e-18)
(6.74758 4.20259 0)
(6.80963 3.86101 4.64137e-18)
(6.76388 3.60718 -4.48481e-18)
(6.65429 3.42128 -4.2105e-18)
(6.51632 3.28483 3.69463e-19)
(6.37932 3.18004 1.24675e-19)
(6.2688 3.09001 1.2027e-19)
(6.20663 3.00013 3.75269e-18)
(6.20946 2.89966 0)
(6.28633 2.78275 0)
(6.43702 2.64833 3.03541e-18)
(6.65195 2.49918 -3.2097e-18)
(6.91413 2.34041 0)
(7.20284 2.17795 0)
(7.49837 2.01714 -1.77725e-19)
(7.78622 1.86172 -3.27707e-19)
(8.05918 1.71319 0)
(8.31609 1.57079 0)
(8.55758 1.43199 3.04546e-19)
(8.78066 1.29353 2.92528e-19)
(8.97535 1.15251 -2.45261e-18)
(9.12547 1.00737 4.23729e-18)
(9.21367 0.858364 2.08601e-19)
(9.22838 0.707506 -3.90133e-18)
(9.16901 0.558077 3.97795e-18)
(9.04685 0.413908 -3.58391e-18)
(8.88132 0.278763 6.69234e-19)
(8.69379 0.155964 1.65596e-18)
(8.50213 0.0482474 -3.10677e-18)
(8.31807 -0.0423191 4.46114e-20)
(8.14769 -0.114512 5.71192e-18)
(7.99382 -0.168213 -3.09149e-18)
(7.85838 -0.204611 0)
(7.74352 -0.226549 -6.1564e-19)
(7.65112 -0.239595 0)
(7.5834 -0.245807 2.23674e-18)
(1.01671 2.87795 0)
(4.61961 8.3334 1.17534e-19)
(6.83531 13.4914 -1.19279e-19)
(9.96259 20.0261 -7.58296e-17)
(13.4036 24.1138 1.48636e-16)
(16.7698 27.3435 -7.26453e-17)
(18.7229 29.5186 1.20838e-19)
(18.1938 30.7085 0)
(14.8317 30.779 0)
(9.62188 29.596 0)
(4.5023 27.2821 4.77312e-20)
(1.09489 24.0924 -1.23696e-19)
(-0.129674 20.2367 0)
(0.331678 15.9212 1.36897e-19)
(1.68013 11.4354 1.65531e-19)
(3.27654 7.03974 1.2647e-17)
(4.73116 2.87473 -1.26522e-17)
(5.84107 -0.976183 -1.96101e-19)
(6.53234 -4.45771 0)
(6.81744 -7.5935 1.67249e-19)
(6.75615 -10.4682 -1.66511e-19)
(6.42294 -13.0962 1.23868e-17)
(5.87511 -15.334 -3.4083e-19)
(5.11505 -16.9684 -1.2108e-17)
(4.08987 -17.8604 -2.75427e-19)
(2.75388 -17.9834 8.00282e-20)
(1.12368 -17.4118 -9.60263e-18)
(-0.696349 -16.2909 9.24919e-18)
(-2.51773 -14.747 1.00509e-19)
(-4.1477 -12.9113 1.05052e-19)