/*--------------------------------*- C++ -*----------------------------------*\
| =========                 |                                                 |
| \\      /  F ield         | OpenFOAM: The Open Source CFD Toolbox           |
|  \\    /   O peration     | Version:  2012                                  |
|   \\  /    A nd           | Website:  www.openfoam.com                      |
|    \\/     M anipulation  |                                                 |
\*---------------------------------------------------------------------------*/
FoamFile
{
    version     2.0;
    format      ascii;
    class       volScalarField;
    location    "0.91";
    object      p;
}
// * * * * * * * * * * * * * * * * * * * * * * * * * * * * * * * * * * * * * //

dimensions      [0 2 -2 0 0 0 0];


internalField   nonuniform List<scalar> 
42400
(
-3746.79
-3762.84
-3790.84
-3859.18
-4023.89
-4294.86
-4624.09
-4911.85
-5047.57
-4964.14
-4670.96
-4238.46
-3751.03
-3275.55
-2853.35
-2500.94
-2213.11
-1972.14
-1760.26
-1567.5
-1390.95
-1228.58
-1076.74
-931.141
-789.311
-652.221
-523.19
-407.315
-308.651
-228.712
-166.627
-120.083
-86.2659
-62.4415
-46.1974
-35.5164
-28.7619
-24.6429
-22.1694
-20.6154
-19.4744
-18.419
-17.2624
-15.9231
-14.3911
-12.6992
-10.8981
-9.04004
-7.16977
-5.32175
-3.52097
-1.78514
-0.126798
1.44542
2.92594
4.3117
5.60169
6.79671
7.89919
8.9131
9.84394
10.6987
11.4857
12.2148
12.8968
13.5439
14.1691
14.7859
15.4081
16.0492
16.7217
17.4364
18.2021
19.024
19.9023
20.83
21.7939
22.794
23.9754
24.769
8221.56
8104.72
7995.44
7840.95
7543.83
7127.63
6580.01
5879.13
5026.32
4074.05
3110.65
2204.09
1378.94
642.677
15.9109
-464.157
-764.411
-885.407
-871.793
-787.487
-680.691
-574.254
-475.352
-386.836
-309.782
-243.446
-187.791
-142.33
-106.186
-78.0896
-56.4747
-39.8934
-27.249
-17.7398
-10.74
-5.73888
-2.30715
-0.0778174
1.2616
1.97373
2.27452
2.33646
2.29227
2.23906
2.24308
2.34474
2.56388
2.9047
3.36013
3.91563
4.5522
5.2489
5.98468
6.73979
7.49652
8.23971
8.95692
9.63848
10.2775
10.87
11.4148
11.9133
12.3696
12.7902
13.1836
13.56
13.9309
14.3081
14.7038
15.1296
15.5959
16.1114
16.6827
17.3136
18.0054
18.7557
19.5624
20.4406
21.3897
22.1923
-2860.19
-1963.58
-966.721
-246.387
390.578
1040.17
1700.61
2331.12
2919.75
3443.52
3867.18
4163.25
4326.55
4372.25
4323.91
4199.44
4004.22
3735.82
3397.83
3009.05
2597.51
2188.96
1801.52
1448.6
1139.95
880.6
670.567
505.628
379.09
283.501
211.96
158.692
119.125
89.7432
67.912
51.6833
39.6319
30.7138
24.1558
19.3771
15.9369
13.4995
11.8109
10.6802
9.96611
9.56486
9.40033
9.41599
9.56853
9.8233
10.1513
10.5274
10.9297
11.3389
11.7388
12.1163
12.4611
12.7662
13.0278
13.245
13.4197
13.5562
13.6611
13.7427
13.8108
13.8758
13.9483
14.039
14.1576
14.3131
14.5126
14.7614
15.063
15.4207
15.8354
16.3073
16.8417
17.462
18.1683
18.8105
7755.42
7572
7369.41
7084.83
6606.31
5973.11
5215.62
4364.5
3452.13
2522.26
1639.28
864.934
226.229
-289.029
-705.12
-1030.24
-1254.38
-1365.22
-1359.98
-1247.85
-1051.64
-808.492
-562.133
-348.975
-186.238
-72.6437
1.67827
46.6132
69.7205
77.0548
73.8891
64.7712
53.168
41.3848
30.7552
21.9146
15.0472
10.0751
6.78223
4.88982
4.10011
4.12931
4.72741
5.68789
6.84974
8.09393
9.33694
10.5232
11.6176
12.6
13.4596
14.1924
14.7983
15.2802
15.6432
15.8937
16.04
16.0917
16.0595
15.9556
15.7929
15.585
15.3457
15.0887
14.8271
14.5731
14.3376
14.1295
13.9561
13.8223
13.7308
13.6826
13.6778
13.7151
13.794
13.9159
14.0917
14.3465
14.6647
14.9685
-9480.51
-9231.54
-8939.31
-8598.6
-8192.9
-7687.08
-7038.43
-6219.03
-5237.58
-4163.34
-3124.47
-2253.47
-1616.98
-1200.9
-953.1
-824.999
-783.854
-806.899
-874.315
-963.972
-1051.59
-1114.99
-1140
-1122.4
-1066.68
-982.292
-879.929
-769.159
-657.596
-550.902
-452.923
-366.076
-291.876
-230.198
-180.02
-139.74
-107.789
-82.5494
-62.4967
-46.3637
-33.2479
-22.4929
-13.621
-6.28234
-0.214643
4.78498
8.87853
12.1984
14.8547
16.9398
18.5325
19.7006
20.5034
20.9933
21.2171
21.2172
21.0321
20.6971
20.2446
19.7043
19.1031
18.4654
17.8126
17.1631
16.5325
15.9327
15.3728
14.8584
14.392
13.972
13.5956
13.2571
12.9498
12.6661
12.402
12.1594
11.9545
11.8144
11.7222
11.6793
-777.236
-820.088
-891.718
-989.46
-1129.9
-1280.88
-1419.16
-1520.98
-1570.36
-1569.68
-1544.96
-1532.55
-1549.31
-1575.15
-1571.45
-1512.74
-1397.88
-1240.33
-1057.95
-869.428
-691.78
-537.924
-414.976
-324.442
-263.268
-225.634
-204.688
-193.748
-187.11
-180.703
-172.542
-162.287
-150.378
-138.063
-126.311
-115.321
-104.498
-93.1836
-81.001
-67.8726
-54.0622
-40.1806
-26.9737
-15.0595
-4.78897
3.74331
10.6242
16.0348
20.1848
23.2743
25.4802
26.953
27.8203
28.1901
28.1546
27.7937
27.177
26.3655
25.4131
24.3672
23.2691
22.1543
21.0524
19.9871
18.9763
18.0321
17.1616
16.3669
15.6462
14.9931
14.3965
13.8435
13.3197
12.8117
12.3111
11.8198
11.3573
10.9583
10.6423
10.4299
7375.08
7283.09
7158.19
6957.69
6659.69
6273.4
5828.52
5362.34
4904.14
4469.52
4064.09
3688.38
3340.78
3018.38
2716.76
2430.6
2154.85
1885.93
1623.26
1369.44
1128.9
906.158
704.41
524.665
366.913
230.802
116.331
24.0316
-45.5445
-92.5386
-118.482
-126.597
-121.347
-107.541
-89.0529
-68.7747
-48.6353
-29.7321
-12.6068
2.40333
15.1227
25.5228
33.718
39.9199
44.3829
47.3806
49.1816
50.0256
50.1275
49.6463
48.7093
47.4156
45.8425
44.0526
42.0992
40.0297
37.8875
35.7135
33.5457
31.4195
29.3669
27.4152
25.5873
23.8999
22.3637
20.9836
19.7593
18.6848
17.7482
16.934
16.2213
15.5867
15.0054
14.4551
13.9208
13.4004
12.9113
12.4899
12.215
12.03
-103.32
6.46463
160.691
342.402
560.001
781.305
991.22
1176.97
1328.89
1440.75
1509.9
1537.32
1527.07
1484.92
1417.01
1329.26
1227.36
1117.6
1005.88
896.511
792.642
696.076
607.394
526.74
453.657
387.947
329.545
278.391
234.582
197.732
167.603
143.742
125.457
111.917
102.231
95.5041
90.8839
87.6197
85.1345
83.0709
81.2703
79.6943
78.3283
77.1246
75.9991
74.8468
73.565
72.071
70.3116
68.2634
65.9286
63.329
60.4997
57.4844
54.3316
51.0919
47.8162
44.5547
41.3558
38.2654
35.3258
32.5745
30.043
27.7557
25.7279
23.9629
22.4599
21.2075
20.1839
19.3603
18.703
18.1754
17.7415
17.3692
17.0356
16.7316
16.4685
16.2688
16.2478
16.2717
-7172.65
-7153.51
-7145.06
-7118.65
-7054.48
-6942.42
-6781.58
-6576.87
-6334.81
-6061.89
-5763.18
-5442.23
-5101.25
-4741.34
-4363.25
-3968.19
-3558.73
-3139.81
-2718.07
-2301.02
-1898.12
-1518.2
-1167.93
-852.97
-578.797
-349.494
-166.219
-26.7936
73.7085
142.178
185.611
210.294
221.58
223.699
219.827
212.252
202.565
191.835
180.77
169.84
159.361
149.532
140.456
132.161
124.606
117.709
111.36
105.437
99.8266
94.429
89.1686
83.993
78.8723
73.7957
68.768
63.8074
58.9423
54.2101
49.6551
45.3258
41.2731
37.5466
34.1926
31.2523
28.7518
26.603
24.8854
23.5627
22.586
21.9028
21.4565
21.192
21.0596
21.0184
21.0386
21.1032
21.2131
21.3732
21.6727
21.9796
-2518.13
-2440.62
-2300.61
-2079.66
-1798.42
-1493.72
-1193.24
-910.323
-648.162
-407.102
-187.731
8.50264
178.969
320.461
429.971
505.42
545.813
552.397
528.677
480.37
416.246
347.275
283.847
233.155
198.329
178.768
171.821
174.288
182.963
194.946
207.812
219.668
229.157
235.455
238.254
237.631
233.926
227.654
219.419
209.84
199.459
188.745
178.049
167.607
157.567
148
138.918
130.299
122.105
114.292
106.818
99.6425
92.7308
86.0534
79.5893
73.329
67.2771
61.4543
55.8974
50.6569
45.7931
41.3701
37.4482
34.0723
31.2501
29.0681
27.4127
26.2404
25.4885
25.0785
24.9325
24.9821
25.1726
25.4625
25.8214
26.2279
26.6698
27.1423
27.6764
28.1892
15080.9
14875.3
14605.6
14185.6
13569.3
12808.6
11954
11052.3
10141.8
9251.99
8402.76
7600.58
6839.94
6111
5408.31
4733.91
4095.66
3505.37
2974.73
2512.11
2120.46
1796.27
1530.88
1313.24
1132.26
979.251
848.059
734.743
636.859
552.735
481.001
420.485
370.524
329.628
295.639
266.847
241.746
219.247
198.832
180.444
164.301
150.715
139.781
131.064
124.352
119.293
115.421
112.264
109.403
106.492
103.284
99.6234
95.4497
90.7788
85.6842
80.2758
74.682
69.037
63.4733
58.1186
53.0919
48.4997
44.4294
40.9422
38.0886
35.8416
34.1561
32.9744
32.2124
31.7782
31.5917
31.5917
31.7359
31.9944
32.3426
32.7575
33.2151
33.7009
34.2023
34.6812
-4071.22
-3738.25
-3281.51
-2743.22
-2101.11
-1427.08
-760.582
-143.427
386.737
804.405
1103.55
1296.08
1400.9
1435.3
1410.64
1335.96
1223.28
1086.59
939.787
794.307
657.643
533.153
421.168
320.67
230.669
150.916
81.7755
23.6806
-23.3077
-59.4176
-84.5189
-97.9154
-99.2004
-88.5475
-68.5399
-43.1535
-16.256
9.38631
32.3064
51.9336
68.1465
80.9736
90.6594
97.8882
103.001
106.314
108.148
108.774
108.41
107.221
105.332
102.841
99.828
96.3687
92.5362
88.407
84.0642
79.5988
75.108
70.6925
66.4505
62.4713
58.8282
55.5745
52.7228
50.295
48.2337
46.5039
45.0604
43.8554
42.8587
42.0585
41.4537
41.0422
40.8109
40.7329
40.7709
40.8884
41.0511
41.2205
-7176.75
-7276.24
-7402.84
-7490.66
-7493.53
-7403.51
-7243.97
-7048.58
-6847.78
-6661.09
-6491.21
-6322.97
-6132.3
-5898.16
-5610.07
-5271.57
-4894.89
-4494.64
-4084.07
-3674.2
-3274.15
-2891.71
-2533.04
-2202.06
-1899.5
-1623.17
-1368.34
-1128.82
-899.649
-679.481
-472.105
-284.702
-124.041
5.33761
101.826
165.677
200.563
213.02
210.904
201.189
188.73
176.354
165.3
155.839
147.858
141.111
135.319
130.253
125.737
121.638
117.851
114.286
110.865
107.525
104.22
100.918
97.5981
94.2557
90.8948
87.5276
84.1702
80.8398
77.5508
74.3136
71.1498
68.0834
65.1499
62.3446
59.6833
57.2062
54.963
53.0063
51.3781
50.0942
49.1358
48.4533
47.9795
47.6422
47.3847
47.1256
-3339.55
-2966.8
-2460.51
-1874.52
-1176.51
-466.183
198.183
763.573
1205.32
1533.15
1768.55
1925.61
2011.32
2034.15
2005.44
1937.35
1840.98
1725.58
1598.4
1464.2
1325.02
1180.39
1028.29
866.765
697.295
526.407
365.759
228.962
125.817
58.6441
23.4394
12.0574
15.0236
24.5815
36.2007
48.1512
60.203
72.6911
85.2746
97.2165
107.869
116.622
123.084
127.245
129.334
129.748
128.933
127.277
125.109
122.687
120.192
117.738
115.374
113.103
110.897
108.708
106.484
104.174
101.736
99.1368
96.3565
93.3877
90.2374
86.9265
83.4924
79.9025
76.2995
72.7327
69.2724
66.0153
63.0628
60.5018
58.3853
56.7178
55.4534
54.5077
53.777
53.1568
52.5661
51.9098
11413.1
11196.8
10892
10426.9
9726.3
8855.98
7885.17
6904.07
5992.76
5196.02
4523.44
3961.82
3490.15
3088.05
2739.44
2432.98
2162.22
1923
1711.88
1525.6
1361.22
1216.3
1089.11
977.798
879.196
789.427
706.337
631.27
567.666
517.221
478.969
449.426
424.237
399.867
374.371
347.306
319.181
291.002
263.931
238.972
216.809
197.752
181.771
168.594
157.859
149.146
142.051
136.245
131.465
127.494
124.147
121.268
118.727
116.411
114.222
112.076
109.898
107.63
105.222
102.641
99.8642
96.8815
93.6941
90.3134
86.7585
83.142
79.4548
75.7962
72.2866
69.0503
66.2023
63.8232
61.9385
60.5106
59.4472
58.6226
57.906
57.1868
56.3993
55.4996
-2348.37
-2392.17
-2455.43
-2508.28
-2569.94
-2593.84
-2559.26
-2454.17
-2279.18
-2052.48
-1805.47
-1566.59
-1349.55
-1158.72
-992.8
-848.112
-720.684
-606.922
-502.909
-403.72
-303.256
-195.596
-77.3102
50.3275
178.945
293.986
380.03
428.271
440.769
428.156
402.476
372.281
342.079
313.923
288.721
266.707
247.602
230.909
216.338
203.411
191.814
181.339
171.849
163.373
155.951
149.472
143.773
138.781
134.41
130.555
127.108
123.966
121.037
118.243
115.516
112.801
110.055
107.246
104.349
101.346
98.2262
94.9822
91.6159
88.1401
84.5427
80.9341
77.3807
73.9918
70.8972
68.2169
66.0343
64.3726
63.1845
62.3607
61.755
61.2181
60.6289
59.915
59.0648
58.0989
-4211
-4071.46
-3875.35
-3616.65
-3295.3
-2929.27
-2527.4
-2100.11
-1663.75
-1242.38
-860.054
-532.561
-266.249
-59.0901
90.0551
177.838
199.841
157.229
62.5199
-59.6792
-179.54
-273.809
-334.24
-365.932
-378.336
-377.413
-364.364
-339.606
-304.807
-262.417
-214.89
-164.744
-114.92
-68.2978
-27.2847
6.935
34.3951
55.9122
72.42
85.0886
94.7109
102.23
108.178
112.789
116.202
118.611
120.201
121.047
121.224
120.814
119.891
118.522
116.794
114.738
112.403
109.829
107.049
104.089
100.967
97.6987
94.2978
90.7809
87.1714
83.502
79.8951
76.3999
73.1436
70.2641
67.8801
66.0629
64.8129
64.0519
63.6373
63.3956
63.1628
62.8182
62.2999
61.603
60.7666
59.8442
5137.17
5025.18
4874.9
4677.59
4425.39
4142.85
3833.33
3499.07
3143.54
2769.25
2376.3
1964.16
1534.4
1093.53
654.342
233.994
-149.815
-480.297
-737.65
-899.513
-957.178
-933.105
-868.543
-793.522
-717.698
-642.606
-569.763
-500.263
-434.197
-371.712
-313.559
-260.834
-214.302
-173.888
-138.691
-107.459
-79.1067
-52.9662
-28.7539
-6.4553
13.9892
32.2939
48.4215
62.3797
74.2025
83.9689
91.8023
97.8599
102.322
105.378
107.221
108.032
107.954
107.153
105.745
103.831
101.491
98.787
95.7492
92.4777
88.999
85.4062
81.7733
78.2052
74.8168
71.747
69.1357
67.0912
65.6613
64.8147
64.4391
64.3625
64.3933
64.3663
64.1749
63.7806
63.1987
62.4716
61.6459
60.7606
-6592.61
-6320.35
-5967.41
-5527.59
-4965.91
-4290.55
-3520.83
-2710.61
-1932.32
-1248.47
-690.898
-260.17
59.4831
286.098
435.899
523.31
561.189
562.379
541.465
514.102
489.595
464.789
430.029
381.777
325.59
268.704
215.166
166.071
122.252
82.6311
49.1495
23.2441
5.9599
-2.47437
-3.03442
2.31575
11.2082
21.5162
31.7535
40.9218
48.8871
56.2308
63.452
70.5863
77.4767
83.8555
89.4323
93.981
97.3848
99.6503
100.875
101.211
100.818
99.8318
98.3609
96.4786
94.2451
91.719
88.9833
86.0537
83.0295
79.9636
76.9598
74.1352
71.6101
69.4968
67.8758
66.7725
66.1413
65.8685
65.7953
65.7556
65.6158
65.3015
64.8007
64.1455
63.3842
62.5576
61.6909
60.798
3646.97
3338.45
2947.71
2476.28
1835.62
1093.29
310.984
-424.264
-1030.02
-1461.46
-1718.81
-1831.5
-1832.64
-1745.68
-1586.15
-1369.16
-1113.78
-840.292
-569.027
-315.919
-90.5226
103.36
265.709
396.768
495.425
561.415
596.534
604.752
591.173
560.967
518.886
469.174
415.508
360.671
307.224
257.163
212.181
173.79
142.574
119.143
102.946
92.2093
85.7047
82.4975
81.5451
81.9097
82.9006
84.0748
85.1891
86.1308
86.848
87.3019
87.4516
87.2574
86.6935
85.761
84.492
82.9444
81.1913
79.3118
77.3871
75.4937
73.7079
72.1037
70.7438
69.6675
68.878
68.3347
67.9552
67.632
67.2606
66.7673
66.1247
65.3496
64.4871
63.5871
62.6855
61.798
60.9248
60.0626
12289.4
12060
11775.7
11330.4
10629.2
9647.62
8424.91
7041.39
5576.25
4087.46
2618.12
1213.92
-65.7552
-1152.32
-1988.85
-2558.82
-2889.86
-3036.99
-3058.79
-3000.14
-2887.54
-2734.51
-2549.31
-2340.29
-2116.61
-1884.63
-1649.98
-1417.92
-1194.31
-986.187
-800.698
-642.574
-513.297
-410.907
-331.524
-270.637
-224.118
-188.575
-161.109
-139.626
-122.601
-108.92
-97.7974
-88.6372
-80.9892
-74.5512
-69.0963
-64.4455
-60.4545
-57.0061
-54.0037
-51.3676
-49.0322
-46.9427
-45.0546
-43.3312
-41.7434
-40.2681
-38.8875
-37.5869
-36.3583
-35.1965
-34.0944
-33.0419
-32.0212
-31.0051
-29.9563
-28.8313
-27.5881
-26.1977
-24.6549
-22.9833
-21.2349
-19.4852
-17.8308
-16.3796
-15.2229
-14.4065
-13.9121
-13.6848
2658.26
2532.84
2416.87
2334.58
2246.65
2190.51
2193.95
2268.41
2403.45
2577.32
2764.27
2932.61
3043.49
3055.91
2939.2
2692.41
2351.49
1973.57
1608.77
1284.92
1010.1
781.345
591.414
433.512
302.611
194.265
105.486
34.5513
-19.9914
-59.9588
-87.7065
-105.778
-116.406
-121.453
-122.133
-119.394
-114.279
-107.612
-100.206
-92.5416
-84.9387
-77.642
-70.8365
-64.6528
-59.1688
-54.4154
-50.3824
-47.0286
-44.2896
-42.0873
-40.3373
-38.9547
-37.8584
-36.9735
-36.2337
-35.5826
-34.9738
-34.3738
-33.751
-33.0373
-32.266
-31.4705
-30.6643
-29.8543
-29.0446
-28.2202
-27.3464
-26.3702
-25.231
-23.8804
-22.3042
-20.5369
-18.663
-16.8036
-15.0915
-13.6409
-12.5197
-11.7391
-11.2633
-11.0233
-6592.88
-5848.86
-4905.01
-4021.26
-3160.41
-2381.66
-1628.31
-888.723
-189.582
439.34
982.904
1438.37
1805.5
2082.07
2265.32
2359.35
2377.79
2339.99
2264.39
2164.33
2047.92
1919.73
1782.77
1637.78
1485.88
1328.67
1168.14
1006.55
846.567
691.611
545.732
412.858
296.964
200.675
124.37
66.4453
24.5136
-4.23734
-22.89
-33.9907
-39.6768
-41.6962
-41.4156
-39.859
-37.755
-35.589
-33.6558
-32.1068
-30.9907
-30.2857
-29.9255
-29.8201
-29.8712
-29.9844
-30.0775
-30.0853
-29.9662
-29.7716
-29.4177
-28.9833
-28.4755
-27.9117
-27.33
-26.7636
-26.226
-25.7064
-25.1601
-24.5102
-23.665
-22.5458
-21.1189
-19.4176
-17.5447
-15.649
-13.8867
-12.3782
-11.1817
-10.2967
-9.6788
-9.26535
4818.33
4768.57
4647.45
4383.85
3990.6
3502.77
2991.03
2508.45
2074.75
1692.58
1354.97
1053.17
779.294
527.008
293.97
81.7489
-106.069
-266.588
-398.159
-499.267
-567.817
-602.223
-603.278
-574.355
-522.429
-456.058
-382.694
-307.678
-235.077
-168.403
-110.364
-62.0534
-23.9172
4.4957
24.2634
36.7365
43.273
45.2039
44.0564
40.8277
36.2964
31.0477
25.4623
19.7673
14.0931
8.51822
3.09966
-2.11058
-7.05687
-11.6777
-15.9071
-19.679
-22.9317
-25.614
-27.6901
-29.1484
-30.0198
-30.3413
-30.123
-29.4774
-28.5493
-27.4873
-26.4288
-25.4806
-24.697
-24.0667
-23.5173
-22.9338
-22.1902
-21.185
-19.8748
-18.2893
-16.5249
-14.7176
-13.0026
-11.4884
-10.2217
-9.2061
-8.41373
-7.79817
-1012.21
-1131.83
-1316.53
-1509.6
-1693.22
-1753.09
-1668.93
-1488.79
-1280.44
-1087.24
-919.191
-772.005
-642.303
-530.647
-438.556
-365.435
-310.469
-277.732
-274.671
-303.175
-355.371
-416.043
-464.83
-484.03
-470.087
-432.006
-384.713
-339.184
-297.334
-256.588
-214.377
-170.262
-125.587
-82.5078
-43.2094
-9.39576
17.9025
38.338
52.1483
60.0503
62.9595
61.8459
57.6476
51.2106
43.2646
34.4207
25.1785
15.9395
7.0208
-1.33177
-8.93171
-15.6412
-21.3621
-26.0299
-29.6122
-32.1127
-33.549
-33.9258
-33.4728
-32.3811
-30.8744
-29.1898
-27.5371
-26.0625
-24.826
-23.8014
-22.8972
-21.9902
-20.9694
-19.7417
-18.2907
-16.6531
-14.912
-13.1715
-11.5282
-10.0503
-8.76915
-7.68569
-6.78329
-6.03568
-4899.46
-4749.79
-4590.36
-4412.39
-4186.52
-3871.17
-3457
-2966.21
-2433.12
-1885.84
-1343.9
-827.953
-370.64
-13.0955
221.396
356.225
443.746
512.887
548.56
526.179
445.647
336.159
245.72
208.849
217.774
239.046
248.641
244.651
234.517
224.23
216.409
211.207
207.648
204.498
200.534
194.64
186.319
175.544
162.95
148.978
134.05
118.587
102.977
87.563
72.6251
58.3816
44.9928
32.571
21.1924
10.9081
1.75327
-6.24565
-13.0687
-18.7064
-23.1657
-26.4877
-28.739
-29.7822
-29.9397
-29.3883
-28.3265
-26.974
-25.5265
-24.123
-22.8281
-21.6363
-20.4925
-19.3231
-18.0644
-16.6823
-15.1806
-13.5971
-11.9909
-10.4265
-8.9586
-7.6223
-6.43077
-5.3809
-4.469
-3.69458
7856.5
7611
7322.56
7001.1
6569.62
6107.82
5638.48
5168.85
4693.65
4203.74
3698.13
3185.62
2686.76
2234.33
1862.6
1582.68
1367.88
1174.3
975.427
769.926
569.186
392.207
264.685
202.552
196.549
217.412
242.658
263.802
279.056
287.836
289.822
285.131
274.489
258.965
239.822
218.494
196.131
173.685
151.623
130.654
111.412
94.2991
79.4411
66.7167
55.8347
46.428
38.135
30.6544
23.772
17.3638
11.382
5.83471
0.765337
-3.76155
-7.67349
-10.8934
-13.3752
-15.3154
-16.6105
-17.3392
-17.6103
-17.5377
-17.2245
-16.7484
-16.1546
-15.4593
-14.6598
-13.7474
-12.7188
-11.5833
-10.3648
-9.09841
-7.82453
-6.58146
-5.3995
-4.29702
-3.27908
-2.34297
-1.50185
-0.786847
1354.11
1426.24
1517.85
1570.37
1547.07
1443.6
1310.14
1197.84
1131.34
1109.83
1118.93
1141.81
1164.72
1177.72
1173.53
1147.77
1100.38
1036.42
965.222
895.222
829.756
765.746
697.203
621.579
542.6
466.975
399.288
340.082
287.23
238.361
192.533
150.2
111.562
77.2315
47.7119
23.4362
4.95492
-7.23559
-13.1001
-13.2932
-9.19133
-2.59749
4.73491
11.4693
16.8045
20.4343
22.3592
22.7579
21.8903
20.043
17.5006
14.5273
11.3532
8.16721
5.11792
2.31901
-0.153179
-2.26929
-4.02027
-5.40264
-6.44136
-7.1728
-7.63593
-7.86616
-7.89201
-7.73506
-7.41236
-6.93985
-6.33541
-5.62069
-4.82117
-3.96454
-3.07821
-2.18673
-1.30963
-0.459172
0.361752
1.1543
1.88852
2.49977
-6564.84
-6293.95
-5931.17
-5504.74
-5014.39
-4515.83
-4027.21
-3561.75
-3130.83
-2744.72
-2411.9
-2137.55
-1920.79
-1756.02
-1634.8
-1547.89
-1486.46
-1441.97
-1406.55
-1373.45
-1337.54
-1295.32
-1244.79
-1184.91
-1114.93
-1034.61
-945.259
-849.501
-750.777
-652.814
-559.04
-472.341
-393.792
-324.214
-264.363
-214.279
-173.292
-140.161
-113.383
-91.5203
-73.3538
-57.9877
-44.8146
-33.4226
-23.5412
-15.0194
-7.79646
-1.88245
2.74293
6.12708
8.36403
9.59376
9.98619
9.7251
8.98926
7.9409
6.70192
5.39419
4.11982
2.94518
1.91282
1.04658
0.356617
-0.155888
-0.495239
-0.669226
-0.688232
-0.565043
-0.314846
0.0449792
0.495539
1.0175
1.59223
2.20262
2.83401
3.4765
4.12827
4.79062
5.42071
5.9233
3242.78
3023.68
2731.7
2387.09
1964.45
1543.96
1154.09
804.607
493.936
213.945
-43.5837
-285.27
-515.908
-738.205
-950.851
-1149.44
-1328.25
-1481.45
-1604.13
-1692
-1742.43
-1755.96
-1735.92
-1687.81
-1617.46
-1529.72
-1427.92
-1314.8
-1193.2
-1066.36
-937.81
-810.581
-687.12
-569.686
-459.911
-359.348
-269.814
-193.177
-130.685
-82.3573
-46.9308
-22.2975
-5.74974
4.903
11.4186
15.2854
17.3878
18.3166
18.4896
18.2135
17.6676
16.9243
16.0458
15.0054
13.8531
12.7116
11.6149
10.5555
9.54542
8.59921
7.73176
6.95719
6.28762
5.73241
5.29768
4.98613
4.79693
4.72596
4.76605
4.90752
5.13888
5.44774
5.82148
6.2476
6.71434
7.21323
7.74346
8.30782
8.8556
9.26771
-605.836
-485.653
-317.035
-101.846
156.687
441.32
749.843
1080.16
1422.62
1759.61
2069.77
2332.88
2533.3
2660
2708.36
2682.16
2592.42
2453.37
2281.47
2092.68
1901.33
1718.64
1550.54
1398.72
1260.89
1133.53
1013.13
897.216
784.669
675.073
568.663
466.954
372.224
286.688
211.8
147.883
94.3436
50.2604
15.0168
-11.9854
-30.7743
-41.529
-44.9379
-42.3175
-35.588
-27.1678
-18.6401
-10.9638
-4.56743
0.53437
4.6677
7.96579
10.5854
12.6062
13.922
14.5641
14.6884
14.4354
13.9263
13.2638
12.531
11.7922
11.0945
10.4707
9.94217
9.52093
9.21209
9.01548
8.92695
8.93953
9.04435
9.23147
9.49045
9.81047
10.1807
10.5929
11.0466
11.5457
12.0355
12.3815
4555.75
4592.45
4661.46
4722.48
4746.43
4717.42
4641.38
4519.93
4347.19
4114.93
3819.34
3467.01
3077.38
2674.94
2276.97
1893.76
1535.27
1210.11
924.611
684.931
496.379
360.443
272.824
224.315
204.197
201.554
206.713
212.718
214.744
210.642
200.422
185.215
166.066
143.944
119.872
94.9379
70.3132
47.2879
27.2241
11.3812
0.669909
-4.62607
-5.2139
-1.98083
4.09633
12.0952
20.7111
28.6996
35.0793
39.2409
40.9404
40.5673
38.6131
35.7601
32.6332
29.5328
26.6312
24.0183
21.7248
19.7472
18.0648
16.6504
15.4764
14.5174
13.7509
13.1576
12.7202
12.4236
12.2535
12.1966
12.2405
12.3727
12.5817
12.8558
13.1834
13.5556
13.9711
14.4337
14.8867
15.1873
6767.01
6451.63
6026.85
5472.68
4729.14
3900.72
3031.81
2146.63
1254.36
357.695
-523.841
-1321.68
-1931.44
-2298.5
-2461.36
-2493.54
-2460.08
-2404.83
-2340.57
-2261.13
-2159.2
-2031.48
-1878.86
-1705.77
-1519.48
-1329.08
-1142.54
-966.234
-804.156
-658.59
-530.052
-417.607
-320.587
-238.052
-168.742
-111.435
-65.0137
-28.4083
-0.533119
19.731
33.5057
41.8789
45.9032
46.6556
45.241
42.7166
39.9339
37.4058
35.295
33.5409
32.0138
30.6084
29.2567
27.92
26.5797
25.2328
23.8911
22.5757
21.3114
20.122
19.0283
18.046
17.1857
16.4533
15.8506
15.3762
15.026
14.7938
14.6719
14.6516
14.7232
14.8767
15.1016
15.387
15.7213
16.0953
16.5073
16.9606
17.3972
17.6683
-15935.6
-15290.1
-14450.9
-13477.6
-12376.6
-11220.4
-10012.3
-8720.63
-7313.37
-5828.01
-4426.3
-3335.71
-2675.46
-2365.55
-2234.45
-2176.72
-2175
-2222.15
-2280.04
-2306.01
-2273.04
-2169.29
-1999.21
-1782.97
-1546.54
-1310.9
-1089.59
-890.671
-718.126
-572.439
-451.583
-352.574
-271.562
-204.906
-149.941
-104.974
-68.3828
-38.9736
-15.7036
2.36131
16.0865
26.238
33.4567
38.2707
41.1294
42.4322
42.5391
41.7646
40.37
38.566
36.5217
34.3711
32.2177
30.1357
28.1734
26.3586
24.7046
23.215
21.8883
20.72
19.7047
18.8363
18.1089
17.5165
17.053
16.7118
16.486
16.3681
16.3502
16.4236
16.5793
16.8075
17.0982
17.4404
17.8224
18.2344
18.6736
19.1424
19.5822
19.8381
2443.29
2133.07
1664.37
1050
290.315
-502.921
-1295.49
-2056.87
-2713.35
-3169.39
-3372.91
-3348.53
-3181.48
-2954.64
-2701.62
-2407.02
-2048.64
-1640.21
-1222.7
-831.465
-484.134
-185.645
61.9211
256.051
394.906
479.46
517.488
519.21
495.598
456.44
409.419
359.976
311.67
266.744
226.562
191.656
161.768
136.781
116.31
99.7348
86.3988
75.6828
67.0626
60.0932
54.4004
49.6786
45.6845
42.23
39.1758
36.4247
33.9152
31.6127
29.5011
27.5742
25.8301
24.2673
22.8823
21.6698
20.6225
19.7321
18.9895
18.3858
17.9121
17.5602
17.3223
17.191
17.159
17.2191
17.3638
17.5855
17.8759
18.2261
18.6267
19.0668
19.5343
20.0186
20.5154
21.0248
21.4872
21.7389
6010.89
6017.72
6059.59
6157.46
6330.53
6556.08
6736.65
6784.97
6688.68
6481.35
6194.62
5849.3
5468.09
5071.24
4669.27
4264.16
3852.5
3435.67
3019.88
2616.18
2237.69
1895.6
1597.8
1344.68
1130.57
946.914
784.727
640.202
514.239
408.399
322.003
252.274
196.042
151.175
116.376
90.8887
73.1768
61.1127
52.8604
47.0508
42.8151
39.6116
37.0866
34.9869
33.1489
31.479
29.9262
28.4641
27.0803
25.771
24.537
23.3817
22.3097
21.3256
20.4338
19.6374
18.9391
18.3401
17.8408
17.4407
17.138
16.9305
16.8151
16.788
16.8454
16.9828
17.1957
17.4792
17.8282
18.2368
18.6988
19.2069
19.7528
20.3261
20.9141
21.5045
22.0913
22.6715
23.181
23.4334
-1668.7
-1744.02
-1838.12
-1923.65
-1991.51
-2010.38
-1988.42
-1943.01
-1884.08
-1818.94
-1754.78
-1695.38
-1639.01
-1581.62
-1519.8
-1451.98
-1378.11
-1298.13
-1211.36
-1116.69
-1013.99
-905.667
-796.613
-693.313
-601.865
-525.506
-462.222
-405.084
-344.809
-274.031
-190.889
-101.206
-15.2889
58.0971
112.975
146.958
161.296
160.321
149.484
133.42
115.546
97.8131
81.3646
66.8188
54.4557
44.3057
36.2183
29.9326
25.1422
21.547
18.8856
16.9472
15.5683
14.6234
14.015
13.6665
13.5174
13.5205
13.6395
13.8468
14.1226
14.4528
14.828
15.2427
15.6939
16.1803
16.7018
17.2584
17.8504
18.4772
19.137
19.8268
20.5417
21.2734
22.01
22.7375
23.4485
24.1377
24.7321
24.9883
-4306.29
-4119.77
-3875.17
-3594.88
-3264.06
-2932.72
-2622.14
-2341.94
-2088.24
-1850.65
-1625.47
-1418.63
-1236.8
-1079.45
-941.194
-818.761
-714.011
-630.214
-570.495
-536.206
-525.247
-532.527
-551.483
-575.725
-600.458
-622.915
-641.342
-653.733
-655.374
-639.077
-599.557
-538.143
-462.367
-382.86
-309.229
-247.075
-197.53
-158.893
-128.713
-104.908
-85.9318
-70.6232
-58.0924
-47.6736
-38.8876
-31.3989
-24.972
-19.436
-14.6592
-10.5326
-6.96222
-3.86685
-1.17852
1.15905
3.1933
4.9662
6.51638
7.87981
9.0895
10.1752
11.1628
12.075
12.9307
13.746
14.5343
15.3069
16.0736
16.8425
17.6205
18.4133
19.2251
20.0586
20.9142
21.7891
22.6744
23.557
24.4275
25.2759
26.0249
26.3871
10198.1
10075.2
9876.33
9545.54
9096.95
8591.7
8069.82
7545.9
7018.2
6479.89
5924.56
5348.85
4753.33
4142.72
3526.46
2919.58
2340.97
1808.33
1333.87
921.144
567.299
267.544
18.3065
-181.459
-330.901
-429.972
-482.832
-499.688
-493.245
-473.012
-443.639
-407.23
-366.671
-325.592
-287.166
-253.161
-223.813
-198.386
-175.862
-155.402
-136.49
-118.893
-102.554
-87.4935
-73.7557
-61.3728
-50.3593
-40.7034
-32.3572
-25.2284
-19.1843
-14.0716
-9.73824
-6.04898
-2.89079
-0.171101
2.18525
4.23949
6.04185
7.63408
9.05135
10.3238
11.4775
12.5356
13.5184
14.4444
15.3302
16.1912
17.0414
17.8934
18.7585
19.6464
20.5645
21.5167
22.501
23.5087
24.5305
25.5623
26.5507
27.1942
-10298.6
-9771.69
-9081.04
-8332.79
-7528.82
-6748.68
-5978.2
-5195.57
-4397.76
-3605.99
-2851.85
-2156.57
-1527.07
-968.11
-491.156
-106.667
186.018
396.356
537.486
620.635
655.06
649.061
610.591
547.474
467.649
379.155
289.588
205.166
129.854
65.6401
13.3133
-27.1712
-56.6812
-76.7081
-88.996
-95.341
-96.8066
-94.6708
-89.8573
-83.1453
-75.238
-66.7562
-58.2243
-50.0471
-42.4928
-35.6909
-29.6632
-24.3587
-19.6939
-15.5788
-11.9323
-8.68637
-5.78722
-3.19203
-0.865491
1.22279
3.09976
4.78963
6.31424
7.69334
8.94488
10.0854
11.1305
12.0951
12.9939
13.8415
14.6526
15.4419
16.2241
17.0133
17.8232
18.6659
19.5516
20.4875
21.4762
22.514
23.5923
24.7091
25.8229
26.6639
-13.5547
-13.7824
-14.0654
-14.1601
-13.9977
-13.5946
-13.0343
-12.4345
-11.9202
-11.596
-11.5338
-11.7703
-12.3112
-13.1337
-14.1887
-15.3992
-16.66
-17.8467
-18.8384
-19.5154
-19.8356
-19.7554
-19.3114
-18.5278
-17.4337
-16.103
-14.6057
-13.0041
-11.3543
-9.70911
-8.12043
-6.6363
-5.29569
-4.12336
-3.128
-2.30424
-1.63727
-1.10775
-0.695664
-0.382503
-0.152311
0.00808773
0.109301
0.159795
0.166273
0.133945
0.0667385
-0.0325367
-0.162101
-0.321174
-0.509932
-0.729445
-0.981709
-1.2697
-1.59731
-1.9688
-2.38794
-2.85688
-3.37571
-3.94308
-4.55814
-5.22296
-5.94431
-6.73396
-7.60703
-8.57895
-9.66165
-10.8596
-12.1667
-13.5654
-15.0279
-16.5191
-18.0015
-19.4388
-20.7982
-22.0518
-23.1767
-24.1542
-24.9694
-25.6115
-26.0728
-26.3496
-26.442
-26.3537
-26.0913
-25.6642
-25.0842
-24.3648
-23.5218
-22.5718
-21.5327
-20.4226
-19.2594
-18.0602
-16.8412
-15.6173
-14.4024
-13.2093
-12.05
-10.935
-9.87366
-8.87285
-7.93717
-7.06861
-6.26687
-5.52979
-4.85399
-4.23531
-3.66926
-3.15141
-2.67756
-2.24388
-1.84692
-1.48354
-1.15095
-0.846678
-0.568553
-0.314639
-0.0831792
0.127446
0.318729
0.492055
0.648752
0.790132
0.917504
1.03214
1.13526
1.22797
1.31133
1.38634
1.45396
1.51499
1.57016
1.62005
1.66516
1.70596
1.74288
1.77631
1.80657
1.83394
1.85864
1.88092
1.90099
1.91901
1.93512
1.94944
1.96212
1.97333
1.98323
1.99197
1.99966
2.00638
2.01225
2.01737
2.02188
2.02589
2.02954
2.03289
2.03605
2.03909
2.04207
2.04506
2.0481
2.05123
2.05447
2.05781
2.06123
2.06465
2.06797
2.07108
2.07384
2.07613
2.07777
2.07859
2.07835
2.07681
2.07368
2.06866
2.06139
2.05146
2.0384
2.02165
2.00061
1.97463
1.94298
1.90483
1.85929
1.8053
1.7418
1.66737
1.58096
1.48053
1.36575
1.23317
1.08561
0.915037
0.734918
0.521777
0.32146
0.0673653
-10.8223
-10.9537
-11.1726
-11.2582
-11.1656
-10.9199
-10.5996
-10.3068
-10.1446
-10.1979
-10.5236
-11.1471
-12.066
-13.2468
-14.6268
-16.1122
-17.5863
-18.907
-19.9756
-20.6169
-20.89
-20.7522
-20.2101
-19.3218
-18.1367
-16.7241
-15.1538
-13.4879
-11.7821
-10.0887
-8.4588
-6.93911
-5.56636
-4.36292
-3.33568
-2.47849
-1.77681
-1.2122
-0.76566
-0.419569
-0.158575
0.0301584
0.157156
0.230977
0.258503
0.245169
0.195181
0.111665
-0.00328326
-0.148567
-0.324021
-0.530354
-0.769185
-1.04312
-1.35562
-1.71058
-2.1114
-2.56004
-3.0565
-3.59939
-4.18773
-4.82334
-5.51256
-6.26651
-7.09956
-8.0265
-9.05886
-10.2012
-11.4482
-12.7835
-14.1809
-15.6072
-17.0265
-18.4041
-19.7086
-20.9132
-21.9961
-22.9397
-23.7298
-24.356
-24.8111
-25.0912
-25.1966
-25.1298
-24.8969
-24.5064
-23.9695
-23.299
-22.5098
-21.6179
-20.64
-19.5932
-18.4943
-17.3597
-16.2048
-15.0444
-13.8922
-12.7613
-11.6634
-10.6088
-9.60608
-8.66134
-7.77817
-6.95774
-6.19918
-5.50014
-4.85725
-4.26662
-3.72414
-3.22584
-2.76802
-2.3473
-1.96063
-1.60525
-1.27867
-0.978715
-0.703464