/*--------------------------------*- C++ -*----------------------------------*\
| =========                 |                                                 |
| \\      /  F ield         | OpenFOAM: The Open Source CFD Toolbox           |
|  \\    /   O peration     | Version:  2012                                  |
|   \\  /    A nd           | Website:  www.openfoam.com                      |
|    \\/     M anipulation  |                                                 |
\*---------------------------------------------------------------------------*/
FoamFile
{
    version     2.0;
    format      ascii;
    class       volVectorField;
    location    "0.91";
    object      U;
}
// * * * * * * * * * * * * * * * * * * * * * * * * * * * * * * * * * * * * * //

dimensions      [0 1 -1 0 0 0 0];


internalField   nonuniform List<vector> 
42400
(
(5.62913 -5.02908 -3.3574e-17)
(1.40526 -2.09161 -5.07963e-17)
(-14.4113 12.2545 5.20967e-17)
(-27.7015 23.9285 0)
(-31.1405 28.423 0)
(-26.0678 27.3145 -1.63274e-19)
(-14.7119 22.7866 0)
(-1.20615 18.1782 5.82947e-20)
(10.8735 15.7623 0)
(20.2957 15.0741 -5.60018e-20)
(27.0101 14.7228 -1.00228e-19)
(30.6776 14.4204 1.33367e-19)
(30.8337 14.6748 6.02195e-17)
(27.5044 15.7006 -6.14261e-17)
(21.366 17.0724 1.97419e-19)
(13.6323 18.0415 0)
(5.83226 18.011 0)
(-0.561356 16.873 0)
(-4.67009 15.0426 0)
(-6.50018 13.1567 0)
(-6.69861 11.6825 0)
(-6.07395 10.7521 2.84152e-19)
(-5.23687 10.2609 2.0836e-17)
(-4.50058 9.9946 -2.77388e-18)
(-3.96373 9.74006 -1.81611e-17)
(-3.66031 9.36292 1.49616e-19)
(-3.6162 8.85025 1.20397e-19)
(-3.79778 8.27911 -1.8863e-19)
(-4.12249 7.71607 0)
(-4.50879 7.19379 0)
(-4.89954 6.72829 -3.27246e-18)
(-5.26681 6.32707 3.30724e-18)
(-5.59898 5.98997 -4.12173e-20)
(-5.89197 5.70831 1.27675e-18)
(-6.14628 5.46724 -1.2663e-18)
(-6.3676 5.24974 0)
(-6.56511 5.04163 0)
(-6.74709 4.83189 0)
(-6.92036 4.61339 0)
(-7.08821 4.38333 4.88381e-19)
(-7.24997 4.14197 -4.90093e-19)
(-7.40162 3.89178 4.37387e-19)
(-7.53721 3.63648 -4.20811e-20)
(-7.65061 3.38032 -7.70124e-19)
(-7.73738 3.12751 3.63363e-19)
(-7.79594 2.8821 -2.82014e-19)
(-7.82773 2.64773 5.27622e-19)
(-7.83638 2.42738 -2.39215e-19)
(-7.82652 2.22301 -2.89717e-21)
(-7.80259 2.0353 1.07434e-19)
(-7.76831 1.86367 -1.71037e-19)
(-7.72655 1.70657 4.57798e-20)
(-7.67938 1.562 1.43183e-20)
(-7.62801 1.42787 1.20338e-20)
(-7.57267 1.30225 0)
(-7.51246 1.18333 0)
(-7.4454 1.06943 0)
(-7.36849 0.958981 -2.30936e-20)
(-7.27801 0.850492 -2.51894e-20)
(-7.16964 0.742625 0)
(-7.0387 0.634202 -4.41396e-19)
(-6.88028 0.524223 4.63883e-19)
(-6.68942 0.411884 4.91928e-19)
(-6.46135 0.296589 -4.82721e-19)
(-6.1917 0.17796 0)
(-5.87672 0.0558636 0)
(-5.51364 -0.0695766 5.54029e-19)
(-5.1008 -0.197967 -5.41529e-19)
(-4.63797 -0.32864 -6.87665e-20)
(-4.12647 -0.460664 0)
(-3.56929 -0.592864 0)
(-2.97106 -0.72385 -7.09435e-20)
(-2.33795 -0.852057 -7.17753e-20)
(-1.67727 -0.97578 0)
(-0.997099 -1.09328 -7.36429e-20)
(-0.305681 -1.20297 -6.42645e-19)
(0.389392 -1.30365 6.23184e-19)
(1.08472 -1.39276 1.53182e-19)
(1.80018 -1.45019 6.68672e-19)
(2.52621 -1.49576 6.71973e-19)
(4.59741 -5.70323 0)
(11.8882 -17.2933 1.08076e-16)
(21.5119 -26.3291 -1.10666e-16)
(30.314 -39.2469 0)
(42.5835 -52.4902 0)
(54.5815 -65.9037 1.00576e-16)
(62.8789 -76.9831 -1.02693e-16)
(63.659 -82.3994 -5.78677e-20)
(55.3303 -80.3516 0)
(40.5476 -71.9302 5.56393e-20)
(23.0533 -60.1133 9.96062e-20)
(4.66498 -46.9733 -2.97083e-17)
(-14.5308 -32.6772 1.36817e-17)
(-34.5388 -16.7567 1.7658e-17)
(-54.005 0.0449728 -4.1045e-18)
(-69.2779 14.7521 4.51595e-18)
(-75.3686 22.8111 0)
(-69.5885 21.1627 4.19403e-19)
(-54.7263 11.558 0)
(-37.5075 -0.173672 0)
(-23.7235 -8.74379 0)
(-15.4229 -12.4729 1.03837e-17)
(-11.7873 -12.397 -2.18651e-18)
(-11.0791 -10.208 -9.09787e-18)
(-11.7654 -7.25772 0)
(-12.8043 -4.40715 -2.58555e-19)
(-13.6396 -2.10548 -1.21536e-19)
(-14.0858 -0.461405 1.90296e-19)
(-14.1743 0.629624 2.07092e-18)
(-14.0174 1.32238 -2.0943e-18)
(-13.7147 1.73791 -5.56773e-20)
(-13.3371 1.96105 -4.2967e-20)
(-12.9333 2.05898 6.02308e-19)
(-12.5372 2.08683 -5.31924e-19)
(-12.168 2.07988 -2.17823e-19)
(-11.8337 2.05708 1.80939e-19)
(-11.5344 2.02655 0)
(-11.2651 1.99001 1.15959e-20)
(-11.0186 1.94644 0)
(-10.7876 1.89427 1.63085e-20)
(-10.5656 1.83262 -4.25671e-20)
(-10.3483 1.76173 5.66567e-20)
(-10.1332 1.6829 1.15162e-20)
(-9.92002 1.59818 -1.05331e-20)
(-9.70994 1.51001 1.87432e-20)
(-9.50522 1.42088 -7.95828e-21)
(-9.30846 1.33302 6.39191e-21)
(-9.12192 1.24822 -8.1242e-20)
(-8.94698 1.16763 7.91453e-20)
(-8.78387 1.09173 0)
(-8.6317 1.02037 -1.10756e-20)
(-8.48861 0.952952 -5.18223e-21)
(-8.35201 0.888574 -1.42259e-19)
(-8.21871 0.826195 1.37574e-19)
(-8.08495 0.764722 2.80201e-20)
(-7.94655 0.703052 -3.66854e-19)
(-7.79894 0.640083 4.21987e-19)
(-7.63727 0.574744 2.31002e-20)
(-7.45655 0.506012 2.51943e-20)
(-7.25177 0.432949 -4.86681e-19)
(-7.01805 0.354732 4.78972e-19)
(-6.75084 0.270675 -2.98759e-20)
(-6.44604 0.180258 -3.378e-20)
(-6.10028 0.083149 0)
(-5.71109 -0.0207778 4.66561e-19)
(-5.27712 -0.131427 1.46147e-20)
(-4.79841 -0.248476 -5.92509e-19)
(-4.27648 -0.371383 0)
(-3.71455 -0.499405 1.346e-19)
(-3.11751 -0.631637 -6.55571e-20)
(-2.49191 -0.767069 -5.50342e-19)
(-1.8457 -0.904703 6.06829e-19)
(-1.1878 -1.0437 6.30794e-19)
(-0.527439 -1.18347 -6.08926e-19)
(0.126689 -1.32375 1.39314e-19)
(0.767385 -1.46504 -5.77492e-19)
(1.39038 -1.60849 4.26989e-19)
(1.99855 -1.75275 -1.53148e-19)
(2.60615 -1.8927 7.33465e-19)
(3.21485 -2.07206 -5.91728e-19)
(2.50605 -0.541639 1.28214e-17)
(8.31472 5.28553 1.48161e-19)
(-0.739814 3.22736 1.90824e-19)
(-8.18936 9.70933 1.90848e-19)
(-14.6956 13.5073 0)
(-18.5492 14.2805 -2.05819e-17)
(-21.6668 11.3153 5.22003e-17)
(-23.1128 6.72594 -3.18532e-17)
(-23.4775 1.4474 5.15104e-17)
(-23.5511 -3.49809 7.86403e-18)
(-23.6513 -7.44881 -6.14708e-17)
(-23.6154 -10.3489 -4.29833e-19)
(-23.1824 -12.2281 -3.92798e-19)
(-22.2769 -12.956 7.80936e-17)
(-20.7852 -12.4292 -7.95054e-17)
(-18.476 -10.8851 -3.12487e-19)
(-15.0892 -8.99737 -7.35995e-17)
(-10.7408 -7.62364 5.02792e-18)
(-6.13605 -7.05842 6.9579e-17)
(-2.25068 -6.9944 2.72229e-19)
(0.163342 -6.95998 -2.42506e-19)
(0.91656 -6.74925 -2.19801e-19)
(0.267416 -6.47534 0)
(-1.29681 -6.3515 6.21156e-21)
(-3.25956 -6.46616 2.15747e-17)
(-5.2217 -6.72741 -3.84467e-17)
(-6.95822 -6.95843 1.7037e-17)
(-8.42327 -7.00591 -9.84623e-18)
(-9.6687 -6.79793 9.96862e-18)
(-10.7241 -6.35997 5.77623e-18)
(-11.5601 -5.78581 -9.92552e-18)
(-12.1413 -5.17572 1.04282e-18)
(-12.477 -4.59173 3.29415e-18)
(-12.618 -4.0521 0)
(-12.6218 -3.55631 0)
(-12.5336 -3.10024 1.72352e-20)
(-12.383 -2.68212 0)
(-12.1881 -2.30187 3.85382e-21)
(-11.9607 -1.95931 -5.32182e-19)
(-11.7094 -1.65337 9.69767e-19)
(-11.4409 -1.38204 -4.48592e-19)
(-11.1618 -1.14269 0)
(-10.8777 -0.93232 0)
(-10.5943 -0.747861 -2.54834e-19)
(-10.3163 -0.586311 2.45307e-19)
(-10.0475 -0.44489 1.35901e-20)
(-9.79078 -0.321127 0)
(-9.54758 -0.212935 0)
(-9.3181 -0.118638 -2.36438e-19)
(-9.10139 -0.0369705 2.35234e-19)
(-8.89543 0.0329572 1.10826e-20)
(-8.69741 0.0917198 0)
(-8.50381 0.139644 3.02667e-19)
(-8.31061 0.17687 -2.62091e-19)
(-8.11338 0.203396 5.27936e-19)
(-7.90737 0.219118 -5.38848e-19)
(-7.68771 0.223858 5.44105e-19)
(-7.44945 0.217396 -1.1471e-18)
(-7.18779 0.199503 1.15434e-18)
(-6.89823 0.16998 8.57452e-21)
(-6.5767 0.128692 -5.73102e-19)
(-6.2198 0.0756034 -5.75117e-19)
(-5.82496 0.0108127 5.98598e-19)
(-5.39068 -0.0654181 0)
(-4.91669 -0.152639 -4.8523e-19)
(-4.40416 -0.250197 -2.6845e-21)
(-3.85585 -0.357242 6.66213e-19)
(-3.27625 -0.472742 0)
(-2.67155 -0.595526 -1.29956e-19)
(-2.04953 -0.724334 -4.47567e-19)
(-1.41925 -0.857983 4.38843e-19)
(-0.790583 -0.99569 0)
(-0.173117 -1.13704 0)
(0.42491 -1.28197 6.54058e-20)
(0.997916 -1.43119 -6.56846e-20)
(1.54408 -1.58637 -3.85608e-19)
(2.06669 -1.74954 6.17501e-19)
(2.57732 -1.91944 0)
(3.09613 -2.09316 -1.35689e-19)
(3.62287 -2.31153 -5.13899e-19)
(-13.5268 8.12341 -6.90868e-17)
(-33.8382 16.5649 1.01653e-16)
(-45.9426 22.2696 -5.13508e-17)
(-56.2358 21.4755 -4.83238e-17)
(-62.5031 20.5548 4.91405e-17)
(-64.7001 16.9078 0)
(-62.5856 10.387 -7.18504e-17)
(-56.3234 1.34195 7.35212e-17)
(-46.577 -9.81253 -4.68196e-17)
(-34.4857 -21.7056 4.78255e-17)
(-22.0666 -32.3931 -2.09628e-17)
(-11.3039 -40.4373 3.01007e-17)
(-2.83501 -45.7776 -8.97066e-18)
(4.145 -49.2595 -9.02289e-18)
(10.9046 -51.5026 2.40897e-17)
(18.2203 -52.8622 -1.59096e-17)
(26.0206 -53.4785 -2.3594e-17)
(33.4811 -53.3153 5.02383e-17)
(39.2738 -51.9177 -2.59272e-17)
(41.6995 -48.4356 -2.66664e-19)
(39.1557 -42.0717 5.62592e-19)
(31.1146 -32.7844 -1.38892e-17)
(19.061 -21.8196 1.40442e-17)
(6.22805 -11.3842 -1.7852e-19)
(-4.19435 -3.4834 0)
(-10.7878 1.1024 -1.35351e-19)
(-13.9772 2.82893 0)
(-14.9501 2.69205 -1.40391e-18)
(-14.7717 1.62336 -3.43032e-19)
(-14.1204 0.26707 1.5324e-18)
(-13.3548 -1.01572 1.58938e-18)
(-12.6381 -2.06969 -1.52579e-18)
(-12.0324 -2.85633 -1.50148e-19)
(-11.5537 -3.39076 -6.96072e-20)
(-11.1941 -3.70839 6.28152e-19)
(-10.93 -3.85072 -5.88707e-19)
(-10.7312 -3.85863 0)
(-10.5686 -3.76848 -2.20615e-19)
(-10.4189 -3.60964 2.06161e-19)
(-10.2671 -3.40402 -1.85665e-20)
(-10.1061 -3.16736 -2.2372e-20)
(-9.93434 -2.91131 0)
(-9.75349 -2.64486 0)
(-9.56683 -2.37514 0)
(-9.37788 -2.1079 5.1122e-21)
(-9.18964 -1.84772 -2.27938e-19)
(-9.00414 -1.59821 2.13865e-19)
(-8.82232 -1.36215 0)
(-8.64399 -1.14163 0)
(-8.46794 -0.938204 -3.15962e-19)
(-8.29214 -0.752977 2.89934e-19)
(-8.11382 -0.586714 -3.46972e-19)
(-7.92971 -0.439922 2.53586e-19)
(-7.73612 -0.312903 -5.3365e-20)
(-7.52907 -0.205809 3.13729e-19)
(-7.30447 -0.118665 -4.03726e-19)
(-7.0582 -0.0513899 7.3167e-19)
(-6.78627 -0.00380094 -6.70497e-19)
(-6.48499 0.0243926 0)
(-6.15113 0.0336045 4.86547e-20)
(-5.78211 0.024392 6.74146e-19)
(-5.37618 -0.00252137 -5.43776e-20)
(-4.93265 -0.0462228 -1.31589e-18)
(-4.45206 -0.105592 1.18722e-18)
(-3.93642 -0.179287 -5.18583e-19)
(-3.38932 -0.26575 -5.6473e-19)
(-2.81608 -0.363227 4.13954e-19)
(-2.22374 -0.469823 6.76674e-20)
(-1.62084 -0.583598 5.06057e-19)
(-1.0171 -0.702758 -4.94229e-19)
(-0.422628 -0.825944 1.20454e-19)
(0.153169 -0.952236 5.18943e-19)
(0.703161 -1.08147 -4.49631e-19)
(1.22375 -1.2147 0)
(1.71646 -1.35413 4.30094e-19)
(2.18867 -1.50301 -1.09378e-19)
(2.6539 -1.66435 -9.20027e-19)
(3.13253 -1.83762 4.02769e-19)
(3.64604 -2.02757 -4.0645e-19)
(4.19324 -2.28749 4.01866e-19)
(-6.64257 7.85583 4.25052e-17)
(-13.0147 17.0621 0)
(-11.8997 23.6547 0)
(-9.3515 29.43 3.05522e-19)
(-6.75423 35.2945 0)
(-3.09335 40.5476 0)
(1.58347 44.7519 0)
(6.77732 47.8338 3.5387e-19)
(11.5538 49.8648 0)
(14.8065 50.6537 -3.60677e-19)
(16.0271 49.5568 4.41975e-17)
(16.1106 46.0714 -7.80628e-17)
(16.5638 40.2508 3.34695e-17)
(17.9024 32.3357 0)
(19.3732 22.7659 -1.16052e-19)
(19.8706 12.4196 -3.4431e-20)
(18.6449 2.336 0)
(15.4618 -6.75819 1.59365e-17)
(10.4526 -14.3984 -3.42667e-17)
(3.97078 -20.2378 -2.02539e-18)
(-3.37552 -24.0944 1.98276e-17)
(-10.703 -26.0244 3.05893e-19)
(-17.0365 -26.3478 0)
(-21.637 -25.5644 -2.27807e-17)
(-24.2648 -24.1826 2.35921e-17)
(-25.1702 -22.5796 -2.0181e-17)
(-24.8336 -20.9597 2.06478e-17)
(-23.7109 -19.3954 1.60145e-17)
(-22.1472 -17.8964 -1.60851e-17)
(-20.3969 -16.4403 0)
(-18.6496 -14.9917 -9.44312e-18)
(-17.028 -13.5332 9.53579e-18)
(-15.6231 -12.0902 8.74903e-20)
(-14.4626 -10.7006 -4.79045e-18)
(-13.5099 -9.40576 4.89677e-18)
(-12.7149 -8.24148 5.14434e-20)
(-12.0317 -7.23091 -8.00646e-20)
(-11.429 -6.37928 -1.76387e-18)
(-10.8841 -5.66978 1.77208e-18)
(-10.3821 -5.07135 9.33138e-19)
(-9.91784 -4.54993 -2.71112e-19)
(-9.49188 -4.07942 -7.36028e-19)
(-9.10728 -3.64194 0)
(-8.76608 -3.22736 1.64385e-20)
(-8.46766 -2.83166 5.40531e-20)
(-8.20857 -2.45471 -2.29062e-19)
(-7.98327 -2.09829 4.24918e-19)
(-7.78497 -1.76476 -2.35611e-19)
(-7.60649 -1.45624 0)
(-7.4407 -1.17432 -3.0464e-20)
(-7.28078 -0.919972 4.51316e-19)
(-7.12031 -0.69367 -4.57124e-19)
(-6.95325 -0.495469 -1.93153e-20)
(-6.77399 -0.32513 4.77349e-19)
(-6.57727 -0.182207 -3.65878e-19)
(-6.35828 -0.0660989 4.86493e-19)
(-6.11261 0.0239195 5.37444e-19)
(-5.83639 0.0886926 -9.88874e-19)
(-5.52638 0.129199 8.84805e-19)
(-5.18006 0.146576 -9.20186e-19)
(-4.79587 0.142155 0)
(-4.37333 0.117493 4.49067e-20)
(-3.91325 0.0744028 7.17656e-19)
(-3.41792 0.0149671 -6.23175e-19)
(-2.89128 -0.0584547 -1.66584e-19)
(-2.33899 -0.143252 0)
(-1.76838 -0.236619 -5.84104e-19)
(-1.18821 -0.335648 4.96698e-19)
(-0.608282 -0.437486 6.45733e-20)
(-0.0385921 -0.539717 6.43708e-20)
(0.51189 -0.640523 -1.19836e-19)
(1.03676 -0.739025 3.39302e-22)
(1.53375 -0.835848 4.74745e-19)
(2.00611 -0.933299 -4.09155e-19)
(2.4632 -1.03535 4.79269e-20)
(2.9199 -1.14711 0)
(3.39513 -1.27283 4.42373e-19)
(3.90984 -1.41343 -3.36556e-19)
(4.47613 -1.58081 0)
(5.06866 -1.84032 3.26058e-19)
(10.8569 -6.40868 9.4523e-20)
(16.8691 -10.661 -5.20468e-18)
(14.2741 -6.40683 6.30151e-18)
(8.9561 -2.2006 -1.43257e-17)
(5.7493 1.54432 7.61067e-18)
(2.68858 4.44546 -2.86385e-19)
(-0.832928 6.96521 1.12721e-17)
(-5.11442 9.46332 -1.1703e-17)
(-10.4122 12.3293 2.03296e-19)
(-17.0675 15.9761 5.37053e-19)
(-25.4698 20.6514 -1.22054e-17)
(-35.5276 26.332 -1.27909e-17)
(-46.0773 32.5536 2.60832e-17)
(-55.0168 38.2302 -2.70976e-17)
(-60.4618 41.9183 5.50642e-17)
(-61.6268 42.6583 -2.75512e-17)
(-58.7483 40.4607 0)
(-52.6968 35.9545 0)
(-44.7082 29.9808 1.86218e-17)
(-36.1757 23.4597 -3.28143e-18)
(-28.3516 17.257 -1.54687e-17)
(-22.0344 11.9729 9.60701e-18)
(-17.4244 7.81086 -1.73459e-17)
(-14.2246 4.61762 7.46544e-18)
(-11.898 2.04622 4.94732e-18)
(-9.92841 -0.255088 -6.30268e-19)
(-7.979 -2.51579 -4.86256e-18)
(-5.93761 -4.7965 2.91979e-20)
(-3.8943 -7.01766 -4.0539e-20)
(-2.07212 -9.01511 9.6378e-20)
(-0.726333 -10.6197 0)
(-0.0182163 -11.7207 3.50573e-18)
(0.0182876 -12.2922 -6.91112e-18)
(-0.505998 -12.3815 3.39533e-18)
(-1.37849 -12.107 0)
(-2.37994 -11.6098 -2.72573e-18)
(-3.32835 -10.9936 2.72861e-18)
(-4.10617 -10.3119 0)
(-4.6695 -9.588 0)
(-5.03395 -8.82906 -1.44993e-18)
(-5.24588 -8.03258 1.49839e-18)
(-5.35612 -7.1994 3.68943e-20)
(-5.40913 -6.34337 0)
(-5.43695 -5.48949 2.30035e-19)
(-5.45851 -4.6659 -2.35621e-19)
(-5.48191 -3.89569 -7.98631e-21)
(-5.50819 -3.19338 4.58326e-20)
(-5.53439 -2.56515 -7.20263e-20)
(-5.5556 -2.01114 0)
(-5.56631 -1.52797 6.20305e-19)
(-5.5611 -1.1108 -1.23967e-18)
(-5.53489 -0.75446 6.81788e-19)
(-5.48312 -0.453989 7.15998e-20)
(-5.40168 -0.204814 7.3409e-19)
(-5.28688 -0.00278831 -7.63179e-20)
(-5.13538 0.15585 -1.27597e-18)
(-4.94427 0.274562 4.63916e-19)
(-4.71108 0.3566 0)
(-4.434 0.405113 0)
(-4.11197 0.423251 -7.59806e-20)
(-3.74492 0.414255 -7.05485e-20)
(-3.33399 0.381537 0)
(-2.88167 0.328739 -7.99832e-19)
(-2.39204 0.259754 7.86946e-19)
(-1.87081 0.178712 8.25687e-19)
(-1.3253 0.0899069 5.96954e-20)
(-0.764164 -0.00231247 -5.9414e-19)
(-0.196986 -0.0934654 5.97208e-19)
(0.366543 -0.179462 -5.8319e-19)
(0.917722 -0.256929 6.57815e-21)
(1.45014 -0.32356 -4.28642e-19)
(1.96113 -0.378682 4.19347e-19)
(2.45298 -0.423597 3.75151e-19)
(2.93355 -0.461882 -4.71545e-19)
(3.41573 -0.49932 3.26345e-19)
(3.91568 -0.543205 -3.63266e-19)
(4.45045 -0.600423 3.25816e-19)
(5.03529 -0.675683 -6.21396e-19)
(5.67611 -0.781771 7.26271e-21)
(6.30769 -1.0115 -1.18346e-20)
(3.8667 -3.67641 -3.30373e-17)
(9.49566 -9.0688 -1.70068e-19)
(13.0916 -13.7313 4.88466e-17)
(10.5435 -14.2086 -9.79108e-17)
(1.02581 -10.0545 4.92213e-17)
(-11.942 -3.76873 -4.45025e-17)
(-24.1582 2.17204 2.78375e-18)
(-32.9541 6.15648 4.29804e-17)
(-37.9519 8.00087 -3.77483e-17)
(-40.1384 8.39664 3.7415e-17)
(-40.5116 8.12322 -3.20752e-17)
(-39.523 7.66747 3.23943e-17)
(-37.3039 7.28372 -2.7396e-17)
(-34.0504 7.11946 2.78321e-17)
(-30.1305 7.2316 -8.00246e-20)
(-25.9662 7.59107 -6.52996e-20)
(-21.9592 8.12213 -3.74773e-17)
(-18.4115 8.73119 3.8104e-17)
(-15.486 9.32452 8.45437e-20)
(-13.229 9.84509 -3.44115e-19)
(-11.5986 10.2781 -2.0405e-17)
(-10.4729 10.6522 2.01502e-17)
(-9.68012 11.004 0)
(-9.04431 11.3503 1.69014e-19)
(-8.42732 11.6731 0)
(-7.75061 11.9349 0)
(-6.97017 12.079 7.44868e-20)
(-6.0975 12.0548 -3.00903e-19)
(-5.19519 11.8348 2.63517e-19)
(-4.35228 11.4227 2.23895e-18)
(-3.65436 10.8419 -2.36025e-18)
(-3.14953 10.1332 1.02294e-19)
(-2.83519 9.35042 -9.72484e-20)
(-2.66786 8.53768 0)
(-2.58131 7.71428 4.80966e-21)
(-2.49512 6.88084 0)
(-2.32956 6.02138 0)
(-2.02908 5.11596 2.16344e-20)
(-1.58873 4.16999 0)
(-1.07356 3.22854 0)
(-0.604605 2.36394 -4.91672e-19)
(-0.307114 1.64906 5.04434e-19)
(-0.256304 1.12933 0)
(-0.454313 0.809388 0)
(-0.844484 0.658478 0)
(-1.34427 0.628482 9.33875e-20)
(-1.87591 0.671877 -4.56179e-20)
(-2.38303 0.751898 -1.16875e-18)
(-2.8327 0.845224 1.21451e-18)
(-3.20997 0.938963 -1.18731e-18)
(-3.51107 1.02601 1.32215e-18)
(-3.73733 1.10232 -1.37909e-19)
(-3.89184 1.16517 -7.86108e-20)
(-3.97774 1.21232 0)
(-3.99769 1.24184 0)
(-3.95369 1.25218 7.64387e-19)
(-3.84725 1.24232 4.33208e-20)
(-3.67959 1.21187 -8.24925e-19)
(-3.45189 1.16117 7.18104e-19)
(-3.16561 1.09135 -7.26361e-19)
(-2.82275 1.00438 -1.14666e-18)
(-2.42627 0.903042 7.96504e-20)
(-1.98028 0.79094 2.04956e-18)
(-1.49032 0.672363 -1.00512e-18)
(-0.963483 0.552134 -5.98091e-20)
(-0.40836 0.435293 -9.50354e-20)
(0.16577 0.327372 -7.3328e-19)
(0.749225 0.233544 1.39595e-18)
(1.33258 0.158013 -6.63275e-19)
(1.9082 0.104255 -7.08545e-20)
(2.47129 0.0742946 -5.50652e-19)
(3.02089 0.0681917 6.07406e-19)
(3.56042 0.0836972 0)
(4.09764 0.116063 5.4344e-20)
(4.64359 0.158138 0)
(5.21079 0.200918 -3.9568e-19)
(5.81105 0.234966 1.32921e-20)
(6.45171 0.249262 3.59005e-19)
(7.14568 0.245781 -2.34413e-19)
(7.77402 0.0752142 -1.07522e-19)
(-6.51964 3.22141 -2.2069e-19)
(-5.06364 3.36391 3.32079e-19)
(4.46212 -3.06643 1.88334e-19)
(11.551 -6.28077 -3.17635e-18)
(11.4606 -6.42491 3.25001e-18)
(7.83848 -3.87374 -6.36434e-18)
(3.10343 -0.145827 1.52827e-17)
(-1.12489 3.69408 -7.97827e-18)
(-4.17654 7.02523 1.1328e-17)
(-6.05549 9.63713 -1.08123e-17)
(-7.0297 11.5627 0)
(-7.37348 12.8998 6.01933e-19)
(-7.29544 13.7307 -2.40656e-19)
(-6.95639 14.1057 0)
(-6.5129 14.0769 0)
(-6.11371 13.7088 0)
(-5.91168 13.0537 0)
(-5.93264 12.1421 1.50239e-19)
(-6.06783 11.0017 0)
(-6.18706 9.65207 8.67077e-18)
(-6.14861 8.13556 -8.15702e-18)
(-5.84619 6.54161 -1.30023e-17)
(-5.26099 4.98804 1.34542e-17)
(-4.46371 3.60048 1.00939e-17)
(-3.57544 2.48579 -1.03871e-17)
(-2.71599 1.69266 7.71944e-18)
(-1.96894 1.20268 -7.89452e-18)
(-1.40658 0.96879 5.66821e-18)
(-1.07462 0.936213 -9.00418e-19)
(-0.988883 1.04661 -4.88058e-18)
(-1.13186 1.24556 0)
(-1.44972 1.49382 -1.2734e-19)
(-1.8655 1.76203 -1.25993e-19)
(-2.29866 2.02523 0)
(-2.68092 2.26254 -4.86376e-21)
(-2.96498 2.45678 0)
(-3.12983 2.59449 0)
(-3.18294 2.66731 -2.10179e-18)
(-3.15643 2.67373 4.02459e-18)
(-3.09566 2.61966 -2.04333e-18)
(-3.04341 2.51802 -1.87017e-18)
(-3.02674 2.38768 1.96678e-18)
(-3.05336 2.25089 8.36682e-20)
(-3.11653 2.12877 0)
(-3.20295 2.03668 -2.00109e-18)
(-3.29869 1.98161 1.75217e-18)
(-3.39253 1.96236 0)
(-3.47702 1.97213 0)
(-3.54799 2.00153 1.5517e-18)
(-3.60304 2.04109 -1.79506e-18)
(-3.64045 2.08226 -1.75308e-18)
(-3.65809 2.11778 1.62266e-18)
(-3.65272 2.14197 1.47351e-18)
(-3.62005 2.15029 -2.69302e-18)
(-3.55495 2.13921 1.29751e-18)
(-3.45182 2.10616 2.95463e-19)
(-3.30508 2.04952 0)
(-3.10951 1.9688 -1.38176e-19)
(-2.86061 1.86476 7.5384e-19)
(-2.55502 1.73948 -1.57247e-18)
(-2.19081 1.59646 7.88152e-19)
(-1.76797 1.44047 0)
(-1.2887 1.27744 7.18755e-20)
(-0.757674 1.11423 0)
(-0.182156 0.958327 5.97677e-20)
(0.428103 0.816968 6.15427e-20)
(1.06314 0.696119 1.12752e-19)
(1.71192 0.601425 7.71106e-19)
(2.36403 0.537671 -6.55772e-19)
(3.01093 0.507665 9.15046e-20)
(3.64706 0.512181 6.37863e-19)
(4.2706 0.549906 -7.75118e-19)
(4.88365 0.61742 5.754e-19)
(5.4917 0.709241 -5.59383e-19)
(6.10252 0.817998 5.96192e-19)
(6.72444 0.934557 -4.36148e-19)
(7.36523 1.0502 -4.76823e-19)
(8.02399 1.1458 4.62063e-19)
(8.72751 1.25038 -9.72418e-20)
(9.315 1.16466 9.32193e-20)
(1.51269 0.207618 3.21348e-17)
(6.66788 -1.98872 4.84411e-17)
(10.3859 -4.77332 -9.87327e-17)
(11.3591 -8.34254 1.00399e-16)
(11.2679 -12.0571 -5.11781e-17)
(10.171 -14.6526 -1.77639e-19)
(8.4508 -15.7489 5.03725e-17)
(6.62164 -15.4222 -1.01139e-16)
(5.04088 -13.9921 1.59232e-18)
(3.86956 -11.7441 4.96841e-17)
(3.10978 -8.89744 -3.79877e-19)
(2.67166 -5.6052 -4.41878e-17)
(2.40531 -1.96536 4.50155e-17)
(2.13192 1.94596 -3.94106e-17)
(1.6649 6.05912 4.01575e-17)
(0.875493 10.2748 3.3831e-17)
(-0.249352 14.4477 -3.44643e-17)
(-1.57985 18.3554 -1.47241e-19)
(-2.86106 21.6863 0)
(-3.73224 24.08 -2.04567e-17)
(-3.83439 25.2908 2.06801e-17)
(-3.02645 25.3094 1.83049e-19)
(-1.49639 24.336 1.03038e-17)
(0.322819 22.6754 -1.05708e-17)
(1.94358 20.6671 4.18856e-20)
(2.9961 18.6016 0)
(3.32699 16.6615 9.46154e-22)
(2.99737 14.9151 6.83355e-20)
(2.20316 13.3442 2.34024e-18)
(1.18218 11.904 -2.41411e-18)
(0.142218 10.5682 -4.49616e-18)
(-0.778482 9.32779 4.59445e-18)
(-1.51007 8.18506 -3.76054e-20)
(-2.03111 7.149 5.36247e-18)
(-2.35009 6.22669 -1.03404e-17)
(-2.49242 5.41877 5.14092e-18)
(-2.49249 4.72001 4.561e-18)
(-2.38976 4.12211 -4.75155e-18)
(-2.22575 3.61694 -5.07834e-20)
(-2.04086 3.19893 1.44174e-19)
(-1.86996 2.86563 -9.16701e-20)
(-1.73905 2.61651 3.5453e-18)
(-1.6637 2.45069 -2.964e-19)
(-1.64944 2.36502 -3.33983e-18)
(-1.69368 2.35292 3.12103e-18)
(-1.78819 2.40417 -2.96384e-18)
(-1.92127 2.50563 0)
(-2.07968 2.64215 -2.67647e-18)
(-2.25004 2.79751 2.61591e-18)
(-2.41968 2.95561 -2.09094e-18)
(-2.57698 3.10145 2.41138e-19)
(-2.71172 3.22211 1.22489e-19)
(-2.81495 3.30741 1.20353e-19)
(-2.87889 3.35044 1.18201e-19)
(-2.89647 3.34768 1.65222e-18)
(-2.86102 3.29871 -6.63564e-20)
(-2.76583 3.20572 0)
(-2.60421 3.07285 1.29992e-18)
(-2.36997 2.90569 -1.02053e-18)
(-2.05822 2.71093 0)
(-1.66641 2.49619 9.59744e-19)
(-1.19513 2.27 -7.25566e-19)
(-0.648491 2.04174 0)
(-0.0341128 1.82187 8.27429e-20)
(0.6371 1.62048 0)
(1.35075 1.44308 9.40834e-19)
(2.08967 1.29539 -1.95371e-18)
(2.83915 1.18537 9.01805e-19)
(3.58536 1.1166 -9.71303e-20)
(4.31725 1.08963 -9.14208e-20)
(5.0281 1.10293 7.36875e-19)
(5.71583 1.15308 -6.34803e-19)
(6.38268 1.2353 9.45993e-20)
(7.03394 1.34389 9.24598e-20)
(7.67624 1.4725 -1.6411e-19)
(8.31545 1.61348 -7.09516e-20)
(8.95614 1.76159 -7.06637e-19)
(9.59201 1.89431 -6.44563e-21)
(10.2491 2.05269 6.71821e-19)
(10.7756 2.0512 1.6405e-19)
(1.86849 -0.115088 0)
(-15.7275 8.80564 -2.52555e-19)
(-47.2227 23.2862 3.31645e-19)
(-68.9006 32.7419 -1.40483e-17)
(-71.5718 32.6342 2.62957e-17)
(-62.0888 26.5747 -2.18361e-17)
(-48.2732 18.409 1.01896e-17)
(-35.0831 10.7388 0)
(-24.3753 4.58769 4.31477e-19)
(-16.2724 0.137701 -2.41564e-18)
(-10.3879 -2.75035 2.84867e-18)
(-6.35035 -4.28202 -7.77209e-19)
(-3.91047 -4.6489 3.39369e-18)
(-2.91752 -4.00414 1.53717e-18)
(-3.29666 -2.46384 8.24963e-19)
(-5.01883 -0.122271 -3.85954e-18)
(-8.04585 2.89985 -3.34215e-19)
(-12.2321 6.40188 5.07119e-18)
(-17.2115 10.0789 -4.89838e-18)
(-22.3529 13.519 1.38072e-19)
(-26.8627 16.2607 -1.9567e-19)
(-30.0393 17.9361 -5.19936e-19)
(-31.546 18.4109 2.64191e-18)
(-31.5025 17.822 -5.94653e-19)
(-30.3352 16.4989 -2.11755e-18)
(-28.5336 14.817 -1.9327e-19)
(-26.4747 13.0721 2.04594e-18)
(-24.3649 11.444 -3.88465e-18)
(-22.2744 10.0172 4.12873e-18)
(-20.2069 8.81551 -1.99294e-18)
(-18.1546 7.83441 0)
(-16.1219 7.06055 5.23285e-18)
(-14.1329 6.48298 -1.04293e-17)
(-12.2283 6.09147 5.26679e-18)
(-10.4523 5.87181 -5.41433e-18)
(-8.83636 5.79487 5.83708e-18)
(-7.39776 5.82566 1.6293e-19)
(-6.14176 5.92615 0)
(-5.06458 6.05966 -6.80849e-21)
(-4.15736 6.1933 4.66636e-18)
(-3.40211 6.29849 -4.97251e-18)
(-2.78135 6.3581 1.2911e-19)
(-2.28062 6.36501 -1.21055e-19)
(-1.89025 6.32048 0)
(-1.60243 6.23097 0)
(-1.40996 6.10735 -3.29289e-18)
(-1.30617 5.963 3.68271e-18)
(-1.28355 5.81138 1.78581e-19)
(-1.33258 5.66426 2.85592e-18)
(-1.44093 5.53014 -5.66667e-18)
(-1.59293 5.41318 2.4864e-18)
(-1.76951 5.31268 0)
(-1.94863 5.2233 -2.24523e-18)
(-2.10643 5.13613 2.0884e-18)
(-2.21906 5.04043 0)
(-2.26465 4.92571 -1.7073e-18)
(-2.22513 4.78376 1.59044e-18)
(-2.0873 4.60994 -1.31065e-18)
(-1.84321 4.4037 1.12846e-18)
(-1.49005 4.16835 0)
(-1.02977 3.91032 -2.48125e-19)
(-0.468776 3.63829 -1.03544e-19)
(0.182422 3.36243 7.38011e-19)
(0.909451 3.09281 -1.45425e-19)
(1.69324 2.83646 -6.48402e-19)
(2.51422 2.6054 0)
(3.35103 2.41042 -6.21334e-20)
(4.18233 2.25456 0)
(4.99112 2.13971 0)
(5.76603 2.06586 8.85379e-19)
(6.50218 2.03054 -8.63031e-19)
(7.20118 2.02984 -7.23976e-19)
(7.86945 2.05948 -1.0233e-19)
(8.51533 2.11536 7.12561e-19)
(9.14583 2.19359 8.94186e-19)
(9.76414 2.28935 -7.80107e-19)
(10.3677 2.39861 8.70143e-20)
(10.9475 2.50498 7.72197e-19)
(11.5037 2.63075 -1.69956e-18)
(11.9546 2.65851 5.64047e-19)
(-7.95261 0.404904 -1.34619e-16)
(-22.9978 2.84399 1.00736e-16)
(-37.7659 7.31798 9.86101e-17)
(-51.2607 11.8653 -1.0077e-16)
(-59.9825 16.816 -3.29932e-19)
(-62.0759 18.8753 -3.24102e-19)
(-57.9931 17.7241 0)
(-49.2676 13.8918 -8.11755e-17)
(-37.7225 8.25156 8.32333e-17)
(-25.1514 1.78868 0)
(-13.0899 -4.71026 6.525e-17)
(-2.57648 -10.7519 -1.26651e-16)
(5.89761 -16.0852 5.85321e-18)
(12.2167 -20.535 1.05487e-16)
(16.4045 -23.9601 -5.08529e-17)
(18.3886 -26.2104 -3.68179e-19)
(17.9833 -27.1002 -4.85375e-20)
(15.0172 -26.4922 0)
(9.61567 -24.3912 -2.64252e-17)
(2.44037 -21.0531 2.6649e-17)
(-5.34001 -17.0004 -1.86251e-20)
(-12.3965 -12.8868 -1.64003e-17)
(-17.7033 -9.28372 1.6863e-17)
(-20.8325 -6.50814 -1.24596e-17)
(-21.9366 -4.59806 1.26882e-17)
(-21.5006 -3.40867 1.93599e-19)
(-20.0626 -2.72608 -8.76859e-18)
(-18.0478 -2.35346 1.16211e-18)
(-15.7315 -2.14389 1.416e-17)
(-13.2766 -1.99558 -9.23019e-19)
(-10.7778 -1.84299 -5.8159e-18)
(-8.28596 -1.64383 -4.54766e-18)
(-5.86579 -1.33545 4.63687e-18)
(-3.59326 -0.850726 0)
(-1.55443 -0.159804 -1.96234e-19)
(0.178629 0.71687 -1.86571e-19)
(1.56747 1.73974 0)
(2.60491 2.85805 -5.00199e-18)
(3.3039 4.0137 5.17907e-18)
(3.68987 5.15377 1.46888e-19)
(3.79873 6.22722 0)
(3.67662 7.19684 -1.28361e-19)
(3.37301 8.04943 -3.25018e-18)
(2.93773 8.77283 3.28514e-18)
(2.41346 9.34925 0)
(1.83957 9.77071 2.55517e-18)
(1.25252 10.0406 -3.02979e-18)
(0.681954 10.167 0)
(0.150444 10.1633 0)
(-0.326236 10.0471 1.64999e-19)
(-0.738254 9.84021 1.56161e-19)
(-1.08036 9.56606 0)
(-1.35001 9.24798 -2.0471e-18)
(-1.54514 8.90638 2.16663e-18)
(-1.66196 8.55658 1.9128e-18)
(-1.69376 8.20765 -2.45546e-19)
(-1.63108 7.86253 -3.36739e-18)
(-1.46345 7.51957 3.07537e-18)
(-1.18193 7.17478 4.38962e-20)
(-0.78174 6.82404 -1.1418e-18)
(-0.264011 6.46485 1.3159e-19)
(0.363419 6.09716 0)
(1.08616 5.72315 0)
(1.88379 5.34698 -7.98212e-19)
(2.73344 4.97779 8.94954e-19)
(3.60903 4.6276 0)
(4.4842 4.30274 -9.76923e-20)
(5.33563 4.00811 0)
(6.14636 3.74804 -5.79669e-19)
(6.90805 3.52482 5.65647e-19)
(7.62194 3.33876 -1.60383e-19)
(8.29729 3.18932 -1.18173e-18)
(8.94674 3.07598 1.03452e-18)
(9.58033 2.99828 -1.45023e-19)
(10.2001 2.95474 0)
(10.7983 2.94179 0)
(11.3567 2.95117 0)
(11.8586 2.97185 1.08751e-18)
(12.2714 2.99478 1.18882e-19)
(12.6021 2.97657 -1.80214e-18)
(-3.54826 1.80834 1.82423e-17)
(11.4394 1.62244 2.3696e-17)
(35.9073 -5.4352 -2.42699e-17)
(51.3594 -4.06455 1.71668e-17)
(53.0157 0.560361 -1.78453e-17)
(48.9894 7.98511 -2.5565e-19)
(43.3548 15.724 -2.37125e-19)
(38.126 22.5933 0)
(33.8093 28.0307 -3.2612e-19)
(30.1601 31.8353 0)
(26.8154 34.0866 -1.74063e-19)
(23.5417 34.8674 1.12081e-17)
(20.2499 34.2149 -1.1601e-17)
(16.8449 32.3471 -1.24912e-17)
(13.245 29.5129 1.30258e-17)
(9.54008 26.0113 -1.19528e-17)
(5.92244 22.1322 1.20074e-17)
(2.55173 18.168 0)
(-0.480961 14.4044 0)
(-3.11688 11.0836 0)
(-5.2909 8.35969 6.34105e-18)
(-6.93377 6.27444 -1.10199e-17)
(-7.99748 4.76855 1.24409e-18)
(-8.47459 3.72103 6.72515e-18)
(-8.39861 2.99214 -2.63248e-18)
(-7.82614 2.45497 0)
(-6.82249 2.01112 2.16826e-19)
(-5.44156 1.59454 0)
(-3.70863 1.17553 -3.4766e-19)
(-1.62881 0.76615 2.43599e-19)
(0.774343 0.433833 -1.67958e-19)
(3.42073 0.238338 0)
(6.11032 0.253888 1.03177e-18)
(8.54031 0.491614 -2.01832e-18)
(10.4296 0.937375 9.14523e-19)
(11.589 1.57597 -3.52578e-19)
(11.9542 2.38314 3.98116e-19)
(11.5853 3.3229 -4.34195e-20)
(10.6319 4.34138 0)
(9.28687 5.37469 0)
(7.73626 6.38116 0)
(6.14337 7.3207 -1.03915e-18)
(4.61578 8.16261 3.41556e-18)
(3.2148 8.89409 -2.2888e-18)
(1.97068 9.5221 0)
(0.890949 10.0541 2.68608e-18)
(-0.0287202 10.4936 -2.5949e-18)
(-0.796606 10.8436 -2.62009e-18)
(-1.42139 11.1056 1.94328e-19)
(-1.91072 11.2804 3.6663e-20)
(-2.27099 11.3691 5.19425e-20)
(-2.50801 11.3747 2.45753e-18)
(-2.62782 11.3023 0)
(-2.63708 11.1598 0)
(-2.54278 10.957 1.93953e-18)
(-2.3515 10.7051 -2.07336e-18)
(-2.06852 10.414 0)
(-1.69732 10.0919 0)
(-1.23992 9.74387 -1.13582e-19)
(-0.697965 9.37219 -1.73696e-19)
(-0.0743059 8.97725 0)
(0.625538 8.55876 0)
(1.39231 8.11683 1.74925e-19)
(2.21165 7.65216 1.63526e-19)
(3.06373 7.17161 -1.12997e-18)
(3.92994 6.68557 1.95084e-18)
(4.78976 6.20335 6.15762e-20)
(5.62369 5.73357 -1.72567e-18)
(6.41933 5.28593 1.75153e-18)
(7.17576 4.8702 -1.55102e-18)
(7.90287 4.49492 2.81019e-19)
(8.61565 4.16743 7.12362e-19)
(9.3244 3.89316 -1.34709e-18)
(10.0258 3.67418 -2.56696e-20)
(10.6992 3.50728 2.52097e-18)
(11.3107 3.38319 -1.38837e-18)
(11.8214 3.28518 0)
(12.2034 3.19642 -2.87184e-19)
(12.4245 3.09109 0)
(12.5433 2.96872 1.07394e-18)
(-1.20617 0.422816 0)
(-1.13689 -0.514053 1.34722e-19)
(2.43208 -4.62847 -1.32646e-19)
(6.32634 -11.1791 -5.27006e-17)
(8.75083 -18.1732 1.07553e-16)
(9.33734 -24.7642 -5.45449e-17)
(8.24173 -30.3099 2.3365e-19)
(5.54718 -34.3228 0)
(1.1926 -36.4725 0)
(-4.77262 -36.6048 0)
(-11.8913 -34.7855 1.70284e-19)
(-19.1715 -31.4193 2.03013e-20)
(-25.3652 -27.1251 0)
(-29.4319 -22.4347 1.29671e-19)
(-31.0051 -17.7525 -4.07062e-20)
(-30.3668 -13.1855 4.59183e-17)
(-28.0856 -8.67512 -4.62214e-17)
(-24.7517 -4.12965 -2.00395e-19)
(-20.8554 0.516164 0)
(-16.7597 5.27979 1.65624e-19)
(-12.7025 10.1335 -1.99393e-19)
(-8.85078 15.0154 2.70987e-17)
(-5.31323 19.8434 -3.35582e-18)
(-2.17903 24.5093 -2.4226e-17)