/*--------------------------------*- C++ -*----------------------------------*\
| =========                 |                                                 |
| \\      /  F ield         | OpenFOAM: The Open Source CFD Toolbox           |
|  \\    /   O peration     | Version:  2012                                  |
|   \\  /    A nd           | Website:  www.openfoam.com                      |
|    \\/     M anipulation  |                                                 |
\*---------------------------------------------------------------------------*/
FoamFile
{
    version     2.0;
    format      ascii;
    class       surfaceScalarField;
    location    "0.75";
    object      phi;
}
// * * * * * * * * * * * * * * * * * * * * * * * * * * * * * * * * * * * * * //

dimensions      [0 3 -1 0 0 0 0];
oriented        oriented;


internalField   nonuniform List<scalar> 
84340
(
-0.000888122
0.000509071
0.000379052
-0.00235992
0.00109003
0.000381766
-0.00369658
0.00144116
-0.000104496
-0.00464682
0.00165058
-0.000700343
-0.00509846
0.00162828
-0.00117665
-0.00503111
0.00135995
-0.00142729
-0.00455774
0.000945568
-0.00141894
-0.00387258
0.000528571
-0.00121373
-0.00317051
0.000194661
-0.000896732
-0.00258791
-3.66802e-05
-0.000545925
-0.00218458
-0.000185024
-0.000218308
-0.00195082
-0.000278123
4.43678e-05
-0.00184216
-0.000333473
0.000224812
-0.00182028
-0.000355153
0.000333269
-0.00186785
-0.000347324
0.000394894
-0.00196482
-0.000331803
0.000428782
-0.00208992
-0.000337985
0.00046308
-0.00222142
-0.000392646
0.000524143
-0.00234178
-0.000520368
0.000640727
-0.00243927
-0.000733961
0.000831456
-0.00249144
-0.000979728
0.0010319
-0.0024571
-0.00111547
0.00108113
-0.00232131
-0.00105814
0.000922358
-0.00212718
-0.000895534
0.0007014
-0.00192696
-0.000749721
0.000549503
-0.00174037
-0.000664401
0.000477813
-0.00156681
-0.00063099
0.000457429
-0.00140268
-0.000629562
0.000465428
-0.00124687
-0.000644535
0.000488727
-0.00110028
-0.000659125
0.000512537
-0.000966058
-0.000658252
0.000524027
-0.000847274
-0.000631321
0.000512537
-0.000745749
-0.000574116
0.000472591
-0.000661719
-0.000490181
0.000406151
-0.000594364
-0.000388743
0.000321388
-0.00054307
-0.000280689
0.000229395
-0.00050801
-0.000175366
0.000140306
-0.000489703
-7.96333e-05
6.13257e-05
-0.000488994
2.35176e-06
-3.06135e-06
-0.000505827
6.7784e-05
-5.0951e-05
-0.000538195
0.000114662
-8.22951e-05
-0.000583219
0.000143318
-9.82941e-05
-0.000636931
0.000155392
-0.00010168
-0.000693529
0.000152975
-9.63773e-05
-0.000749002
0.000139147
-8.36732e-05
-0.000801487
0.000117429
-6.49447e-05
-0.000848095
9.02795e-05
-4.36711e-05
-0.000887113
5.935e-05
-2.03323e-05
-0.000917526
2.50826e-05
5.32958e-06
-0.000939911
-1.07426e-05
3.31278e-05
-0.000955516
-4.68081e-05
6.24128e-05
-0.000965818
-8.19758e-05
9.2278e-05
-0.000972197
-0.000115428
0.000121807
-0.000975643
-0.00014689
0.000150336
-0.00097662
-0.00017654
0.000177517
-0.000975082
-0.000204782
0.000203245
-0.000970594
-0.000232017
0.000227528
-0.00096243
-0.000258531
0.000250367
-0.000949629
-0.000284477
0.000271676
-0.00093099
-0.00030992
0.000291281
-0.00090507
-0.000334889
0.00030897
-0.000870234
-0.000359428
0.000324592
-0.000824747
-0.000383635
0.000338148
-0.000766938
-0.000407689
0.000349879
-0.000695393
-0.000431874
0.000360329
-0.000609195
-0.000456586
0.000370389
-0.000508162
-0.000482315
0.000381281
-0.000393039
-0.000509611
0.000394488
-0.000265581
-0.000539037
0.000411579
-0.000128508
-0.00057109
0.000434016
1.47665e-05
-0.000606141
0.000462867
0.000160485
-0.000644379
0.00049866
0.000304987
-0.000685774
0.000541272
0.000445085
-0.000730069
0.000589971
0.00057828
-0.000776771
0.000643576
0.000702797
-0.000825187
0.000700671
0.000817506
-0.000874493
0.000759784
0.000921844
-0.000923837
0.000819499
0.00101573
-0.000972405
0.000878515
-0.0010197
0.000934382
0.00110105
0.000199894
0.000309177
0.000938971
0.00035095
0.00224569
0.000134446
0.00386775
2.85239e-05
0.00545464
4.13967e-05
0.006748
6.65822e-05
0.00765493
3.86375e-05
0.00824454
-6.10346e-05
0.00862453
-0.000185333
0.00887198
-0.00028413
0.00903465
-0.00034769
0.00913564
-0.000379121
0.00918435
-0.00038218
0.00918813
-0.000358934
0.00915769
-0.000316877
0.00910126
-0.000275379
0.00901236
-0.000249083
0.00886429
-0.000244573
0.00859702
-0.000253101
0.00812108
-0.000258027
0.00739352
-0.000252164
0.00651932
-0.000241273
0.00569622
-0.000235041
0.00503694
-0.000236252
0.00453241
-0.000245189
0.00412927
-0.000261262
0.00377889
-0.000280611
0.00344621
-0.000296885
0.00310406
-0.000302388
0.00273346
-0.000288521
0.00232406
-0.000248848
0.0018773
-0.000184561
0.00141125
-0.000108069
0.00095784
-3.67696e-05
0.000548976
2.01206e-05
0.00020315
6.51375e-05
-7.71296e-05
0.000104914
-0.000292344
0.000135581
-0.000452642
0.00016265
-0.000569012
0.000184153
-0.000652574
0.000198225
-0.000713711
0.000204455
-0.000761017
0.000202697
-0.000801507
0.000193465
-0.000839579
0.000177218
-0.000876834
0.000154684
-0.000912971
0.000126416
-0.000946571
9.295e-05
-0.000976655
5.51659e-05
-0.00100138
1.39852e-05
-0.00102209
-2.60963e-05
-0.00103736
-6.67113e-05
-0.00104689
-0.000105892
-0.00105044
-0.000143342
-0.0010478
-0.000179179
-0.00103883
-0.00021376
-0.00102335
-0.000247496
-0.00100113
-0.000280743
-0.000971846
-0.000313766
-0.000935012
-0.000346754
-0.000890067
-0.000379834
-0.000836399
-0.000413097
-0.000773428
-0.000446606
-0.000700698
-0.000480419
-0.000617979
-0.000514593
-0.000525361
-0.000549204
-0.000423328
-0.000584348
-0.0003128
-0.000620139
-0.000195134
-0.000656703
-7.20736e-05
-0.000694151
5.43411e-05
-0.000732556
0.000181884
-0.000771923
0.000308268
-0.000812158
0.000431267
-0.000853068
0.000548861
-0.000894365
0.000659376
-0.000935702
0.0007616
-0.000976718
0.000854855
-0.00101709
0.000939156
-0.00105671
-0.00109637
0.00101583
0.000741684
-0.000432508
0.00172039
-0.000627755
0.00215128
-0.000296442
0.00191423
0.000265575
0.00120127
0.000754351
0.000290472
0.000977383
-0.000546575
0.000875685
-0.00115869
0.000551082
-0.00152383
0.000179805
-0.00169671
-0.000111248
-0.00175612
-0.000288284
-0.0017649
-0.000370335
-0.00175208
-0.000395003
-0.00171268
-0.000398338
-0.00163096
-0.000398596
-0.00151081
-0.000395524
-0.0013773
-0.000382598
-0.00126229
-0.000359583
-0.0011851
-0.00033029
-0.00113823
-0.000304899
-0.00109898
-0.000291412
-0.00104747
-0.000292784
-0.000975929
-0.000306578
-0.000884864
-0.000327316
-0.000781422
-0.000348631
-0.000677286
-0.000365399
-0.000584257
-0.00037364
-0.000510809
-0.000370333
-0.000462271
-0.000350926
-0.00044632
-0.000304472
-0.000478764
-0.000216405
-0.000582024
-8.13009e-05
-0.000771184
8.10898e-05
-0.00103144
0.000223491
-0.00133308
0.000321754
-0.00163756
0.00036962
-0.00190019
0.00036754
-0.00210551
0.000340903
-0.00225062
0.000307757
-0.00234102
0.000274556
-0.0023852
0.000242403
-0.00239147
0.000210728
-0.00236747
0.000178698
-0.00231963
0.000145628
-0.00225333
0.000110916
-0.00217335
7.47033e-05
-0.00208462
3.76852e-05
-0.00198972
-1.95391e-06
-0.0018931
-4.14508e-05
-0.00179832
-8.07951e-05
-0.0017051
-0.000119315
-0.00161522
-0.000156594
-0.00152872
-0.000192393
-0.00144534
-0.000226714
-0.00136475
-0.000259777
-0.00128653
-0.000291971
-0.00121024
-0.000323793
-0.00113522
-0.000355766
-0.00106061
-0.000388373
-0.000985364
-0.000421998
-0.000908307
-0.000456891
-0.000828251
-0.000493153
-0.000744115
-0.000530742
-0.000655042
-0.000569492
-0.000560499
-0.000609137
-0.000460347
-0.000649356
-0.00035488
-0.000689815
-0.000244814
-0.000730206
-0.000131236
-0.00077028
-1.55207e-05
-0.000809867
0.000100791
-0.000848868
0.00021611
-0.000887242
0.000328921
-0.00092497
0.000437885
-0.000962032
0.000541905
-0.000998386
0.000640166
-0.00103396
0.000732134
-0.00106869
0.000817552
-0.00110251
0.000896456
-0.00113561
-0.00116923
0.000969313
-0.000518767
8.62589e-05
-0.00173261
0.000586091
-0.00336976
0.00134071
-0.00511215
0.00200796
-0.0067374
0.0023796
-0.00811037
0.00235035
-0.00922145
0.00198677
-0.0101406
0.00147024
-0.0109248
0.000963965
-0.0115716
0.000535622
-0.0120561
0.000196169
-0.0123339
-9.25371e-05
-0.0123737
-0.000355248
-0.012173
-0.000598964
-0.0117366
-0.000835047
-0.0110485
-0.00108356
-0.0101164
-0.00131475
-0.00906442
-0.00141155
-0.00807923
-0.00131548
-0.00725105
-0.00113308
-0.00656401
-0.000978447
-0.00597858
-0.000878222
-0.00546614
-0.000819009
-0.00500735
-0.000786107
-0.00459054
-0.000765443
-0.00421324
-0.000742696
-0.00388515
-0.000701733
-0.00362856
-0.000626927
-0.00346705
-0.00051243
-0.00340517
-0.000366361
-0.00341579
-0.000205777
-0.00345239
-4.47012e-05
-0.00348207
0.000110771
-0.00349975
0.00024117
-0.00351747
0.000339473
-0.00352062
0.000372771
-0.00351003
0.000356948
-0.00348417
0.000315042
-0.00344053
0.000264115
-0.00337793
0.000211956
-0.00329658
0.000161061
-0.00319766
0.000111808
-0.00308399
6.50205e-05
-0.00295943
2.10728e-05
-0.00281976
-2.87571e-05
-0.00266895
-7.61035e-05
-0.00251052
-0.000120742
-0.00234915
-0.000163331
-0.00218703
-0.000203571
-0.00202681
-0.000241013
-0.00187087
-0.00027525
-0.00172143
-0.000306042
-0.00158044
-0.000333378
-0.00144958
-0.00035758
-0.00132992
-0.000379432
-0.00122177
-0.000400127
-0.00112446
-0.000421096
-0.00103647
-0.000443754
-0.000955575
-0.000469271
-0.000879152
-0.000498422
-0.000804511
-0.000531531
-0.00072916
-0.000568504
-0.000651014
-0.000608889
-0.00056854
-0.000651965
-0.000480844
-0.000696832
-0.00038769
-0.00074251
-0.000289462
-0.000788044
-0.000187062
-0.000832606
-8.1764e-05
-0.000875579
2.49706e-05
-0.000916602
0.00013166
-0.000955558
0.000236938
-0.000992519
0.00033963
-0.00102766
0.000438772
-0.00106117
0.00053359
-0.0010932
0.000623473
-0.00112385
0.000707958
-0.00115317
0.000786743
-0.00118129
0.000859741
-0.00120861
-0.00123669
0.000927204
-0.00053578
0.000622039
-0.000829839
0.00088015
-0.000386591
0.000897461
0.000610548
0.00101082
0.001805
0.00118515
0.00283287
0.00132247
0.00343673
0.00138292
0.00354731
0.00135966
0.00324671
0.00126457
0.00266618
0.00111615
0.00193242
0.000929933
0.0011227
0.00071718
0.000279416
0.000488036
-0.000567625
0.000248077
-0.00139058
-1.20913e-05
-0.00214532
-0.000328821
-0.00281479
-0.000645273
-0.00340098
-0.000825366
-0.00389039
-0.000826074
-0.00426849
-0.000754982
-0.0045667
-0.000680235
-0.0048151
-0.000629815
-0.00503346
-0.00060065
-0.00523346
-0.000586105
-0.00542056
-0.000578345
-0.00559812
-0.00056514
-0.005761
-0.000538848
-0.00590441
-0.000483522
-0.00603116
-0.000385679
-0.00613758
-0.000259938
-0.0062035
-0.000139863
-0.00619321
-5.49894e-05
-0.00607341
-9.02606e-06
-0.00583929
7.0515e-06
-0.0055113
1.14767e-05
-0.00514407
5.54859e-06
-0.00477823
-8.89678e-06
-0.00443548
-2.77116e-05
-0.00411904
-5.23163e-05
-0.00382756
-7.95243e-05
-0.00355863
-0.000107873
-0.00330672
-0.000140105
-0.00307189
-0.000169809
-0.00285498
-0.000195836
-0.00265654
-0.000227195
-0.00247143
-0.000261213
-0.0022954
-0.000296772
-0.00212533
-0.000333408
-0.0019585
-0.000370394
-0.00179297
-0.000406541
-0.00162802
-0.000440208
-0.00146461
-0.000469447
-0.00130593
-0.000492056
-0.0011568
-0.000506718
-0.00102261
-0.000513615
-0.000907552
-0.000515188
-0.000812968
-0.00051568
-0.000737013
-0.000519709
-0.000675423
-0.000530861
-0.000622802
-0.000551043
-0.000573799
-0.000580533
-0.000523828
-0.000618475
-0.000469394
-0.000663323
-0.00040818
-0.00071318
-0.00033901
-0.000766002
-0.000261768
-0.000819752
-0.000177253
-0.000872559
-8.69696e-05
-0.000922889
7.13277e-06
-0.000969682
0.000102979
-0.00101245
0.00019865
-0.00105123
0.000292591
-0.00108646
0.000383687
-0.00111876
0.000471231
-0.00114872
0.000554805
-0.00117678
0.000634158
-0.0012032
0.000709108
-0.00122812
0.000779504
-0.00125169
0.000845246
-0.00127435
-0.00129772
0.000906272
0.00112468
-0.00050264
0.00284706
-0.000842228
0.00442464
-0.000680127
0.00577491
-0.000339441
0.00700644
-4.63768e-05
0.00819827
0.000130646
0.0093758
0.000205382
0.0105146
0.000220849
0.0115654
0.000213767
0.0124743
0.00020726
0.0131902
0.000214069
0.0136622
0.000245105
0.0138604
0.000289914
0.0137689
0.000339548
0.0133701
0.000386662
0.0126131
0.00042823
0.0114955
0.000472359
0.010139
0.000531124
0.00871933
0.00059356
0.00733632
0.000628026
0.00602769
0.0006284
0.00479231
0.000605561
0.00362842
0.000563237
0.00254393
0.000498386
0.00155962
0.000405966
0.000707644
0.000286837
1.54561e-05
0.00015334
-0.000492934
2.48681e-05
-0.000797765
-8.08479e-05
-0.00090229
-0.000155413
-0.000836367
-0.000205787
-0.000672159
-0.000219197
-0.000467734
-0.000213452
-0.000263683
-0.000196999
-7.59269e-05
-0.00017628
8.45792e-05
-0.000154957
0.000210299
-0.000134617
0.00029874
-0.000116152
0.000347429
-0.000101005
0.000358434
-9.0529e-05
0.00033677
-8.62085e-05
0.000286024
-8.93592e-05
0.000216558
-0.000100343
0.000139779
-0.000119057
6.62064e-05
-0.000153622
-7.01806e-07
-0.000194305
-5.62417e-05
-0.000241232
-9.65493e-05
-0.0002931
-0.000118834
-0.000348109
-0.000121476
-0.000403898
-0.000104222
-0.000457462
-6.87137e-05
-0.000504955
-1.86884e-05
-0.000542081
3.75172e-05
-0.000562923
8.71675e-05
-0.000563265
0.000117379
-0.000545399
0.000121249
-0.00051955
0.000101053
-0.000499513
6.57056e-05
-0.000495514
2.61394e-05
-0.000511476
-8.40167e-06
-0.000545992
-3.16644e-05
-0.000595212
-4.00455e-05
-0.000654941
-3.19934e-05
-0.000721232
-7.50648e-06
-0.000790489
3.21711e-05
-0.000859429
8.47727e-05
-0.000925161
0.000147279
-0.000985395
0.000216307
-0.00103871
0.000288546
-0.00108469
0.00036121
-0.00112389
0.000432347
-0.0011576
0.000500916
-0.00118733
0.000566629
-0.00121443
0.000629635
-0.00123978
0.000690204
-0.00126377
0.000748496
-0.00128641
0.000804483
-0.00130768
0.000857963
-0.00132783
-0.00134818
0.000908425
-0.000440548
-6.20924e-05
-0.00151323
0.000230458
-0.00303473
0.00084137
-0.00472343
0.00134925
-0.00624053
0.00147073
-0.00737773
0.00126784
-0.00810251
0.000930169
-0.00847309
0.00059143
-0.00855567
0.000296345
-0.00840306
5.46483e-05
-0.00805411
-0.000134886
-0.00753071
-0.000278288
-0.00686042
-0.000380377
-0.00607423
-0.000446645
-0.00520509
-0.000482474
-0.00428218
-0.000494687
-0.00331689
-0.000492929
-0.00230106
-0.000484698
-0.00123579
-0.000471711
-0.000153286
-0.000454482
0.000911442
-0.000436327
0.00193677
-0.000419763
0.00290619
-0.000406186
0.00380543
-0.000400859
0.00462032
-0.000408916
0.00533803
-0.000430879
0.00594716
-0.000455789
0.00644332
-0.000471292
0.00683409
-0.000471618
0.00712915
-0.000450468
0.00733162
-0.000408261
0.00746247
-0.000350046
0.00753278
-0.00028376
0.00755223
-0.000216447
0.00752823
-0.000152281
0.00746735
-9.4077e-05
0.00737687
-4.41426e-05
0.00726438
-3.66389e-06
0.00713658
2.68025e-05
0.00699834
4.77026e-05
0.00685318
5.89604e-05
0.00670326
6.05543e-05
0.00655015
5.27709e-05
0.00639515
3.5942e-05
0.00623075
1.07763e-05
0.00605825
-2.1808e-05
0.00587733
-6.03104e-05
0.00568632
-0.000102086
0.00548025
-0.000142038
0.00524963
-0.000173282
0.00498041
-0.000188237
0.00465186
-0.00017641
0.00425351
-0.000143726
0.0037893
-9.87184e-05
0.00328132
-5.52812e-05
0.00276406
-2.81368e-05
0.00227259
-2.80839e-05
0.00183512
-6.20481e-05
0.00146364
-0.000124028
0.00116305
-0.000210886
0.000929966
-0.00031291
0.000757179
-0.000422425
0.000636034
-0.000533796
0.000558018
-0.000643216
0.000515352
-0.000747823
0.000500965
-0.000845041
0.000508272
-0.000932468
0.000531043
-0.00100817
0.000563483
-0.00107115
0.000600575
-0.00112178
0.000638508
-0.00116183
0.000674995
-0.00119408
0.000709278
-0.00122161
0.000741777
-0.00124693
0.0007735
-0.00127151
0.00080546
-0.00129573
0.000838295
-0.00131925
0.000872135
-0.00134152
0.000906644
-0.00136234
-0.00138237
0.000940838
-0.000260985
0.000198893
-0.000199228
0.0001687
0.000541058
0.000101085
0.00173296
0.000157348
0.00300719
0.000196497
0.00404881
0.000226224
0.00467141
0.000307566
0.00486888
0.000393968
0.00475415
0.000411066
0.00444976
0.00035904
0.0040381
0.000276773
0.00356774
0.000192077
0.00307793
0.00010943
0.00260684
2.44501e-05
0.0021892
-6.48333e-05
0.00185184
-0.000157329
0.00161019
-0.000251277
0.0014709
-0.000345411
0.00143749
-0.000438301
0.00151008
-0.000527075
0.00168007
-0.000606316
0.00192952
-0.000669207
0.00223441
-0.000711085
0.00256463
-0.000731077
0.00288573
-0.000730018
0.00317003
-0.000715178
0.00340118
-0.00068694
0.00357667
-0.000646774
0.00370445
-0.000599406
0.00380376
-0.000549771
0.0038975
-0.000502003
0.00400623
-0.000458781
0.00414687
-0.000424397
0.00432032
-0.000389901
0.00452598
-0.00035794
0.00476234
-0.000330434
0.00502302
-0.000304819
0.00529828
-0.000278925
0.00557638
-0.000251299
0.0058467
-0.000222621
0.00609557
-0.000189908
0.00630938
-0.000153247
0.00647757
-0.000115423
0.006587
-7.34923e-05
0.00662841
-3.0632e-05
0.00659545
1.11486e-05
0.00648313
5.2015e-05
0.00628784
9.32053e-05
0.0060087
0.000137096
0.00564784
0.000187587
0.00521007
0.000249524
0.00470937
0.000324294
0.00416227
0.000403374
0.00359615
0.000467398
0.00304767
0.000493208
0.00255319
0.000466339
0.00213888
0.000386229
0.00181057
0.000266258
0.00156252
0.000124021
0.00138517
-3.35368e-05
0.00124979
-0.000177531
0.00115281
-0.000325442
0.00108541
-0.00046639
0.00104076
-0.000598569
0.0010136
-0.000720664
0.000999592
-0.000831032
0.000994787
-0.000927664
0.000995354
-0.00100873
0.000997648
-0.00107344
0.000998624
-0.00112275
0.000996364
-0.00115956
0.000990456
-0.00118818
0.000981975
-0.00121313
0.000972997
-0.00123795
0.000965859
-0.00126437
0.000962457
-0.00129233
0.000963865
-0.00132065
0.000970284
-0.00134794
0.000981187
-0.00137324
-0.00139641
0.000995226
0.000468053
-0.000269159
0.00130826
-0.00067151
0.00230803
-0.000898682
0.00331556
-0.000850187
0.00405094
-0.000538883
0.0043217
-4.45353e-05
0.00423206
0.000397211
0.00409517
0.000530856
0.00418916
0.000317078
0.00459751
-4.93145e-05
0.00523926
-0.000364975
0.00598574
-0.0005544
0.00673607
-0.000640903
0.00743122
-0.000670704
0.00803859
-0.000672203
0.00853649
-0.000655222
0.0089078
-0.000622588
0.00914023
-0.000577844
0.00922915
-0.000527217
0.0091797
-0.000477625
0.0090076
-0.00043422
0.00873758
-0.000399185
0.0083985
-0.000372011
0.00801824
-0.000350816
0.00762219
-0.000333967
0.00722829
-0.000321273
0.00685513
-0.000313781
0.00652127
-0.00031292
0.00624099
-0.000319117
0.00602167
-0.000330453
0.00586226
-0.000342596
0.00575404
-0.000350559
0.00568034
-0.000350698
0.00563177
-0.000341327
0.0055962
-0.000322369
0.00555979
-0.000294026
0.00551179
-0.000256818
0.00544395
-0.000211085
0.00535119
-0.000158544
0.00522362
-9.5044e-05
0.00505619
-2.24811e-05
0.00484771
5.52289e-05
0.00459489
0.0001374
0.00429892
0.000222476
0.00395996
0.000308331
0.00358012
0.000390988
0.00316601
0.000466125
0.00273021
0.000529006
0.00229145
0.000575855
0.00187358
0.000605454
0.00150371
0.000619395
0.00120832
0.000619686
0.00100644
0.000605255
0.000902894
0.000570941
0.000885589
0.000510512
0.000930959
0.000420969
0.00101092
0.000306266
0.00110411
0.000173073
0.00119776
3.03701e-05
0.00127874
-0.000114518
0.00135528
-0.000254072
0.00141687
-0.000387034
0.0014626
-0.000512119
0.00149277
-0.000628736
0.00150823
-0.000736129
0.00150997
-0.000832774
0.00149885
-0.000916542
0.00147565
-0.000985533
0.00144139
-0.00103918
0.0013977
-0.00107907
0.00134711
-0.00110897
0.00129296
-0.00113403
0.00123904
-0.00115922
0.00118896
-0.00118787
0.0011455
-0.00122091
0.00111033
-0.00125715
0.00108395
-0.00129428
0.00106602
-0.00133001
0.00105556
-0.00136278
-0.00139183
0.00105098
0.000127432
-0.000396592
8.67285e-05
-0.000630806
-0.00026175
-0.000550203
-0.000814179
-0.000297758
-0.0014705
0.000117435
-0.00216369
0.000648657
-0.00286104
0.00109456
-0.003584
0.00125382
-0.0043749
0.00110798
-0.00516883
0.000744622
-0.00581451
0.0002807
-0.00623033
-0.000138585
-0.00649586
-0.000375364
-0.00674497
-0.000421598
-0.0070344
-0.000382772
-0.00733083
-0.000358796
-0.00756745
-0.00038596
-0.00769528
-0.00045002
-0.00769564
-0.000526854
-0.00757015
-0.000603119
-0.0073317
-0.000672668
-0.00699958
-0.000731309
-0.00659718
-0.000774402
-0.00615132
-0.000796685
-0.00568958
-0.000795702
-0.00523476
-0.000776092
-0.00479959
-0.000748955
-0.00438746
-0.000725049
-0.00400071
-0.000705864
-0.003646
-0.000685169
-0.00332833
-0.000660262
-0.00304627
-0.00063262
-0.00279598
-0.000600986
-0.00257486
-0.000562451
-0.00238095
-0.00051628
-0.00221123
-0.000463746
-0.00206176
-0.000406288
-0.00192867
-0.000344174
-0.00180998
-0.000277228
-0.00169855
-0.000206482
-0.0015948
-0.000126227
-0.00148601
-5.35572e-05
-0.00137536
2.6747e-05
-0.00126252
0.00010964
-0.00114532
0.000191131
-0.00102183
0.000267496
-0.000890441
0.000334735
-0.000750241
0.000388807
-0.000600717
0.000426331
-0.000440408
0.000445145
-0.000265435
0.000444421
-6.99406e-05
0.000424192
0.000150529
0.000384785
0.000394683
0.000326787
0.000653446
0.000251749
0.000913091
0.000161323
0.00115661
6.27487e-05
0.00137486
-4.51791e-05
0.00156463
-0.000159403
0.00171722
-0.000267106
0.00183299
-0.000369841
0.00191309
-0.00046713
0.00196018
-0.000559208
0.00197743
-0.000645992
0.00196783
-0.000726525
0.00193399
-0.000798934
0.00187859
-0.000861144
0.00180505
-0.000911995
0.00171806
-0.000952186
0.00162352
-0.000984529
0.0015279
-0.00101335
0.00143713
-0.00104325
0.00135558
-0.00107767
0.00128562
-0.0011179
0.00122773
-0.00116302
0.00118115
-0.00121057
0.00114458
-0.00125771
0.00111663
-0.00130206
0.001096
-0.00134215
-0.00137719
0.00108136
-0.000394753
-1.83876e-06
-0.000539158
-0.0004864
-9.91995e-05
-0.000990162
0.000653322
-0.00105028
0.00146124
-0.000690488
0.00225092
-0.000141014
0.0029393
0.000406174
0.00334666
0.000846462
0.0033402
0.00111444
0.00293358
0.00115124
0.00227638
0.000937903
0.00150817
0.000629623
0.000674172
0.000458638
-0.000242636
0.00049521
-0.00125035
0.000624947
-0.0022896
0.000680454
-0.00326556
0.00058999
-0.00411213
0.000396555
-0.00476004
0.000121055
-0.00517249
-0.000190668
-0.00535799
-0.000487173
-0.00534001
-0.000749283
-0.0051543
-0.000960109
-0.00486507
-0.00108591
-0.00456657
-0.00109421
-0.00435004
-0.000992627
-0.004266
-0.000832995
-0.0043108
-0.000680241
-0.00441806
-0.00059861
-0.00451193
-0.000591296
-0.00452954
-0.000642653
-0.00445849
-0.000703666
-0.00432313
-0.000736352
-0.00415431
-0.000731269
-0.00397513
-0.000695456
-0.00379721
-0.00064167
-0.00362432
-0.000579175
-0.00345617
-0.00051233
-0.00329016
-0.000443229
-0.00312366
-0.000372991
-0.00294775
-0.000302133
-0.00276735
-0.000233962
-0.00257427
-0.000166325
-0.00236734
-9.72943e-05
-0.00213335
-4.28589e-05
-0.00187303
7.17371e-06
-0.00158927
5.09754e-05
-0.00128499
8.45331e-05
-0.000964537
0.000105875
-0.000633219
0.000113826
-0.000296778
0.000107981
3.8873e-05
8.85408e-05
0.000367358
5.62998e-05
0.000681276
1.287e-05
0.000972094
-3.90702e-05
0.00123316
-9.97387e-05
0.00146003
-0.000164126
0.00164615
-0.000231295
0.00178595
-0.000299208
0.00188537
-0.000366527
0.00194855
-0.000433021
0.00198005
-0.000498625
0.00198371
-0.000562875
0.00196231
-0.000624586
0.00191777
-0.000681989
0.00185224
-0.000733399
0.00176923
-0.000778134
0.00167436
-0.000817133
0.00157507
-0.000852895
0.00147926
-0.000888721
0.00139356
-0.000927648
0.00132183
-0.000971518
0.0012647
-0.00102054
0.00122023
-0.00107344
0.00118526
-0.00112805
0.00115675
-0.00118206
0.00113258
-0.00123354
0.00111169
-0.00128117
0.00109373
-0.00132419
-0.00136206
0.0010786
-4.6437e-05
4.45984e-05
-0.000253319
-0.000279519
-0.000521179
-0.000722302
-0.000684802
-0.000886656
-0.000632945
-0.000742345
-0.000306791
-0.000467168
0.000307117
-0.000207734
0.00116843
-1.48475e-05
0.00216736
0.000115502
0.00311539
0.000203207
0.003762
0.000291299
0.00394374
0.000447874
0.00366194
0.000740445
0.00306075
0.0010964
0.0024121
0.0012736
0.00201814
0.00107442
0.00199163
0.0006165
0.00225497
0.000133215
0.00267166
-0.000295638
0.00306998
-0.00058899
0.00336004
-0.000777233
0.0035234
-0.000912647
0.00356473
-0.00100144
0.00349581
-0.00101699
0.00333719
-0.000935585
0.00310542
-0.000760858
0.00280972
-0.000537297
0.002459
-0.000329523
0.0020553
-0.000194908
0.00161103
-0.000147023
0.00113771
-0.00016934
0.00066729
-0.000233244
0.000212213
-0.000281275
-0.000209886
-0.000309169
-0.000585145
-0.000320198
-0.00090558
-0.000321234
-0.00116762
-0.000317138
-0.00137177
-0.000308179
-0.00151757
-0.000297424
-0.0016061
-0.000284464
-0.001639
-0.000269239
-0.00162099
-0.000251969
-0.00155423
-0.000233087
-0.00143804
-0.000213482
-0.00128632
-0.000194573
-0.00110159
-0.000177561
-0.000887064
-0.000163551
-0.000648845
-0.000153686
-0.000394
-0.00014897
-0.000129915
-0.000150259
0.000135463
-0.000157397
0.000394715
-0.000170711
0.000640832
-0.000189818
0.00086771
-0.000214008
0.00107116
-0.000242522
0.00124601
-0.000274591
0.00139139
-0.000309498
0.00150677
-0.000346674
0.00159317
-0.000385617
0.00165247
-0.000425818
0.00168605
-0.000466603
0.00169455
-0.000507129
0.00167814
-0.000546463
0.00163753
-0.000583977
0.00157541
-0.000619865
0.00149741
-0.000655404
0.00141198
-0.000692703
0.00132883
-0.000733978
0.00125663
-0.0007807
0.00120096
-0.000833048
0.00116319
-0.000889882
0.00114085
-0.000949175
0.00112899
-0.00100868
0.0011221
-0.00106655
0.00111573
-0.00112168
0.00110731
-0.00117365
0.00109616
-0.00122239
0.00108286
-0.00126787
0.00106855
-0.00130988
-0.00134786
0.00105435
0.000714176
-0.000669578
0.00155664
-0.00112199
0.00205587
-0.00122153
0.00242149
-0.00125228
0.00297238
-0.00129323
0.00383025
-0.00132504
0.00494083
-0.00131831
0.00614527
-0.00121928
0.00722864
-0.000967874
0.00790911
-0.000477256
0.00790673
0.000293678
0.00709773
0.00125687
0.00569796
0.00214022
0.00426995
0.0025244
0.00336689
0.00217666
0.00303686
0.00140444
0.00292827
0.000725095
0.0027698
0.000291682
0.00240875
6.54076e-05
0.001822
-2.23915e-06
0.00105922
-1.445e-05
0.000188309
-4.17354e-05
-0.000717382
-9.57459e-05
-0.00156624
-0.000168126
-0.00224832
-0.000253514
-0.00268532
-0.000323854
-0.00285833
-0.000364285
-0.00280991
-0.000377945
-0.00263281
-0.000372002
-0.00242184
-0.000357997
-0.00224731
-0.000343868
-0.0021453
-0.000335256
-0.00209142
-0.000335154
-0.00205828
-0.000342305
-0.00202603
-0.00035245
-0.00198507
-0.0003622
-0.00193209
-0.000370118
-0.00186449
-0.000375779
-0.00178287
-0.000379038
-0.00168723
-0.000380111
-0.00157723
-0.000379236
-0.00145249
-0.000376709
-0.00131266
-0.000372918
-0.0011578
-0.000368339
-0.000988927
-0.000363448
-0.000807719
-0.000358769
-0.00061646
-0.00035481
-0.000418094
-0.000352052
-0.000216145
-0.000350919
-1.46692e-05
-0.000351735
0.000182591
-0.000354657
0.000371659
-0.000359779
0.000548886
-0.000367045
0.000711149
-0.00037627
0.000855835
-0.000387209
0.000980816
-0.000399572
0.00108439
-0.000413074
0.00116517
-0.00042745
0.00122206
-0.000442512
0.00125447
-0.00045822
0.00126266
-0.0004748
0.00124843
-0.000492892
0.00121564
-0.000513672
0.00117051
-0.000538853
0.00112109
-0.00057044
0.00107587
-0.000610184
0.00104203
-0.000658863
0.00102379
-0.000715739
0.00102161
-0.000778518
0.00103243
-0.000843869
0.00105084
-0.00090829
0.00107067
-0.000969012
0.00108661
-0.00102462
0.00109525
-0.00107519
0.00109547
-0.00112189
0.00108807
-0.00116625
0.001075
-0.00120933
0.00105853
-0.00125139
0.00104062
-0.00129198
-0.00132999
0.00102275
-0.000647341
-2.22363e-05
-0.00156083
-0.000208498
-0.00253666
-0.000245697
-0.00384024
5.13009e-05
-0.00549328
0.000359811
-0.00730312
0.000484794
-0.00907586
0.000454434
-0.0106844
0.000389224
-0.0120348
0.000382549
-0.013016
0.000503917
-0.0134986
0.000776318
-0.0133473
0.00110555
-0.0124588
0.0012517
-0.0108973
0.000962914
-0.00900095
0.000280334
-0.00723671
-0.000359804
-0.00587742
-0.000634196
-0.00491282
-0.00067292
-0.00421168
-0.000635731
-0.00363044
-0.000583471
-0.00310369
-0.000541208
-0.00262908
-0.00051634
-0.00222367
-0.000501153
-0.00190356
-0.00048824
-0.00168515
-0.000471921
-0.00156914
-0.000439868
-0.00152595
-0.000407479
-0.00153231
-0.000371585
-0.00156822
-0.000336084
-0.00161707
-0.000309155
-0.00166183
-0.000299101
-0.00168849
-0.000308594
-0.00169028
-0.000333371
-0.00166743
-0.000365156
-0.0016233
-0.00039658
-0.00156196
-0.000423537
-0.00148727
-0.000444811
-0.00140238
-0.000460662
-0.0013095
-0.000471919
-0.0012101
-0.000479513
-0.00110509
-0.000484245
-0.000994967
-0.000486834
-0.000879992
-0.000487893
-0.000760424
-0.000487907
-0.000636623
-0.000487249
-0.000509187
-0.000486205
-0.000378995
-0.000485002
-0.000247224
-0.000483823
-0.000115324
-0.000482819
1.50374e-05
-0.000482096
0.000142093
-0.000481713
0.000263982
-0.000481668
0.000378845
-0.000481908
0.000484919
-0.000482343
0.000580596
-0.000482886
0.000664534
-0.00048351
0.000735777
-0.000484318
0.000793947
-0.00048562
0.000839442
-0.000488006
0.000873634
-0.000492412
0.000898974
-0.000500141
0.000918882
-0.0005128
0.000937325
-0.000532115
0.000958072
-0.000559599
0.00098377
-0.000596139
0.0010152
-0.000641613
0.00105102
-0.000694679
0.0010881
-0.000752825
0.00112234
-0.000812761
0.00114958
-0.000871102
0.00116648
-0.000925193
0.00117126
-0.000973795
0.001164
-0.00101736
0.0011465
-0.00105768
0.00112168
-0.00109707
0.00109276
-0.00113733
0.00106253
-0.0011791
0.00103301
-0.00122187
0.00100538
-0.00126435
-0.00130483
0.000980223
5.55941e-05
-7.78304e-05
-6.437e-05
-8.8534e-05
-0.000273813
-3.62538e-05
-0.000464017
0.000241505
-0.000734672
0.000630466
-0.00114674
0.000896867
-0.00169858
0.00100627
-0.00232405
0.00101469
-0.00288303
0.000941528
-0.00315827
0.000779162
-0.00290121
0.000519253
-0.00195333
0.000157673
-0.000412892
-0.000288738
0.00131371
-0.000763684
0.00269785
-0.00110381
0.00345731
-0.00111926
0.00364876
-0.000825649
0.00340713
-0.00043129
0.0029011
-0.000129704
0.00228377
3.38655e-05
0.00164284
9.97186e-05
0.00101869
0.000107813
0.00043652
8.10158e-05
-8.51275e-05
3.34073e-05
-0.000532713
-2.43357e-05
-0.000889168
-8.34135e-05
-0.00115995
-0.000136697
-0.0013518
-0.000179734
-0.0014738
-0.000214087
-0.00153848
-0.00024447
-0.00156175
-0.000275839
-0.00155851
-0.00031183
-0.00153859
-0.000353295
-0.00150619
-0.000397558
-0.00146236
-0.000440401
-0.00140727
-0.000478629
-0.00134126
-0.000510826
-0.00126513
-0.000536791
-0.00118021
-0.000556841
-0.00108826
-0.000571463
-0.000991271
-0.000581231
-0.000891294
-0.000586812
-0.000790228
-0.000588959
-0.000689666
-0.000588469
-0.000590792
-0.000586123