/*--------------------------------*- C++ -*----------------------------------*\
| =========                 |                                                 |
| \\      /  F ield         | OpenFOAM: The Open Source CFD Toolbox           |
|  \\    /   O peration     | Version:  2012                                  |
|   \\  /    A nd           | Website:  www.openfoam.com                      |
|    \\/     M anipulation  |                                                 |
\*---------------------------------------------------------------------------*/
FoamFile
{
    version     2.0;
    format      ascii;
    class       volVectorField;
    location    "0.75";
    object      U;
}
// * * * * * * * * * * * * * * * * * * * * * * * * * * * * * * * * * * * * * //

dimensions      [0 1 -1 0 0 0 0];


internalField   nonuniform List<vector> 
42400
(
(-8.82682 4.38899 1.44234e-16)
(-34.1624 19.4893 2.11001e-16)
(-68.4643 44.6799 -2.15258e-16)
(-102.171 66.6084 0)
(-118.749 78.0794 0)
(-117.552 75.9266 -8.48702e-19)
(-103.648 64.8417 0)
(-84.7003 51.1085 7.81194e-19)
(-67.0239 39.2333 0)
(-53.8265 31.137 7.05163e-19)
(-45.6111 26.7028 6.58361e-19)
(-41.2531 24.7681 -6.05904e-19)
(-38.9489 23.887 -1.15341e-16)
(-37.2756 22.9895 1.17624e-16)
(-35.5858 21.5103 -4.3708e-19)
(-33.5271 19.1855 0)
(-30.6076 15.7168 0)
(-25.929 10.4147 0)
(-18.0702 1.98439 0)
(-5.92079 -10.4991 0)
(8.13881 -24.2759 0)
(16.9526 -32.2323 -2.84691e-19)
(16.497 -30.8756 -2.01449e-17)
(11.3272 -24.9163 3.70419e-18)
(7.1585 -19.796 1.65951e-17)
(5.49921 -16.9437 -1.15411e-19)
(5.64827 -15.851 -8.14348e-20)
(6.79079 -15.7998 1.06369e-19)
(8.3532 -16.2061 0)
(9.86283 -16.6354 0)
(10.9302 -16.7356 3.03464e-18)
(11.2536 -16.2512 -3.06453e-18)
(10.6998 -15.0645 -9.80223e-21)
(9.35685 -13.2353 -1.0004e-18)
(7.47715 -10.9757 1.03323e-18)
(5.36142 -8.56112 0)
(3.26331 -6.2432 0)
(1.35441 -4.20762 0)
(-0.261201 -2.56354 0)
(-1.52668 -1.35978 1.88348e-18)
(-2.42621 -0.607188 -1.89017e-18)
(-2.9751 -0.27683 2.08476e-18)
(-3.2172 -0.301232 -1.38745e-19)
(-3.22121 -0.58241 -3.99169e-18)
(-3.06772 -1.01293 1.91166e-18)
(-2.8327 -1.50228 -1.75652e-18)
(-2.5695 -1.98701 3.53951e-18)
(-2.30425 -2.43046 -1.6669e-18)
(-2.0461 -2.81795 -1.02842e-19)
(-1.79632 -3.14875 1.48641e-18)
(-1.55676 -3.42766 -2.87342e-18)
(-1.32933 -3.66163 -9.3841e-20)
(-1.11522 -3.85809 1.45845e-18)
(-0.913819 -4.02445 -1.47453e-19)
(-0.722752 -4.16712 0)
(-0.538939 -4.29042 0)
(-0.359699 -4.39603 0)
(-0.183205 -4.48328 1.07765e-19)
(-0.00822311 -4.54978 9.86791e-20)
(0.166515 -4.59229 0)
(0.342935 -4.60729 1.43293e-18)
(0.523969 -4.59149 -1.48115e-18)
(0.713623 -4.54236 -1.17717e-18)
(0.916788 -4.45851 1.15501e-18)
(1.13885 -4.34018 0)
(1.38513 -4.18962 0)
(1.66012 -4.0113 -6.14673e-19)
(1.96671 -3.81189 6.00719e-19)
(2.30539 -3.59988 2.46413e-20)
(2.67385 -3.3849 0)
(3.06694 -3.17673 0)
(3.47723 -2.98436 -1.6301e-20)
(3.89589 -2.81493 -2.69773e-20)
(4.31352 -2.67289 0)
(4.72066 -2.55944 -4.3687e-20)
(5.10816 -2.47269 -3.0375e-19)
(5.46743 -2.40862 2.94597e-19)
(5.79157 -2.36202 1.18781e-19)
(6.07834 -2.32503 4.22177e-19)
(6.32104 -2.29404 5.28887e-19)
(-24.0432 22.0426 0)
(-44.2343 42.6938 2.61584e-17)
(-36.7791 42.0601 -2.68834e-17)
(-14.994 32.3169 0)
(13.4422 18.7737 0)
(44.2856 2.08976 1.30977e-17)
(70.7162 -13.6209 -1.25145e-17)
(88.9334 -25.0331 -7.84609e-19)
(99.0632 -31.3567 0)
(103.559 -33.9111 -7.09433e-19)
(105.195 -34.5898 -6.62654e-19)
(105.601 -34.4916 -1.73151e-17)
(104.637 -33.4911 3.88881e-19)
(101.533 -30.8569 1.75113e-17)
(96.2759 -26.5476 1.56263e-17)
(90.1086 -21.5499 -1.59292e-17)
(84.292 -17.038 0)
(79.3158 -13.538 -3.2765e-19)
(74.7225 -10.9029 0)
(69.5287 -8.76506 0)
(63.012 -7.06463 0)
(55.5759 -6.02109 -8.5447e-18)
(48.3485 -5.45853 1.74155e-18)
(42.1216 -4.86775 7.67254e-18)
(37.1577 -4.14913 0)
(33.3597 -3.55551 1.83624e-19)
(30.4244 -3.25804 8.05609e-20)
(28.0285 -3.22894 -1.05194e-19)
(25.8558 -3.35819 1.92222e-18)
(23.5587 -3.48584 -1.94477e-18)
(20.8873 -3.48524 1.17654e-19)
(17.7488 -3.31302 1.13968e-19)
(14.2427 -2.99956 2.39884e-18)
(10.6214 -2.60061 -2.52254e-18)
(7.17937 -2.15054 -2.22705e-18)
(4.13491 -1.67127 2.3075e-18)
(1.58451 -1.19304 0)
(-0.463643 -0.74416 -8.22627e-20)
(-2.04429 -0.348708 0)
(-3.21071 -0.033351 -1.63455e-19)
(-4.01882 0.181017 2.01965e-18)
(-4.52618 0.282225 -2.18744e-18)
(-4.79051 0.266613 1.32234e-19)
(-4.8653 0.139169 -1.29535e-19)
(-4.79472 -0.0918336 -1.82086e-20)
(-4.60823 -0.415709 -1.20436e-19)
(-4.32363 -0.819233 1.14854e-19)
(-3.95493 -1.28496 1.6058e-18)
(-3.5213 -1.78902 -1.60544e-18)
(-3.04766 -2.3016 0)
(-2.56614 -2.79438 9.8061e-20)
(-2.10482 -3.2421 1.69728e-19)
(-1.67919 -3.6286 1.06944e-18)
(-1.29338 -3.94963 -1.06966e-18)
(-0.942842 -4.20899 -1.3424e-19)
(-0.619054 -4.41426 1.76647e-18)
(-0.313467 -4.5734 -1.9702e-18)
(-0.0191998 -4.69271 -1.07763e-19)
(0.26881 -4.77645 -9.86746e-20)
(0.554306 -4.82724 1.20126e-18)
(0.840258 -4.84654 -1.1822e-18)
(1.1292 -4.83526 7.23152e-20)
(1.4234 -4.79412 3.70746e-20)
(1.72484 -4.72415 0)
(2.03518 -4.62695 -4.10917e-19)
(2.35562 -4.50497 1.27897e-19)
(2.68673 -4.36168 3.07554e-19)
(3.0283 -4.2015 0)
(3.3792 -4.02965 1.31158e-22)
(3.73721 -3.85177 -3.70201e-20)
(4.09897 -3.67347 -2.52988e-19)
(4.45999 -3.49982 2.62662e-19)
(4.81476 -3.33496 4.30057e-19)
(5.15702 -3.18184 -4.63778e-19)
(5.48027 -3.04224 1.21034e-19)
(5.77852 -2.91694 -5.496e-19)
(6.04696 -2.80596 3.62852e-19)
(6.2831 -2.70808 -1.18802e-19)
(6.48733 -2.6211 8.11702e-19)
(6.65272 -2.55875 -6.2055e-19)
(19.4377 -14.0441 7.58302e-17)
(56.4016 -31.771 -3.31254e-19)
(70.2088 -45.7365 -3.63648e-19)
(63.8824 -35.4552 -2.91432e-19)
(35.6141 -16.9056 0)
(1.90267 4.69689 1.73571e-16)
(-24.3234 19.5152 -3.4069e-16)
(-36.8595 24.6476 1.66833e-16)
(-38.9284 23.4186 -1.4338e-16)
(-37.0383 20.4835 1.32254e-17)
(-35.2337 18.5258 1.35809e-16)
(-34.743 18.1651 3.92142e-19)
(-35.25 18.7082 3.4772e-19)
(-35.6639 19.1574 -8.911e-17)
(-35.1713 18.9737 9.08106e-17)
(-33.462 18.101 2.21826e-19)
(-30.915 16.7965 5.96694e-17)
(-28.0225 15.2304 -8.65288e-18)
(-25.0832 13.4071 -5.19101e-17)
(-22.1549 11.3598 -2.29833e-19)
(-19.2361 9.20459 1.86545e-19)
(-16.3763 7.13013 1.49742e-19)
(-13.6757 5.28995 0)
(-11.2261 3.76914 -7.03135e-22)
(-9.09304 2.60285 -1.34155e-17)
(-7.33629 1.77611 2.41393e-17)
(-6.013 1.26004 -1.08107e-17)
(-5.16555 1.05679 6.94923e-18)
(-4.83031 1.14118 -7.03323e-18)
(-5.08139 1.52362 -5.29295e-18)
(-5.92102 2.1632 9.87638e-18)
(-7.19071 2.87014 -2.95826e-19)
(-8.52207 3.23613 -4.57738e-18)
(-9.52286 2.86044 0)
(-10.0795 1.72798 0)
(-10.3525 0.229102 -8.70585e-20)
(-10.4994 -1.19643 0)
(-10.5609 -2.34311 -6.56081e-20)
(-10.5237 -3.20767 3.06552e-18)
(-10.3687 -3.84514 -6.21682e-18)
(-10.0894 -4.3102 3.19875e-18)
(-9.69282 -4.64801 0)
(-9.19245 -4.89434 0)
(-8.60325 -5.07589 2.66921e-18)
(-7.94157 -5.21217 -2.52365e-18)
(-7.22644 -5.31616 -1.95025e-19)
(-6.47797 -5.3978 0)
(-5.71491 -5.46219 0)
(-4.95657 -5.51331 1.91878e-18)
(-4.22154 -5.55385 -1.90872e-18)
(-3.5213 -5.58309 -9.83373e-20)
(-2.86195 -5.59907 0)
(-2.24642 -5.60354 -1.47277e-18)
(-1.67312 -5.59727 1.28497e-18)
(-1.13862 -5.5811 -1.88653e-18)
(-0.638928 -5.55629 2.01099e-18)
(-0.169767 -5.52412 -1.39687e-18)
(0.273401 -5.4855 2.75081e-18)
(0.695251 -5.44067 -2.29668e-18)
(1.1004 -5.38904 1.89563e-19)
(1.49313 -5.32926 8.28397e-19)
(1.8771 -5.25942 4.72702e-19)
(2.25513 -5.17741 -5.01295e-19)
(2.62909 -5.08127 0)
(2.99981 -4.96962 -2.59238e-20)
(3.36717 -4.8419 -1.307e-19)
(3.73014 -4.69861 1.64907e-19)
(4.08701 -4.54135 0)
(4.43549 -4.37272 -1.00038e-19)
(4.77293 -4.19608 -4.89646e-19)
(5.09652 -4.01525 4.20091e-19)
(5.40339 -3.83405 0)
(5.69088 -3.65607 0)
(5.95659 -3.4843 7.19129e-20)
(6.19858 -3.32098 -7.73453e-20)
(6.41535 -3.16756 -5.74782e-19)
(6.60593 -3.02472 9.5104e-19)
(6.7705 -2.8919 0)
(6.91039 -2.76904 -1.79666e-19)
(7.02154 -2.67236 -8.60613e-19)
(-3.10972 -0.688497 -3.21819e-17)
(-30.4458 18.4963 4.98832e-17)
(-85.0964 48.0524 -2.56303e-17)
(-132.995 75.3019 -2.62475e-17)
(-154.753 79.3143 2.76811e-17)
(-144.658 61.3116 0)
(-112.254 28.9364 -4.11639e-17)
(-74.0893 -5.55617 4.13961e-17)
(-42.928 -33.553 -2.60768e-17)
(-22.7567 -52.6035 2.66606e-17)
(-11.5616 -64.0676 -1.56214e-17)
(-5.96624 -70.2242 3.12569e-17)
(-3.15073 -73.0098 -2.75918e-17)
(-1.44757 -73.6228 2.66127e-17)
(-0.28946 -72.419 -2.63763e-17)
(0.312857 -69.2784 1.35459e-17)
(0.253012 -64.0088 1.18438e-17)
(-0.340403 -57.0738 -2.45319e-17)
(-1.17045 -49.8596 1.19394e-17)
(-1.91849 -43.6622 2.28793e-19)
(-2.22312 -38.8559 -2.27646e-19)
(-1.85121 -35.2712 8.25174e-18)
(-0.843563 -32.6642 -8.51182e-18)
(0.606903 -30.7726 9.36784e-20)
(2.24018 -29.3071 0)
(3.82026 -28.0454 6.07897e-20)
(5.15657 -26.8697 0)
(6.09315 -25.7466 -4.76894e-19)
(6.41375 -24.6882 1.67089e-18)
(5.71428 -23.4857 -1.16982e-18)
(3.48805 -21.6225 -4.58324e-18)
(-0.44596 -18.6354 4.47613e-18)
(-5.53293 -14.7038 -1.38002e-19)
(-10.5078 -10.8255 -3.09326e-19)
(-14.0373 -8.13083 -6.96575e-18)
(-15.5752 -6.97057 7.31042e-18)
(-15.5329 -6.90715 0)
(-14.6823 -7.33328 6.36839e-18)
(-13.5795 -7.84266 -6.25416e-18)
(-12.4636 -8.26282 2.77089e-19)
(-11.3928 -8.55315 -4.18382e-19)
(-10.3646 -8.72174 0)
(-9.37002 -8.79236 0)
(-8.40388 -8.78557 0)
(-7.45348 -8.71032 -2.92083e-19)
(-6.51086 -8.57589 3.797e-18)
(-5.58109 -8.39867 -3.59318e-18)
(-4.67383 -8.19267 0)
(-3.79883 -7.96719 0)
(-2.96572 -7.72703 2.19099e-18)
(-2.18437 -7.47641 -2.04855e-18)
(-1.46243 -7.22008 1.5964e-18)
(-0.805176 -6.96334 -1.23575e-18)
(-0.214221 -6.71262 1.34733e-19)
(0.312989 -6.47507 -7.87442e-19)
(0.783264 -6.25759 9.87672e-19)
(1.20684 -6.0655 -1.08098e-18)
(1.5958 -5.90136 1.03471e-18)
(1.96225 -5.76452 0)
(2.31679 -5.65123 -2.09445e-21)
(2.6675 -5.55541 -1.2272e-19)
(3.01958 -5.46968 1.53755e-19)
(3.37532 -5.3863 -2.91686e-19)
(3.73445 -5.29807 5.219e-19)
(4.0946 -5.19901 -2.57023e-19)
(4.45188 -5.08486 -5.92631e-19)
(4.80157 -4.95334 4.16447e-19)
(5.13881 -4.80428 1.2173e-19)
(5.45916 -4.63935 8.00074e-19)
(5.75908 -4.46172 -8.3384e-19)
(6.0361 -4.2754 2.35149e-19)
(6.28875 -4.08464 1.15334e-18)
(6.51634 -3.89334 -9.80326e-19)
(6.71865 -3.70476 0)
(6.89563 -3.52137 1.07047e-18)
(7.04737 -3.34498 -1.93102e-19)
(7.17421 -3.17691 -2.41923e-18)
(7.27753 -3.01758 1.04308e-18)
(7.35955 -2.869 -1.06233e-18)
(7.41863 -2.75022 1.04267e-18)
(-28.0069 16.4081 -6.74928e-17)
(-61.2599 36.9162 0)
(-82.0006 52.7558 0)
(-94.4723 64.5789 -4.64264e-19)
(-102.334 76.9316 0)
(-104.033 85.1548 0)
(-99.6568 87.3054 0)
(-90.4893 83.5815 6.78197e-19)
(-78.527 74.9333 0)
(-65.0362 62.9606 8.19955e-20)
(-50.4759 48.868 -1.02519e-16)
(-35.0517 33.4506 1.95583e-16)
(-19.3995 17.4792 -9.36417e-17)
(-4.09792 1.67373 0)
(11.431 -14.066 2.91796e-19)
(28.4581 -31.1417 -1.27608e-19)
(45.2524 -48.1583 0)
(54.9074 -58.0421 -1.07854e-17)
(52.957 -57.4953 1.27342e-17)
(44.1061 -52.4711 -4.96022e-18)
(34.8651 -48.4498 3.07233e-18)
(27.804 -45.8274 -2.00946e-20)
(22.7901 -43.7392 0)
(18.9493 -41.9825 -9.22819e-18)
(15.5712 -40.4487 9.77979e-18)
(12.108 -38.8567 -1.09177e-17)
(7.98601 -36.8044 1.12757e-17)
(2.72426 -33.8682 1.21899e-17)
(-3.66134 -29.9698 -1.22767e-17)
(-10.3494 -25.6889 0)
(-15.9522 -22.0512 -1.32305e-17)
(-19.3795 -19.6938 1.34016e-17)
(-20.6241 -18.2877 3.07996e-19)
(-20.4448 -17.1557 -1.22358e-17)
(-19.4562 -16.0532 1.2659e-17)
(-17.9636 -15.0434 -1.34071e-20)
(-16.2239 -14.1676 -2.61078e-19)
(-14.4527 -13.4073 -9.6912e-18)
(-12.7583 -12.7366 9.73559e-18)
(-11.1861 -12.1427 8.01801e-18)
(-9.72974 -11.6103 -3.20421e-19)
(-8.3644 -11.1263 -7.92441e-18)
(-7.07599 -10.69 0)
(-5.87277 -10.3098 3.38321e-19)
(-4.74201 -9.97833 -4.29511e-18)
(-3.67877 -9.68728 9.51137e-18)
(-2.67938 -9.41934 -8.10834e-18)
(-1.74348 -9.15552 3.54523e-18)
(-0.875148 -8.87853 0)
(-0.0800455 -8.57358 1.66865e-19)
(0.635733 -8.23073 -1.88713e-18)
(1.26621 -7.84692 1.87818e-18)
(1.80571 -7.42835 -3.17889e-20)
(2.25274 -6.99231 -8.5975e-19)
(2.61167 -6.56376 6.5994e-19)
(2.89521 -6.17141 -3.16581e-19)
(3.1247 -5.83975 6.23721e-20)
(3.32615 -5.58252 3.00906e-19)
(3.52439 -5.40062 2.50137e-19)
(3.73883 -5.28439 -2.44319e-19)
(3.98109 -5.21775 0)
(4.25535 -5.18248 1.99309e-20)
(4.55971 -5.16096 8.0362e-19)
(4.88772 -5.1378 -7.17882e-19)
(5.2299 -5.10067 -2.58757e-19)
(5.57522 -5.04075 0)
(5.91246 -4.95297 -1.26831e-18)
(6.23151 -4.83603 1.04933e-18)
(6.52439 -4.69203 1.29893e-19)
(6.78598 -4.52565 1.93192e-19)
(7.01405 -4.34307 -3.36619e-19)
(7.20876 -4.15072 4.92942e-20)
(7.37189 -3.95429 1.58063e-18)
(7.50589 -3.75819 -1.34764e-18)
(7.61322 -3.5654 1.90683e-19)
(7.69602 -3.37791 0)
(7.75623 -3.19704 1.6405e-18)
(7.79642 -3.02331 -1.30007e-18)
(7.81915 -2.86004 0)
(7.82419 -2.72747 1.28114e-18)
(17.4006 -7.79518 -2.00752e-18)
(59.5939 -20.0778 -1.20767e-16)
(83.9468 -32.7403 1.08179e-16)
(94.6068 -27.0932 -2.11091e-16)
(92.3331 -19.6357 1.03127e-16)
(87.2507 -9.33106 7.84032e-19)
(81.4271 1.16021 7.36644e-17)
(76.2363 10.985 -7.60057e-17)
(72.1846 19.7005 -5.96936e-19)
(68.9527 27.2271 -6.11596e-19)
(65.7691 33.7177 -3.73712e-17)
(61.9052 39.2664 -2.03631e-17)
(57.157 43.765 5.96795e-17)
(51.8347 47.0626 -3.29257e-17)
(46.0974 48.8721 5.71053e-17)
(39.7574 48.8672 -2.46889e-17)
(32.3638 47.3199 0)
(24.143 44.9121 0)
(17.0966 41.4214 1.56046e-17)
(13.1355 36.2736 5.40401e-19)
(11.1155 29.9927 -1.6287e-17)
(9.52724 23.6208 1.71027e-17)
(8.12289 17.7741 -3.45729e-17)
(6.94169 12.3449 1.72547e-17)
(6.06177 7.21158 1.59236e-17)
(5.52165 2.50881 -1.34898e-18)
(5.1863 -1.50654 -1.53837e-17)
(4.84078 -4.54109 1.2061e-19)
(4.37187 -6.41512 -9.91071e-20)
(3.84487 -7.13833 1.60885e-19)
(3.40564 -6.9115 0)
(3.1207 -6.07182 7.20675e-18)
(2.9726 -4.96356 -1.40291e-17)
(2.95273 -3.83756 6.8022e-18)
(3.06447 -2.84398 0)
(3.2847 -2.05982 -6.17059e-18)
(3.55924 -1.51317 6.1943e-18)
(3.85658 -1.16075 0)
(4.15143 -1.01197 0)
(4.43167 -1.06416 -5.0688e-18)
(4.70621 -1.29722 5.30454e-18)
(4.98846 -1.68283 1.30963e-19)
(5.29198 -2.16659 0)
(5.61057 -2.7312 4.56347e-18)
(5.96037 -3.31456 -5.07092e-19)
(6.32964 -3.87429 -4.98472e-18)
(6.69296 -4.38214 -1.88952e-19)
(7.02951 -4.80835 3.86759e-19)
(7.31927 -5.12665 0)
(7.54112 -5.31726 -2.65577e-18)
(7.67484 -5.3672 4.25093e-18)
(7.70521 -5.26838 -1.85841e-18)
(7.62051 -5.02947 -1.38978e-19)
(7.41557 -4.67971 -2.74386e-19)
(7.10546 -4.26691 4.1615e-19)
(6.72512 -3.86422 -6.44423e-19)
(6.32658 -3.54703 2.44066e-19)
(5.96906 -3.3618 0)
(5.70283 -3.31532 0)
(5.55971 -3.38404 -1.72669e-19)
(5.54837 -3.53012 -1.63251e-19)
(5.65824 -3.71606 0)
(5.86679 -3.90982 -1.65032e-18)
(6.14633 -4.08613 1.61427e-18)
(6.46813 -4.22632 1.92803e-18)
(6.80486 -4.31802 3.19185e-19)
(7.13244 -4.35499 -1.55237e-18)
(7.43171 -4.33685 1.79767e-18)
(7.68954 -4.26874 -1.75551e-18)
(7.89949 -4.15996 6.15315e-20)
(8.06142 -4.02187 -1.60019e-18)
(8.17986 -3.86574 1.55299e-18)
(8.26179 -3.70088 1.56304e-18)
(8.31437 -3.53353 -1.94684e-18)
(8.34342 -3.36699 1.50526e-18)
(8.35289 -3.20253 -1.6463e-18)
(8.34532 -3.04049 1.61678e-18)
(8.32305 -2.8808 -3.13953e-18)
(8.28788 -2.72757 -3.28344e-21)
(8.23968 -2.60065 -3.62577e-21)
(4.08827 -3.45022 1.9932e-18)
(-16.0985 4.09825 4.72125e-19)
(-61.0779 23.0225 -6.53331e-18)
(-104.918 38.406 1.41139e-17)
(-130.346 43.6684 -8.07873e-18)
(-138.098 40.6032 1.11404e-17)
(-133.125 32.66 1.81487e-18)
(-121.889 23.3483 -1.43362e-17)
(-109.102 14.9353 1.61662e-17)
(-97.0339 8.38247 -1.59892e-17)
(-86.3379 3.80721 1.60036e-17)
(-76.867 0.998341 -1.65413e-17)
(-68.4267 -0.342082 1.37987e-17)
(-60.7402 -0.441494 -1.37881e-17)
(-53.662 0.489919 1.8946e-19)
(-47.2075 2.15704 1.40997e-19)
(-41.6332 4.11959 9.38569e-18)
(-37.3848 6.42086 -9.53106e-18)
(-34.52 9.85991 -1.64097e-19)
(-32.4139 14.7077 -2.70078e-19)
(-30.2369 19.8491 7.45515e-18)
(-27.4952 24.0828 -7.99461e-18)
(-23.9463 27.245 0)
(-19.3632 29.449 1.08667e-19)
(-13.6797 30.5924 0)
(-7.07178 30.6581 0)
(-0.082468 29.8958 5.82446e-20)
(6.54071 28.693 -2.03298e-18)
(12.0957 27.4711 1.98609e-18)
(16.1751 26.5518 -1.04889e-19)
(18.718 26.0486 -5.4284e-20)
(19.934 25.9083 1.10495e-19)
(20.1672 26.0044 -9.97675e-20)
(19.7499 26.2057 0)
(18.9436 26.4037 -3.75879e-20)
(17.9285 26.5249 0)
(16.8154 26.5151 0)
(15.7011 26.3976 -9.07204e-20)
(14.6353 26.1682 0)
(13.6505 25.8355 0)
(12.7697 25.4026 2.75555e-18)
(12.0137 24.8678 -2.51344e-18)
(11.4035 24.2592 0)
(10.944 23.5636 0)
(10.6274 22.7645 0)
(10.4458 21.849 -1.41232e-19)
(10.4025 20.8246 1.84798e-19)
(10.4953 19.6919 6.86164e-19)
(10.7108 18.4439 -8.37289e-19)
(11.0172 17.0721 -4.62545e-19)
(11.3519 15.5635 4.95963e-19)
(11.6106 13.9047 -1.10121e-19)
(11.6588 12.1105 -1.45519e-19)
(11.3398 10.2549 0)
(10.5659 8.45778 0)
(9.4189 6.81506 2.07112e-18)
(8.14578 5.34161 1.36445e-19)
(7.04185 3.99682 -2.33187e-18)
(6.29613 2.74156 2.04986e-18)
(5.94407 1.57134 -2.12889e-18)
(5.91866 0.511127 -3.26429e-18)
(6.1264 -0.418058 2.21506e-19)
(6.48097 -1.20565 5.80677e-18)
(6.91414 -1.85158 -2.87112e-18)
(7.37405 -2.36159 -1.87633e-19)
(7.82002 -2.74397 -2.67416e-19)
(8.22026 -3.00881 -2.44681e-18)
(8.55201 -3.16886 4.78202e-18)
(8.80275 -3.24044 -2.33428e-18)
(8.97085 -3.24299 -2.54462e-19)
(9.06464 -3.19731 -2.24861e-18)
(9.09921 -3.12263 2.4918e-18)
(9.09199 -3.03378 0)
(9.05833 -2.93964 2.37872e-19)
(9.00886 -2.84344 0)
(8.94899 -2.74472 -1.96194e-18)
(8.88045 -2.64166 6.16044e-21)
(8.80374 -2.53265 1.83874e-18)
(8.71849 -2.42168 -1.29169e-18)
(8.62317 -2.32648 -4.50945e-19)
(-11.6854 5.04865 4.80987e-17)
(-33.6166 14.9947 -7.2303e-17)
(-55.0718 29.7314 -7.88856e-20)
(-64.3057 39.247 -7.04204e-17)
(-49.7042 39.0215 7.20826e-17)
(-20.8435 30.5064 -6.55167e-17)
(6.92778 20.6275 1.29541e-16)
(26.9193 12.2333 -6.31758e-17)
(39.7478 5.32793 5.55868e-17)
(47.5713 -0.329996 -5.6062e-17)
(51.8967 -4.83591 0)
(53.7227 -8.34811 2.41181e-19)
(53.7023 -11.0459 -9.88411e-22)
(52.4269 -13.0425 0)
(50.4751 -14.4528 0)
(48.4288 -15.4179 0)
(46.841 -16.1326 0)
(46.1197 -16.7848 -9.96728e-20)
(46.3457 -17.412 0)
(47.2047 -17.815 1.9438e-17)
(48.1176 -17.6648 -1.92408e-17)
(48.5506 -16.73 -2.74803e-17)
(48.253 -15.0439 2.80626e-17)
(47.2434 -12.7889 1.88017e-17)
(45.5711 -10.1571 -1.93446e-17)
(43.2354 -7.36461 1.24081e-17)
(40.223 -4.52668 -1.26328e-17)
(36.6385 -1.70377 7.51076e-18)
(32.6937 1.03039 -2.1168e-18)
(28.6648 3.60562 -5.60547e-18)
(24.8245 5.99291 0)
(21.3802 8.19445 -4.44017e-20)
(18.4588 10.2212 -1.19444e-20)
(16.1266 12.1033 0)
(14.376 13.8331 3.7042e-20)
(13.1569 15.4063 0)
(12.4112 16.8452 0)
(12.0627 18.1459 4.44799e-18)
(12.032 19.2883 -8.83093e-18)
(12.253 20.2641 4.57439e-18)
(12.6617 21.0569 4.35826e-18)
(13.196 21.6281 -4.47722e-18)
(13.8023 21.9459 -9.16308e-20)
(14.439 21.9966 0)
(15.0398 21.7535 2.74311e-18)
(15.5496 21.2306 -2.47619e-18)
(15.8885 20.4651 0)
(15.9407 19.4926 0)
(15.5583 18.3864 5.20223e-19)
(14.5903 17.2524 -6.06559e-19)
(12.9187 16.1822 -2.20356e-18)
(10.5495 15.2121 2.13502e-18)
(7.71903 14.2866 3.17109e-18)
(4.88423 13.2652 -6.27777e-18)
(2.57381 12.0092 3.24679e-18)
(1.15121 10.4902 7.46338e-19)
(0.674159 8.80636 0)
(0.96638 7.10631 -3.63308e-19)
(1.75967 5.50733 2.32197e-18)
(2.81312 4.08162 -4.77309e-18)
(3.9485 2.84039 2.3896e-18)
(5.05471 1.7727 0)
(6.08502 0.874934 2.13544e-19)
(7.01578 0.131016 0)
(7.83134 -0.476342 1.87368e-19)
(8.51899 -0.959642 2.17669e-19)
(9.06711 -1.3291 4.19126e-19)
(9.46823 -1.59564 2.94735e-18)
(9.72358 -1.77358 -2.48588e-18)
(9.84645 -1.88156 3.80938e-19)
(9.86213 -1.941 2.70384e-18)
(9.80355 -1.97256 -3.29163e-18)
(9.70396 -1.99199 2.53461e-18)
(9.58974 -2.0075 -2.46494e-18)
(9.47627 -2.01982 2.67355e-18)
(9.36818 -2.02484 -1.98389e-18)
(9.26322 -2.01709 -2.17643e-18)
(9.15693 -1.99251 2.10973e-18)
(9.04484 -1.95375 -4.72352e-19)
(8.92246 -1.91486 4.58624e-19)
(20.9957 -7.80614 3.29647e-17)
(64.8349 -27.2721 5.09045e-17)
(101.034 -38.2559 -1.04741e-16)
(111.893 -38.8164 1.095e-16)
(102.58 -28.4496 -5.65426e-17)
(78.4324 -13.294 3.77829e-20)
(47.13 2.56196 5.63913e-17)
(20.4887 14.324 -1.12238e-16)
(5.82174 20.4165 2.89477e-18)
(2.05247 23.0232 5.36539e-17)
(4.24249 24.8126 -2.24489e-19)
(8.60429 26.7765 -4.4524e-17)
(13.5499 28.6701 4.54099e-17)
(18.5208 30.2196 -3.504e-17)
(23.0475 31.4559 3.5742e-17)
(26.6281 32.4817 2.29308e-17)
(28.9125 33.327 -2.33775e-17)
(29.8605 33.9554 1.01367e-19)
(29.7376 34.2955 0)
(28.9516 34.2657 -3.50075e-18)
(27.8546 33.7994 3.58093e-18)
(26.6381 32.8975 -5.62631e-20)
(25.3619 31.6541 -1.62622e-18)
(24.0332 30.2058 1.69835e-18)
(22.6783 28.6695 1.31755e-19)
(21.3579 27.0968 0)
(20.1724 25.5183 2.96573e-20)
(19.2263 23.9859 1.25382e-19)
(18.5872 22.5609 3.17836e-18)
(18.2662 21.2957 -3.23128e-18)
(18.2188 20.215 -1.89965e-18)
(18.3602 19.3126 1.96092e-18)
(18.5798 18.5781 2.4511e-20)
(18.7719 18.0123 -2.1533e-19)
(18.8397 17.6072 1.00327e-18)
(18.695 17.3414 -8.19708e-19)
(18.2644 17.1825 -1.70663e-18)
(17.5062 17.1031 1.78336e-18)
(16.3946 17.0643 -2.70322e-20)
(14.9666 17.064 -7.88849e-20)
(13.2441 17.0405 1.07998e-19)
(11.2907 16.947 -2.00127e-18)
(9.17135 16.7563 4.02771e-19)
(6.94358 16.4451 1.6998e-18)
(4.65726 15.9848 -1.00139e-18)
(2.39582 15.352 8.7367e-19)
(0.231004 14.5185 0)
(-1.74061 13.489 -5.24027e-19)
(-3.42279 12.2975 4.95776e-19)
(-4.75749 11.0149 -1.17826e-18)
(-5.73748 9.75083 -2.7317e-19)
(-6.37071 8.61331 -3.7273e-19)
(-6.6237 7.66401 -3.57173e-19)
(-6.41839 6.89822 -3.06258e-19)
(-5.69313 6.26212 2.57323e-18)
(-4.47276 5.6929 -1.9234e-19)
(-2.88522 5.14202 0)
(-1.10316 4.5895 3.14331e-18)
(0.708588 4.03741 -2.39861e-18)
(2.43022 3.49398 0)
(4.0054 2.97612 2.69862e-18)
(5.40922 2.49545 -2.01862e-18)
(6.63065 2.03969 0)
(7.67397 1.60574 2.82947e-19)
(8.54476 1.19707 0)
(9.24282 0.819166 3.52968e-18)
(9.76372 0.479061 -7.45824e-18)
(10.105 0.182413 3.54259e-18)
(10.274 -0.0694865 -3.92415e-19)
(10.294 -0.281248 -3.80495e-19)
(10.2036 -0.46257 3.17013e-18)
(10.0502 -0.625058 -2.73268e-18)
(9.87847 -0.777908 3.93687e-19)
(9.72032 -0.924544 3.7585e-19)
(9.58926 -1.06205 -6.75333e-19)
(9.4828 -1.1835 -3.03874e-19)
(9.38967 -1.28142 -2.77382e-18)
(9.2975 -1.35074 3.82555e-20)
(9.19659 -1.39331 2.55651e-18)
(9.07965 -1.41944 5.64893e-19)
(6.22639 -2.51973 0)
(3.73914 1.90668 -2.78372e-19)
(-12.7784 3.71468 3.2815e-19)
(-33.3005 12.736 -1.04025e-17)
(-61.7552 21.7436 1.36037e-17)
(-92.4096 32.3948 2.3181e-18)
(-109.509 36.0704 -5.08743e-18)
(-100.103 26.5168 0)
(-69.2003 7.2148 2.71836e-19)
(-34.7947 -12.3254 2.08374e-17)
(-10.7869 -25.6402 -2.10796e-17)
(0.153034 -32.2152 -2.10262e-17)
(2.23239 -34.6578 4.27139e-17)
(0.480692 -35.4005 -8.83085e-19)
(-2.08325 -35.7685 -1.98197e-18)
(-4.23198 -36.2519 -1.82259e-17)
(-5.5756 -36.8546 -2.99182e-19)
(-6.05108 -37.3561 1.12683e-17)
(-5.75529 -37.5531 -1.12693e-17)
(-4.87988 -37.3282 -2.04062e-20)
(-3.63927 -36.6397 -1.29553e-19)
(-2.21956 -35.5094 -1.49416e-19)
(-0.770355 -33.9907 1.62509e-18)
(0.575889 -32.1662 -1.12147e-18)
(1.71178 -30.1477 -5.67126e-19)
(2.58105 -28.0581 -9.89683e-20)
(3.19706 -25.9858 -3.62936e-19)
(3.63893 -23.9769 8.94992e-19)
(3.99623 -22.0674 -1.0317e-18)
(4.28954 -20.294 5.79468e-19)
(4.44787 -18.6565 0)
(4.36346 -17.1013 -1.53879e-18)
(3.96612 -15.5734 3.34645e-18)
(3.26325 -14.0619 -1.79182e-18)
(2.32882 -12.5886 2.3925e-18)
(1.25926 -11.1819 -2.39091e-18)
(0.132054 -9.86499 -6.86357e-20)
(-1.00181 -8.63839 0)
(-2.12716 -7.49988 -8.71056e-20)
(-3.22426 -6.4222 -2.6285e-18)
(-4.32917 -5.39733 2.70885e-18)
(-5.42807 -4.38368 1.98486e-20)
(-6.50367 -3.37643 -2.88071e-20)
(-7.5309 -2.39014 0)
(-8.46444 -1.43955 0)
(-9.25083 -0.540624 -3.48769e-19)
(-9.83493 0.287277 6.36183e-19)
(-10.1669 1.0269 5.35514e-20)
(-10.216 1.6672 2.22283e-18)
(-9.97518 2.21142 -5.0639e-18)
(-9.45605 2.67751 2.38088e-18)
(-8.672 3.09128 0)
(-7.62738 3.47352 -3.5725e-18)
(-6.32493 3.82796 3.29349e-18)
(-4.78559 4.13874 0)
(-3.06082 4.37967 -3.57275e-18)
(-1.24141 4.5263 3.33527e-18)
(0.579421 4.57076 -3.17908e-18)
(2.30942 4.52852 2.70642e-18)
(3.88832 4.41084 0)
(5.27775 4.223 -7.16399e-19)
(6.47119 3.97376 -3.11215e-19)
(7.4787 3.67367 2.55017e-18)
(8.31439 3.33208 -3.41871e-19)
(8.98834 2.9597 -2.3957e-18)
(9.50135 2.56913 0)
(9.84868 2.174 -2.50049e-19)
(10.03 1.78719 0)
(10.0595 1.41879 0)
(9.97064 1.07474 3.8149e-18)
(9.81178 0.756604 -3.72073e-18)
(9.63525 0.462899 -3.01471e-18)
(9.48318 0.191481 -3.1998e-19)
(9.37727 -0.0580484 2.84585e-18)
(9.31694 -0.283382 3.35343e-18)
(9.286 -0.480374 -2.90841e-18)
(9.26307 -0.64487 3.24927e-19)
(9.23027 -0.774413 2.5665e-18)
(9.17615 -0.871577 -5.53591e-18)
(9.09391 -0.943622 1.81679e-18)
(7.41316 -4.80465 -1.35838e-16)
(19.6282 -12.0048 1.01592e-16)
(23.7023 -11.1615 9.9423e-17)
(17.0993 -6.88767 -1.01476e-16)
(4.92856 2.70757 -3.55292e-19)
(-12.6636 14.2061 -3.71627e-19)
(-32.222 26.0129 0)
(-49.7135 36.2085 -7.958e-17)
(-60.5765 41.4876 8.1644e-17)
(-58.0185 38.0269 0)
(-38.1542 26.4834 5.49044e-17)
(-10.5189 13.3027 -1.03313e-16)
(8.15992 3.28605 6.98079e-18)
(12.5822 -3.36683 7.63732e-17)
(10.0613 -8.18118 -3.59785e-17)
(8.17877 -12.8704 -3.5352e-19)
(9.14695 -18.242 3.13507e-19)
(11.6226 -23.7349 0)
(14.1204 -28.4306 -1.46336e-17)
(16.2163 -31.8103 1.46934e-17)
(17.902 -33.796 1.67392e-19)
(19.1775 -34.4724 -8.79511e-18)
(19.9488 -33.971 9.16322e-18)
(20.026 -32.5195 -7.27496e-18)
(19.3093 -30.5458 7.40673e-18)
(18.0327 -28.666 9.93406e-20)
(16.7098 -27.4549 -5.1098e-18)
(15.7835 -27.0677 1.16915e-18)
(15.1755 -27.1412 6.76087e-18)
(14.454 -27.1273 -7.99758e-19)
(13.4831 -26.702 -1.99253e-18)
(12.4047 -25.8832 -1.35713e-18)
(11.25 -24.794 1.45628e-18)
(9.97761 -23.4937 0)
(8.58718 -22.0504 -1.04636e-20)
(7.11498 -20.5477 -8.626e-21)
(5.60378 -19.0393 0)
(4.08509 -17.555 -3.31792e-18)
(2.58624 -16.1086 3.33826e-18)
(1.131 -14.6895 8.71588e-21)
(-0.260647 -13.2746 0)
(-1.56293 -11.8761 -1.99704e-20)
(-2.74907 -10.5018 -3.79726e-18)
(-3.78684 -9.13809 3.66081e-18)
(-4.63704 -7.76958 0)
(-5.25959 -6.39461 3.85793e-18)
(-5.62705 -5.03488 -4.29827e-18)
(-5.7204 -3.71251 0)
(-5.53341 -2.44781 0)
(-5.07542 -1.25866 2.21419e-19)
(-4.37017 -0.159191 2.33952e-19)
(-3.45153 0.840141 0)
(-2.36017 1.73077 -4.35605e-18)
(-1.14306 2.50379 4.5561e-18)
(0.147219 3.14939 4.35818e-18)
(1.4566 3.66151 -3.89364e-19)
(2.72798 4.04218 -8.17937e-18)
(3.91584 4.29356 7.83127e-18)
(4.97371 4.41513 3.03407e-19)
(5.88725 4.41593 -3.15084e-18)
(6.66581 4.3184 3.88585e-19)
(7.32757 4.14015 0)
(7.8889 3.89343 0)
(8.35587 3.59118 -2.87941e-18)
(8.72152 3.24677 3.18857e-18)
(8.97249 2.87415 0)
(9.10129 2.48765 -3.29583e-19)
(9.11727 2.10139 0)
(9.05006 1.72815 -2.24728e-18)
(8.94371 1.3782 2.19379e-18)
(8.84419 1.05819 -5.32679e-19)
(8.78607 0.77074 -4.30105e-18)
(8.78374 0.515143 3.73657e-18)
(8.8307 0.288851 -4.50999e-19)
(8.90623 0.0891401 0)
(8.98523 -0.0857666 0)
(9.04661 -0.236384 0)
(9.07721 -0.362446 3.12873e-18)
(9.0711 -0.465652 2.5874e-19)
(9.02593 -0.548991 -5.06364e-18)
(18.7267 -5.59825 1.21274e-17)
(74.7945 -27.6235 1.99401e-17)
(128.608 -45.9208 -2.04279e-17)
(140.529 -52.8519 2.43166e-17)
(114.804 -43.7277 -2.53443e-17)
(76.5173 -29.0727 -4.28747e-19)
(43.2027 -14.7351 -4.08854e-19)
(20.7899 -2.91165 0)
(8.857 6.1148 -1.8392e-19)
(4.71727 12.5072 0)
(4.53216 16.6821 -3.18613e-19)
(3.70618 19.2793 -3.31654e-17)
(-1.58966 20.9459 3.3467e-17)
(-12.0091 22.0901 3.08495e-17)
(-23.7603 22.8274 -3.09379e-17)
(-30.3138 22.3503 2.52662e-17)
(-28.667 20.0308 -2.62928e-17)
(-19.7198 17.0591 0)
(-4.45198 13.9128 0)
(12.9297 10.2058 0)
(28.4475 6.40847 -1.40238e-17)
(41.0676 3.08362 2.57707e-17)
(50.0101 0.486046 -3.05071e-18)
(53.6439 -0.928432 -1.46164e-17)
(50.6215 -0.621023 6.01096e-18)
(41.8082 1.26227 0)
(30.2381 3.73009 4.51529e-20)
(19.6456 5.53438 0)
(12.7518 5.89886 3.17365e-18)
(10.2871 4.77313 -3.16314e-18)
(10.9853 2.51937 -2.32554e-20)
(12.6802 -0.214485 0)
(13.6447 -2.7646 -4.24361e-18)
(13.3513 -4.75462 8.56168e-18)
(12.1532 -6.18358 -4.40699e-18)
(10.5854 -7.19802 4.231e-18)
(8.98393 -7.91252 -8.38968e-18)
(7.48144 -8.37794 4.15399e-18)
(6.10766 -8.61244 0)
(4.87139 -8.62718 0)
(3.77057 -8.43832 0)
(2.80276 -8.0623 -3.49129e-18)
(1.96557 -7.51782 1.04656e-17)
(1.26738 -6.81811 -6.80757e-18)
(0.712215 -6.00007 0)
(0.30859 -5.1011 6.56331e-18)
(0.0681401 -4.14219 -6.38015e-18)
(-0.00379496 -3.14808 -6.16357e-18)
(0.0899171 -2.14744 4.85999e-19)
(0.338094 -1.16813 1.06819e-19)
(0.720885 -0.235491 1.18514e-19)
(1.21377 0.628188 5.68641e-18)
(1.78746 1.4046 0)
(2.41084 2.08016 0)
(3.05565 2.64652 4.62958e-18)
(3.69505 3.09771 -4.91696e-18)
(4.3115 3.4314 0)
(4.89547 3.65209 0)
(5.44241 3.76656 -2.6652e-19)
(5.94992 3.78486 -4.70202e-19)
(6.41607 3.71771 0)
(6.83419 3.57453 0)
(7.19041 3.36411 4.35858e-19)
(7.46793 3.09578 4.13938e-19)
(7.6554 2.78115 -3.38091e-18)
(7.75608 2.43556 5.81681e-18)
(7.79221 2.078 2.42882e-19)
(7.80088 1.72896 -5.2274e-18)
(7.8223 1.40678 5.26486e-18)
(7.88628 1.12409 -4.68103e-18)
(8.00375 0.885956 8.83897e-19)
(8.16641 0.689955 2.12224e-18)
(8.35305 0.528264 -3.8916e-18)
(8.53866 0.390745 8.17118e-20)
(8.70219 0.268147 7.04954e-18)
(8.83039 0.154397 -3.80001e-18)
(8.91771 0.0473755 0)
(8.96387 -0.0518547 -7.4025e-19)
(8.97065 -0.142224 0)
(8.93912 -0.222148 2.64586e-18)
(0.385693 3.08265 0)
(-6.53805 10.8905 2.69377e-20)
(-12.4579 13.5847 -2.01796e-20)
(-10.3072 16.5104 -8.98064e-17)
(-4.56337 16.5184 1.76137e-16)
(1.83474 18.2456 -8.52694e-17)
(7.17905 21.3667 4.06378e-19)
(10.1864 25.8696 0)
(9.87836 31.8549 0)
(5.58901 38.391 0)
(-4.31757 43.8802 3.16746e-19)
(-22.4575 47.4068 2.8504e-19)
(-48.8843 48.8135 0)
(-74.3965 47.4866 3.6129e-20)
(-80.5622 41.7812 -3.02892e-19)
(-58.6144 32.1032 1.48783e-17)
(-24.1195 22.5034 -1.45322e-17)
(3.99074 14.3053 -6.41029e-20)
(18.1644 7.71189 0)
(20.4209 3.75256 4.3778e-21)
(17.2112 1.34981 -1.39608e-19)
(13.3097 -1.3783 2.2964e-18)
(10.0218 -4.71851 4.47157e-19)
(7.41385 -8.18042 -2.72632e-18)
(5.57804 -11.2225 -1.23786e-19)
(4.43922 -13.3389 -2.18366e-20)
(3.54431 -14.2157 -2.95044e-18)
(2.66234 -13.9591 3.04967e-18)
(1.8813 -13.0527 -6.99202e-20)
(1.33958 -11.9534 -4.23426e-20)
(0.974933 -10.9711 -6.06196e-20)
(0.791258 -10.2687 1.1949e-18)
(0.893531 -9.89993 -1.20625e-18)
(1.30297 -9.76829 -1.94751e-19)