/*--------------------------------*- C++ -*----------------------------------*\
| =========                 |                                                 |
| \\      /  F ield         | OpenFOAM: The Open Source CFD Toolbox           |
|  \\    /   O peration     | Version:  2012                                  |
|   \\  /    A nd           | Website:  www.openfoam.com                      |
|    \\/     M anipulation  |                                                 |
\*---------------------------------------------------------------------------*/
FoamFile
{
    version     2.0;
    format      ascii;
    class       volScalarField;
    location    "0.4";
    object      p;
}
// * * * * * * * * * * * * * * * * * * * * * * * * * * * * * * * * * * * * * //

dimensions      [0 2 -2 0 0 0 0];


internalField   nonuniform List<scalar> 
42400
(
-5468.71
-5602.74
-5744.03
-5826.19
-5840.67
-5786.44
-5689.25
-5568
-5427.01
-5261.16
-5062.11
-4824.52
-4547.18
-4230.84
-3877.63
-3491.83
-3078.72
-2645.37
-2200.73
-1756.43
-1324.7
-918.815
-551.62
-233.631
28.9626
235.265
388.177
492.736
555.262
582.67
581.775
558.567
517.903
463.786
400.022
330.738
260.281
192.538
130.32
75.2266
27.9064
-11.6043
-43.6396
-68.7715
-87.7244
-101.291
-110.249
-115.304
-117.04
-116.086
-112.442
-106.486
-98.7074
-89.6252
-79.8124
-69.855
-60.2019
-51.1024
-42.7636
-35.4957
-29.5363
-24.7949
-20.9299
-17.6366
-14.7813
-12.3269
-10.2267
-8.39751
-6.74685
-5.20437
-3.7337
-2.32933
-1.00674
0.208516
1.29032
2.21906
2.98688
3.59657
4.04212
4.27829
156.453
339.545
600.638
857.031
1106
1260.85
1323.14
1319.42
1274.69
1204.5
1116.63
1014.46
900.372
778.226
653.78
533.551
421.784
319.717
225.199
135.237
48.0553
-34.4713
-107.121
-164.605
-203.692
-223.321
-224.835
-211.129
-185.872
-153.025
-116.49
-79.8026
-45.9133
-17.0475
5.34156
20.5622
28.6352
30.1695
26.1602
17.7821
6.23882
-7.32134
-21.8448
-36.3881
-50.1287
-62.362
-72.4709
-79.9
-84.258
-85.8509
-84.0395
-79.0552
-71.4516
-62.0057
-51.8051
-42.0836
-33.9169
-27.9086
-24.0398
-21.791
-20.4659
-19.4949
-18.5506
-17.506
-16.3288
-15.0071
-13.5317
-11.9038
-10.1429
-8.28829
-6.39549
-4.5295
-2.75669
-1.13606
0.288387
1.49292
2.47648
3.25598
3.84374
4.25929
6533.32
6434.24
6256.32
5950.14
5534.2
5071.47
4620.95
4217.85
3866.97
3549.89
3237.91
2902
2518.7
2074.33
1566.12
1001.66
402.708
-186.807
-706.528
-1102.44
-1352.83
-1473.86
-1500.2
-1467.17
-1397.83
-1304.8
-1196.24
-1078.93
-958.854
-840.901
-728.75
-624.876
-530.781
-447.245
-374.471
-312.305
-260.366
-218.052
-184.587
-159.067
-140.499
-127.843
-120.03
-115.987
-114.642
-114.902
-115.633
-115.692
-114.111
-109.711
-102.335
-91.7093
-78.2599
-63.2016
-48.1587
-34.7411
-24.1246
-16.8086
-12.6124
-10.8584
-10.6547
-11.2152
-11.9976
-12.7014
-13.1484
-13.2205
-12.8506
-12.0227
-10.7689
-9.16494
-7.31994
-5.36161
-3.41764
-1.59809
0.0174462
1.38571
2.49906
3.37723
4.04878
4.55523
-6459.3
-6176.92
-5791.11
-5328.39
-4742.46
-4125.39
-3538.77
-3033.5
-2625.09
-2293.82
-2008.99
-1750.03
-1509.87
-1289.49
-1093.51
-926.73
-790.224
-680.013
-588.077
-506.686
-431.954
-363.759
-303.352
-251.246
-206.776
-168.863
-136.553
-109.659
-88.1683
-72.3276
-61.4029
-54.5584
-50.9898
-50.0521
-50.9464
-53.0829
-56.0961
-59.7706
-64.0116
-68.8127
-74.2121
-80.2403
-86.8758
-93.8873
-101.163
-108.238
-114.317
-118.28
-118.696
-114.017
-103.632
-87.513
-66.7783
-43.8988
-21.8769
-3.37434
9.92774
17.5576
20.0624
18.6254
14.7083
9.17823
3.53777
-1.49977
-5.59476
-8.54629
-10.2951
-10.9019
-10.5138
-9.33894
-7.62011
-5.60551
-3.51944
-1.53931
0.216083
1.6867
2.86242
3.76907
4.45192
4.96435
-5111.52
-5017.08
-4931.09
-4860.9
-4741.64
-4545.32
-4261.47
-3919.23
-3555.69
-3182.93
-2793.88
-2383.85
-1962.07
-1547.15
-1157.87
-808.5
-507.129
-256.472
-54.827
101.949
219.888
305.445
364.665
402.972
424.802
433.289
430.279
417.261
395.583
366.931
332.495
293.917
253.029
211.685
171.212
132.704
97.0887
65.0817
37.1498
13.4353
-6.19201
-22.0843
-34.7513
-44.8324
-52.5456
-57.9594
-61.0538
-62.0947
-60.8949
-57.7398
-52.4974
-45.4376
-37.2118
-28.527
-20.1382
-12.7336
-6.82493
-2.71898
-0.533187
-0.205726
-1.44562
-3.24846
-5.58712
-8.00087
-9.99231
-11.2787
-11.7382
-11.3662
-10.2559
-8.57326
-6.52753
-4.33709
-2.19694
-0.254019
1.40374
2.74418
3.77874
4.54739
5.1074
5.52188
5928.58
5777.63
5569.5
5306.3
4963.32
4564.4
4121.18
3662.94
3213.42
2777.16
2367.85
2013.82
1727.93
1498.69
1306.54
1137.29
982.089
835.702
694.838
557.777
423.901
294.141
170.657
55.7378
-48.7986
-141.21
-219.004
-279.431
-321.018
-344.275
-350.974
-343.106
-323.087
-293.767
-258.496
-220.939
-184.53
-151.92
-124.668
-103.243
-87.345
-76.2626
-69.153
-65.1167
-63.2414
-62.5373
-62.0204
-60.4451
-57.4116
-52.6979
-46.3588
-38.7732
-30.5574
-22.4213
-15.0119
-8.83687
-4.2003
-1.19591
0.351674
0.562928
-0.224331
-1.61474
-3.23297
-4.7707
-5.9787
-6.68778
-6.81823
-6.37121
-5.41712
-4.07958
-2.51389
-0.881312
0.676839
2.05862
3.20904
4.11553
4.79629
5.2878
5.63766
5.90512
452.197
768.803
1330.95
2146.48
3131
4113.37
5001.6
5741.36
6265.67
6513.38
6477.3
6200.83
5749.31
5190.93
4587.41
3985.25
3417.36
2902.47
2446.29
2044.99
1690.83
1376.41
1097.15
851.213
636.411
449.588
290.098
160.049
60.1095
-12.4327
-62.4333
-95.3196
-115.766
-126.839
-130.661
-128.812
-122.715
-113.587
-102.581
-90.7528
-78.8569
-67.4878
-57.0011
-47.6063
-39.3737
-32.3111
-26.2965
-21.1018
-16.4863
-12.2505
-8.27338
-4.52491
-1.06378
1.99236
4.50588
6.36152
7.49813
7.92352
7.62328
6.82537
5.6791
4.35388
3.02347
1.83318
0.894783
0.280871
0.0204634
0.100924
0.474378
1.06719
1.79188
2.56048
3.29749
3.94962
4.48971
4.91383
5.23388
5.46998
5.6457
5.80363
6494.73
5820.26
4839.26
3497.84
1791.43
91.0618
-1299.84
-2221.8
-2695.55
-2861.14
-2884.26
-2884.74
-2915.8
-2981.38
-3072.66
-3175.81
-3262.55
-3294.71
-3244.82
-3105.55
-2885.58
-2603.79
-2272.83
-1888.14
-1466.93
-1076.44
-776.114
-565.988
-415.297
-301.848
-216.092
-152.959
-107.441
-75.2209
-52.7184
-37.1602
-26.4143
-19.0206
-13.9174
-10.3059
-7.71938
-5.77488
-4.18228
-2.73612
-1.29946
0.206691
1.81734
3.53098
5.31712
7.12064
8.86822
10.476
11.862
12.9527
13.6923
14.0478
14.0136
13.6122
12.8936
11.9359
10.8267
9.65583
8.50594
7.44362
6.5142
5.74217
5.1348
4.68704
4.38588
4.21276
4.14462
4.15534
4.21887
4.31329
4.42371
4.54219
4.6653
4.79152
4.91997
5.06721
-16331.3
-15168.7
-13730.9
-12314.8
-10846.6
-9364.02
-7831.69
-6275.09
-4762.51
-3393.98
-2271.15
-1438.04
-861.205
-471.659
-203.609
-4.67599
154.434
275.164
344.067
357.491
328.196
275.783
215.798
157.198
102.902
54.4176
16.6442
-6.04118
-13.7557
-11.0115
-3.09838
6.53767
15.5404
22.6189
27.3069
29.6926
30.1764
29.2932
27.5771
25.4742
23.3051
21.2728
19.4883
18.0003
16.8185
15.9306
15.3122
14.9305
14.7458
14.7118
14.7763
14.8837
14.9784
15.0092
14.9329
14.7182
14.3465
13.8126
13.1243
12.3008
11.3707
10.3688
9.3337
8.30446
7.3179
6.4059
5.59363
4.89872
4.33113
3.89318
3.57962
3.37821
3.27174
3.24156
3.27116
3.34788
3.46219
3.60601
3.77241
3.96038
13136.9
13115.5
13040.1
12837.7
12526.5
12190.7
11830.6
11396.9
10846.7
10172.2
9401.44
8563.02
7662.17
6701.46
5707.61
4714.55
3734.21
2778.74
1900.02
1175.94
658.217
333.364
142.513
30.4161
-32.929
-62.2071
-68.6329
-61.7591
-48.6304
-34.253
-21.1895
-12.1968
-8.06142
-8.41922
-12.1107
-17.4965
-22.8585
-26.8045
-28.5365
-27.9066
-25.2873
-21.3272
-16.7176
-12.0381
-7.69191
-3.90601
-0.76537
1.74249
3.68543
5.15337
6.23557
7.00806
7.52935
7.84278
7.9761
7.95319
7.79375
7.51736
7.14493
6.69866
6.2012
5.6743
5.1377
4.60853
4.10142
3.62885
3.20152
2.8284
2.5161
2.26822
2.08487
1.96329
1.89925
1.88853
1.92749
2.01264
2.1398
2.30359
2.49826
2.71325
-4497.85
-4449.65
-4351.98
-4177.88
-3911.29
-3528.91
-3013.12
-2389.81
-1729.58
-1119.17
-623.787
-267.665
-30.7273
136.014
280.777
428.42
574.297
691.35
750.484
744.163
693.177
629.109
569.766
512.63
446.729
365.212
268.681
162.57
54.2815
-47.6595
-136.15
-204.866
-250.08
-270.512
-268.182
-248.545
-218.598
-184.459
-150.958
-120.643
-94.4346
-72.4888
-54.6276
-40.4952
-29.614
-21.4387
-15.4155
-11.0325
-7.85154
-5.52316
-3.78632
-2.45877
-1.42217
-0.604854
0.0344405
0.52006
0.86855
1.0941
1.21117
1.23533
1.18302
1.0711
0.916209
0.734409
0.540818
0.349335
0.172302
0.0201334
-0.0989355
-0.178897
-0.215846
-0.207788
-0.154405
-0.0567365
0.0831105
0.262097
0.476223
0.720696
0.990777
1.27085
-8193.16
-7983.52
-7720.08
-7422.36
-7086.73
-6728.78
-6352.44
-5980.64
-5643.61
-5353.46
-5097.47
-4850.95
-4590.98
-4306.32
-3996.34
-3666.12
-3324.15
-2980.06
-2641.43
-2314.22
-2003.59
-1714.26
-1450.21
-1214.17
-1007.3
-829.28
-678.695
-553.199
-450.143
-366.624
-299.628
-245.958
-202.6
-167.293
-138.31
-114.144
-94.4741
-79.4424
-67.9236
-58.7597
-51.1507
-44.6157
-38.904
-33.8893
-29.4838
-25.6031
-22.1717
-19.1344
-16.4589
-14.1275
-12.1258
-10.4357
-9.0319
-7.88384
-6.95812
-6.22116
-5.64087
-5.18775
-4.83547
-4.5612
-4.34564
-4.17286
-4.02982
-3.90587
-3.79213
-3.68096
-3.56564
-3.44022
-3.29954
-3.13937
-2.95641
-2.74846
-2.51436
-2.25412
-1.96885
-1.66062
-1.33222
-0.986628
-0.62653
-0.268779
8692.86
8554.87
8318.13
7919.56
7327.61
6603.23
5824.23
5082.97
4445.73
3923.01
3477.97
3067.44
2675.77
2312.49
1989.84
1709.4
1464.54
1248.1
1056
887.02
740.83
616.25
511.083
422.903
349.383
288.317
238.363
197.851
165.162
138.943
118.224
102.219
89.9521
80.2264
71.8328
63.8457
56.3186
49.6804
43.7735
38.3491
33.2122
28.2182
23.2326
18.1972
13.1949
8.41171
4.05689
0.285033
-2.8327
-5.30049
-7.17328
-8.53094
-9.45969
-10.0419
-10.3515
-10.4522
-10.3974
-10.2305
-9.98565
-9.68878
-9.35906
-9.01008
-8.65104
-8.28766
-7.92297
-7.5579
-7.19184
-6.82319
-6.45003
-6.07054
-5.68336
-5.28771
-4.88325
-4.47
-4.04819
-3.61831
-3.181
-2.73701
-2.28725
-1.84713
2901.56
3016.12
3234.91
3523.74
3854.73
4206.87
4615.74
5089.48
5587.11
6046.57
6410.89
6640.7
6712.67
6615.07
6347.44
5926.29
5385.89
4776.42
4151.26
3553.11
3006.66
2520.8
2094.64
1722.88
1399.92
1121.77
886.376
690.778
530.922
401.424
297.554
215.32
151.268
102.34
65.8826
39.4958
21.152
8.81934
0.791792
-4.55771
-8.08305
-10.4115
-12.0825
-13.4167
-14.5373
-15.4759
-16.2372
-16.821
-17.2335
-17.487
-17.5977
-17.5835
-17.4617
-17.2489
-16.96
-16.608
-16.2039
-15.7568
-15.2745
-14.7635
-14.2292
-13.6764
-13.1093
-12.5318
-11.9473
-11.359
-10.7696
-10.1815
-9.59627
-9.01487
-8.43778
-7.86506
-7.29652
-6.73183
-6.17066
-5.61273
-5.05777
-4.50557
-3.95608
-3.4214
4898.91
4716.2
4511.23
4272.15
3951.22
3528.43
2993.59
2365.1
1678.72
970.884
268.755
-413.966
-1069.65
-1677.24
-2181.28
-2507.64
-2616.67
-2544.03
-2368.89
-2161.49
-1951.77
-1742.57
-1530.41
-1317.02
-1111.11
-923.784
-763.028
-628.345
-516.325
-422.066
-341.846
-273.626
-216.237
-168.891
-130.864
-101.283
-78.8615
-62.3438
-50.668
-42.4118
-36.7605
-33.083
-30.7591
-29.3269
-28.4668
-27.9581
-27.6475
-27.4278
-27.222
-26.9776
-26.6608
-26.2531
-25.7488
-25.1511
-24.4698
-23.7182
-22.911
-22.0631
-21.1881
-20.2977
-19.4018
-18.5079
-17.6218
-16.7475
-15.8878
-15.0443
-14.2181
-13.4097
-12.6192
-11.8463
-11.0904
-10.3509
-9.62682
-8.91739
-8.22169
-7.53885
-6.86794
-6.20817
-5.55853
-4.92734
-14385.3
-13667.1
-12738.6
-11714.8
-10571.3
-9466.44
-8460.49
-7571.52
-6787.18
-6090.01
-5466.65
-4901.15
-4372.53
-3868.68
-3402.47
-3006.59
-2706.65
-2498.85
-2353.96
-2239.1
-2131.83
-2019.1
-1892.76
-1749.13
-1589.47
-1418.28
-1241.46
-1066.92
-901.849
-751.422
-618.365
-503.641
-407.012
-327.023
-261.793
-209.282
-167.726
-135.365
-110.305
-91.0496
-76.4086
-65.3889
-57.1716
-51.0858
-46.5888
-43.2491
-40.7304
-38.7761
-37.1953
-35.8492
-34.6392
-33.4993
-32.3869
-31.2768
-30.1565
-29.0225
-27.8772
-26.7263
-25.5776
-24.4386
-23.316
-22.2146
-21.1372
-20.0852
-19.0586
-18.0571
-17.0798
-16.1263
-15.1961
-14.2885
-13.4033
-12.5396
-11.6967
-10.8737
-10.0697
-9.28366
-8.51447
-7.76125
-7.02237
-6.30263
1905.73
1771.2
1540.19
1212.44
837.566
506.61
252.715
70.308
-56.4649
-140.943
-192.537
-218.088
-222.843
-213.892
-201.184
-192.603
-184.936
-163.629
-116.247
-46.8081
24.7058
76.5251
98.202
91.7468
65.3603
28.5332
-10.1575
-44.4135
-71.4827
-90.8167
-102.811
-108.552
-109.471
-107.399
-103.831
-99.723
-95.4631
-91.0912
-86.5741
-81.932
-77.2466
-72.6276
-68.1787
-63.9795
-60.0784
-56.4953
-53.2276
-50.2575
-47.5579
-45.0969
-42.8413
-40.7597
-38.8215
-37.0014
-35.2786
-33.637
-32.0653
-30.5564
-29.1062
-27.7125
-26.3737
-25.0878
-23.8515
-22.6612
-21.5125
-20.4013
-19.3237
-18.2766
-17.2576
-16.2648
-15.2964
-14.3513
-13.4283
-12.5262
-11.6441
-10.7811
-9.93634
-9.10897
-8.29702
-7.50262
6310.71
6222.99
6131.51
6033.39
5906.03
5758.91
5583.72
5361.37
5077.15
4733.26
4345.47
3932.79
3512.65
3100.83
2710.42
2349.01
2017.26
1711.11
1427.56
1166.48
932.235
729.232
557.927
415.739
298.98
204.075
127.941
68.0903
22.9337
-8.41775
-26.7147
-33.519
-32.0048
-27.025
-23.7302
-25.2295
-31.3767
-39.8519
-48.1571
-54.7667
-59.1742
-61.4908
-62.0895
-61.4003
-59.8177
-57.6655
-55.1931
-52.5821
-49.9585
-47.4044
-44.9682
-42.6738
-40.5284
-38.5281
-36.663
-34.9206
-33.2881
-31.7532
-30.3056
-28.9369
-27.6357
-26.3947
-25.2049
-24.0578
-22.9459
-21.8627
-20.803
-19.7634
-18.7414
-17.7355
-16.745
-15.7697
-14.8094
-13.8642
-12.9342
-12.0196
-11.1206
-10.237
-9.36691
-8.51075
-1094.39
-1106.41
-1120.56
-1127.89
-1139.86
-1164.27
-1213.54
-1295.96
-1406.19
-1522.35
-1617.77
-1681.18
-1725.54
-1774.32
-1838.81
-1910.33
-1971.96
-2011.85
-2025.87
-2011.37
-1968.57
-1898.93
-1804.86
-1691.4
-1563.59
-1425.95
-1282.62
-1137.34
-993.308
-853.007
-718.547
-592.256
-477.212
-376.992
-294.59
-231.121
-185.052
-152.671
-129.546
-112.027
-97.8451
-85.8955
-75.7307
-67.1616
-60.049
-54.2374
-49.5518
-45.8084
-42.8282
-40.4469
-38.5211
-36.9298
-35.5757
-34.3827
-33.2943
-32.2704
-31.2842
-30.3189
-29.365
-28.4169
-27.4711
-26.5252
-25.5769
-24.6243
-23.6659
-22.701
-21.7299
-20.7535
-19.7737
-18.7923
-17.8117
-16.8339
-15.8611
-14.8951
-13.9375
-12.9899
-12.0536
-11.129
-10.2147
-9.31057
-6223.37
-6030.87
-5806.74
-5560.07
-5296.96
-4996.06
-4639.77
-4244.17
-3847.72
-3478.25
-3144.57
-2849
-2596.18
-2389.64
-2225.32
-2091.58
-1974.69
-1862.43
-1744.4
-1613.66
-1469.87
-1319.31
-1170.43
-1028.74
-897.123
-776.715
-667.647
-569.846
-482.347
-402.726
-328.664
-259.372
-195.755
-138.75
-88.4072
-45.6411
-13.0037
7.83362
18.1482
20.4151
17.8696
12.9136
7.07999
0.956388
-4.94592
-10.2965
-14.9255
-18.775
-21.8644
-24.2597
-26.0496
-27.3284
-28.1859
-28.7012
-28.9417
-28.9627
-28.8085
-28.5141
-28.1063
-27.6056
-27.0268
-26.3812
-25.677
-24.9211
-24.1193
-23.2771
-22.3998
-21.4929
-20.5616
-19.6113
-18.6469
-17.6728
-16.6931
-15.7117
-14.7317
-13.756
-12.7871
-11.826
-10.8716
-9.92538
7763.1
7510.01
7171.01
6707.47
6072.04
5344.78
4573.43
3794.4
3031.14
2292.57
1580.34
896.19
252.023
-324.697
-798.074
-1140.87
-1349.21
-1442.47
-1451.12
-1404.27
-1321.7
-1214.72
-1091.24
-959.037
-825.764
-698.193
-581.954
-480.467
-395.661
-327.739
-275.399
-236.444
-208.564
-189.804
-178.445
-172.751
-171.003
-171.704
-173.699
-176.166
-178.531
-180.409
-181.569
-181.84
-180.792
-178.584
-175.309
-171.067
-166.003
-160.3
-154.173
-147.852
-141.562
-135.498
-129.808
-124.582
-119.853
-115.61
-111.812
-108.396
-105.294
-102.434
-99.7523
-97.1905
-94.7177
-92.2887
-89.8802
-87.4763
-85.0669
-82.6462
-80.2113
-77.762
-75.2998
-72.8274
-70.3486
-67.8681
-65.3907
-62.9147
-60.4502
-57.9863
-13069.1
-12666
-12145.5
-11510.5
-10723.8
-9831.71
-8870.87
-7887.14
-6922.23
-6008.56
-5170.3
-4423.33
-3772.84
-3212.58
-2729.05
-2309.2
-1945.21
-1634.8
-1375.95
-1163.91
-991.225
-850.163
-734.84
-642.052
-570.17
-517.823
-481.967
-457.88
-439.693
-423.786
-408.334
-392.309
-374.833
-355.418
-334.471
-313.086
-292.496
-273.43
-256.241
-241.03
-227.721
-216.124
-205.96
-196.95
-189.051
-181.856
-175.125
-168.692
-162.443
-156.312
-150.277
-144.347
-138.559
-132.958
-127.59
-122.493
-117.69
-113.192
-108.995
-105.086
-101.44
-98.0305
-94.8266
-91.8001
-88.9097
-86.1413
-83.4716
-80.8807
-78.3518
-75.8717
-73.4294
-71.0171
-68.6288
-66.2607
-63.9107
-61.5784
-59.2641
-56.9631
-54.6806
-52.4199
1672.39
1638.59
1609.23
1591.14
1596.84
1618.29
1636
1623.47
1557.89
1429.05
1241.52
1013.11
768.582
531.531
317.944
134.124
-21.3164
-153.998
-270.779
-375.661
-469.899
-552.485
-620.301
-669.606
-698.146
-704.343
-685.593
-640.429
-574.026
-499.262
-431.204
-377.463
-337.686
-308.059
-285.371
-267.675
-253.567
-241.975
-231.838
-222.58
-213.912
-205.726
-198.002
-190.75
-184.043
-177.752
-171.778
-165.995
-160.281
-154.552
-148.772
-142.952
-137.13
-131.358
-125.691
-120.177
-114.854
-109.745
-104.875
-100.26
-95.9131
-91.8406
-88.0392
-84.4981
-81.1992
-78.12
-75.2349
-72.5175
-69.9422
-67.4854
-65.1259
-62.8459
-60.6305
-58.4676
-56.3478
-54.2641
-52.2111
-50.181
-48.1724
-46.1752
10278.7
10164.2
9991.57
9690.82
9262.41
8720.45
8094.28
7412.28
6701.46
5987.76
5292.74
4629.45
4004.3
3421.41
2885.88
2403.53
1978.29
1610.54
1297.69
1034.82
816.514
637.264
490.64
369.581
267.83
180.31
103.021
32.8732
-32.0474
-91.7786
-144.465
-187.663
-220.017
-241.752
-253.922
-258.397
-256.815
-250.726
-241.786
-231.216
-219.971
-208.767
-198.074
-188.14
-179.002
-170.749
-163.366
-156.79
-150.907
-145.548
-140.513
-135.603
-130.653
-125.554
-120.273
-114.858
-109.378
-103.745
-98.1733
-92.7745
-87.6362
-82.8296
-78.3996
-74.3637
-70.7146
-67.4259
-64.4592
-61.7709
-59.3168
-57.0557
-54.9511
-52.9716
-51.0912
-49.2881
-47.5449
-45.8471
-44.1832
-42.5407
-40.9132
-39.3178
-12271.7
-11989.9
-11637
-11229.1
-10739.7
-10202
-9614.11
-8972.57
-8278.28
-7539
-6770.19
-5993.53
-5233.41
-4512.32
-3847.02
-3247.26
-2716.5
-2253.62
-1854.92
-1515.64
-1231.02
-996.734
-808.645
-662.92
-554.913
-478.931
-428.515
-397.074
-378.544
-367.759
-360.529
-353.753
-345.439
-334.547
-321.033
-304.783
-286.249
-266.152
-245.376
-224.858
-205.477
-188.025
-173.166
-161.278
-152.386
-146.32
-142.606
-140.443
-138.866
-136.979
-134.196
-130.317
-125.414
-119.659
-113.26
-106.881
-100.59
-94.385
-88.1681
-82.0201
-76.0928
-70.5362
-65.4817
-61.0059
-57.1225
-53.7951
-50.9536
-48.5206
-46.4196
-44.5818
-42.9489
-41.4728
-40.1146
-38.8428
-37.6321
-36.4619
-35.3154
-34.1775
-33.0387
-31.9153
-5363.13
-5273.81
-5156.51
-5016.94
-4846.27
-4670.88
-4498.26
-4330.33
-4164.51
-3996.06
-3820.8
-3636.59
-3443.63
-3244.21
-3042.08
-2841.34
-2645.49
-2456.46
-2274.06
-2096.12
-1919.47
-1741.39
-1561.13
-1380.68
-1203.8
-1035.46
-880.982
-744.398
-627.762
-531.355
-453.731
-392.169
-343.419
-304.352
-272.315
-244.738
-219.509
-195.687
-173.129
-152.148
-133.353
-117.334
-104.44
-94.9881
-89.0408
-86.5375
-87.2363
-90.5849
-95.7154
-101.564
-107.078
-111.431
-114.12
-114.919
-113.843
-110.485
-104.729
-97.2662
-88.4395
-78.6594
-69.1019
-60.2156
-52.5033
-46.2066
-41.2926
-37.5682
-34.7894
-32.7288
-31.1985
-30.0507
-29.1712
-28.4729
-27.8905
-27.375
-26.8904
-26.4104
-25.9153
-25.3902
-24.8272
-24.2444
11974
11843.9
11669.3
11391
10994.1
10521.3
9999.12
9444.44
8869.67
8284.03
7695.01
7108.43
6528.59
5958.75
5401.45
4858.41
4330.53
3818.26
3323.37
2848.39
2397.41
1975.31
1587.38
1238.54
932.408
670.428
452.034
274.95
135.796
30.3328
-46.0957
-98.0926
-130.21
-146.746
-151.509
-148.108
-139.654
-128.352
-115.821
-103.24
-91.4408
-81.0784
-72.5968
-66.3114
-62.5221
-61.3416
-62.6371
-65.9663
-70.5111
-75.1427
-78.6801
-80.2243
-79.3683
-76.1626
-70.9267
-63.9958
-55.8767
-46.7054
-37.025
-27.6301
-19.3096
-12.7429
-8.21935
-5.68921
-4.83234
-5.18949
-6.29775
-7.77808
-9.36316
-10.8865
-12.2575
-13.4368
-14.4156
-15.2012
-15.8086
-16.2544
-16.5542
-16.7221
-16.7721
-16.7418
1739.95
1962.44
2279.87
2625.7
2982.63
3292.54
3530.29
3670.72
3700
3622.71
3456.75
3225.87
2953.77
2661.45
2365.79
2080.09
1817.04
1589.26
1406.68
1274.12
1189.34
1144.52
1127.12
1121.06
1109.19
1076.89
1015.88
926.108
814.591
692.275
570.304
457.28
358.272
274.715
206.403
152.232
110.436
78.8757
55.3959
37.9987
25.0685
15.3949
8.01593
2.42451
-1.5795
-4.09287
-5.18413
-4.91157
-3.36484
-0.714552
2.78091
6.80076
11.01
15.1082
18.8505
22.0421
24.5106
26.1014
26.6908
26.2344
24.7546
22.5106
19.7906
16.8726
13.9483
11.1244
8.44061
5.91363
3.5551
1.377
-0.609606
-2.39687
-3.98143
-5.36462
-6.55188
-7.55165
-8.37429
-9.03145
-9.53662
-9.93432
-5611.34
-5688.94
-5828.72
-6001.13
-6199.56
-6393.9
-6566.6
-6690.78
-6733.16
-6670.05
-6503.56
-6263.25
-5989.11
-5710.64
-5440.43
-5183.15
-4941
-4703.62
-4442.31
-4124.12
-3736.76
-3287.92
-2792.58
-2269.98
-1745.77
-1249.37
-807.981
-440.358
-153.778
55.9497
199.586
290.116
340.204
361.567
363.326
351.986
332.175
307.049
278.768
248.941
218.92
189.91
162.855
138.516
117.422
99.8365
85.7659
74.9753
67.0214
61.3191
57.2304
54.1646
51.6675
49.4732
47.4968
45.7654
44.3144
43.0948
41.9464
40.6404
38.9647
36.8103
34.1927
31.2143
28.0037
24.6773
21.3567
18.127
15.0516
12.1751
9.52581
7.11858
4.95829
3.04218
1.36213
-0.0934348
-1.33816
-2.38737
-3.25793
-3.99773
-14281.7
-13869.4
-13368.2
-12756.7
-11997.6
-11066.1
-9965.1
-8725.37
-7386.73
-6002.14
-4653.27
-3434.08
-2412.85
-1610.37
-1009.6
-575.121
-268.046
-58.8106
70.9118
129.471
126.5
76.2977
-4.39017
-98.0662
-187.379
-257.514
-298.472
-306.369
-283.554
-237.136
-175.532
-107.463
-40.5666
19.6535
69.9252
108.998
137.025
155.054
164.601
167.337
164.967
159.044
150.861
141.481
131.736
122.234
113.381
105.407
98.3943
92.3086
87.0387
82.4326
78.3299
74.5857
71.0839
67.7397
64.4901
61.2816
58.0604
54.7737
51.3801
47.8614
44.2292
40.5206
36.7942
33.1135
29.5174
26.0511
22.7528
19.6517
16.7693
14.1185
11.7055
9.5302
7.58749
5.86859
4.36218
3.05395
1.92765
0.941712
18894.5
18390.5
17748.1
16825
15374.1
13623
11834.8
10230.8
8878.18
7728.74
6716.65
5808.76
5000.51
4295.62
3698.12
3211.69
2831.98
2539.31
2302.59
2097.79
1915.57
1756.01
1620.03
1506.49
1412.42
1331.53
1255.79
1176.99
1088.7
987.698
875.688
759.709
648.956
550.313
466.632
397.696
341.882
296.933
260.794
231.603
207.78
188.104
171.622
157.623
145.594
135.163
126.056
118.063
111.012
104.754
99.1532
94.0859
89.4393
85.1124
81.0165
77.0759
73.2279
69.4221
65.6208
61.7989
57.9446
54.0591
50.1555
46.2573
42.3962
38.6073
34.9253
31.3826
28.0076
24.8237
21.8486
19.0938
16.5656
14.265
12.1887
10.33
8.67938
7.22324
5.94672
4.81514
4476.98
4933.91
5519.74
6085.31
6686.93
7357.47
8023.89
8536.73
8793.15
8747.34
8403.38
7816.42
7079.98
6291.59
5522.13
4808.13
4162
3584.28
3074.54
2632.76
2260.08
1958.46
1727.65
1561.7
1447.38
1362.42
1278.28
1165.92
1012.81
839.613
686.043
574.664
498.162
439.157
387.271
340.586
299.598
264.446
234.487
209.037
187.556
169.576
154.637
142.282
132.063
123.566
116.425
110.333
105.033
100.324
96.0436
92.0669
88.2971
84.6589
81.0947
77.5599
74.0203
70.452
66.8402
63.1786
59.4703
55.7267
51.9668
48.2153
44.5012
40.8552
37.3077
33.8874
30.6197
27.5258
24.6219
21.9203
19.4275
17.1463
15.0752
13.2098
11.5426
10.0616
8.75564
7.59349
-1689.46
-1840.57
-2090.02
-2450.35
-2949.6
-3495.55
-4000.72
-4371.05
-4501.23
-4323.62
-3888.63
-3349.72
-2846.59
-2430
-2092.5
-1823.61
-1619.87
-1468.25
-1340.38
-1205.72
-1048.64
-874.995
-704.231
-554.335
-433.248
-338.27
-263.987
-205.781
-157.562
-111.803
-64.4768
-18.9821
17.7608
42.4687
57.2234
66.204
72.6899
78.3069
83.5112
88.1988
92.1193
95.0778
96.9979
97.914
97.933
97.1989
95.865
94.0741
91.948
89.5834
87.0516
84.4019
81.6633
78.8494
75.9663
73.0148
69.9927
66.896
63.7229
60.4767
57.1655
53.804
50.4125
47.0157
43.6413
40.3183
37.0753
33.9391
30.9333
28.0778
25.3885
22.8768
20.55
18.412
16.463
14.7007
13.1201
11.7125
10.4731
9.37055
-10847.6
-10403.8
-9852.72
-9200
-8364.24
-7334.58
-6118.77
-4820.88
-3624.93
-2713.66
-2167.02
-1931.48
-1890.99
-1948.85
-2050.43
-2167.99
-2281.31
-2370.24
-2415.06
-2398.93
-2310.65
-2150.23
-1934.02
-1689.43
-1442.19
-1209.15
-998.355
-812.052
-649.555
-509.089
-388.92
-287.62
-203.729
-135.436
-80.6735
-37.3573
-3.54678
22.4777
42.1852
56.8158
67.4053
74.8029
79.699
82.6497
84.1
84.4056
83.8502
82.6602
81.015
79.0542
76.8827
74.5757
72.1875
69.7513
67.2901
64.7946
62.2575
59.6699
57.0237
54.3148
51.5453
48.7241
45.8666
42.9933
40.1284
37.2972
34.5247
31.8343
29.2466
26.779
24.445
22.2549
20.2158
18.332
16.6054
15.0361
13.6226
12.3609
11.2534
10.2699
9151.15
8895.99
8599.51
8266.68
7836.1
7417.02
7014.04
6608.08
6173.61
5682.46
5123.77
4499.97
3828.18
3149.51
2521.89
1994.79
1586.13
1279.79
1038.03
815.846
583.34
349.811
153.133
18.6456
-58.0964
-95.5454
-108.24
-103.33
-84.9888
-57.3856
-25.0031
8.05839
38.6913
64.9734
86.0139
101.679
112.326
118.585
121.202
120.937
118.497
114.508
109.497
103.892
98.0264
92.1531
86.4556
81.0609
76.0509
71.4708
67.3293
63.6116
60.363
57.4765
54.8881
52.5453
50.3811
48.3298
46.3333
44.3454
42.3351
40.287
38.1997
36.0829
33.953
31.83
29.7339
27.6838
25.6962
23.7849
21.9611
20.2336
18.6089
17.0922
15.6873
14.397
13.2235
12.1682
11.2392
10.4135
5641.41
5559.71
5483.36
5428.21
5373.26
5330.75
5293.11
5229.1
5093.83
4884.4
4659.71
4492.36
4409.78
4379
4335.06
4232.69
4069.23
3870.24
3662.05
3456.44
3249.8
3030.9
2791.81
2533.87
2265.27
1997.63
1740.65
1500.65
1281.61
1086.18
915.729
769.961
647.113
544.541
459.33
388.688
330.13
281.52
241.055
207.227
178.788
154.716
134.196
116.587
101.403
88.2782
76.9462
67.2094
58.9205
51.9644
46.2452
41.6524
38.0225
35.2928
33.3175
31.9373
30.9878
30.3088
29.7571
29.2171
28.6079
27.8852
27.0363
26.0713
25.0127
23.8881
22.7227
21.5382
20.352
19.1773
18.025
16.9043
15.8229
14.7883
13.8071
12.8855
12.0294
11.2444
10.5421
9.90955
-8446.14
-8236.08
-7961.78
-7628.99
-7235.77
-6813.38
-6356.36
-5866.67
-5371.28
-4894.56
-4426.2
-3926.29
-3364.09
-2748.71
-2116.8
-1508.54
-957.631
-487.877
-109.296
181.953
398.605
555.531
663.92
730.187
757.545
749.082
711.455
654.918
590.402
525.864
465.217
409.694
359.52
314.614
274.666
239.161
207.499
179.114
153.533
130.408
109.499
90.6438
73.7247
58.6465
45.3278
33.6998
23.7071
15.3066
8.4627
3.14402
-0.645612
-2.99993
-4.0484
-3.93624
-2.85167
-1.02454
1.28569
3.81051
6.29992
8.54969
10.4246
11.8656
12.8825
13.5305
13.8841
14.016
13.9853
13.835
13.5939
13.2815
12.9119
12.4973
12.0495
11.58
11.1001
10.6199
10.1484
9.69393
9.26924
8.86763
-1825.54
-1953.68
-2146.66
-2392.18
-2724.73
-3107.59
-3499.47
-3838.71
-4080.6
-4225.59
-4303.96
-4338.68
-4331.37
-4272.95
-4156.41
-3979.75
-3745.39
-3460.34
-3135.52
-2783.86
-2418.72
-2052.73
-1696.9
-1360.09
-1049.63
-772.577
-536.649
-347.976
-207.99
-111.707
-50.0318
-12.723
8.49781
19.0753
22.4218
20.9296
16.4743
10.4811
3.8844
-2.8336
-9.52488
-16.2116
-22.9432
-29.7034
-36.3804
-42.776
-48.6207
-53.5941
-57.3869
-59.8369
-60.9018
-60.334
-58.0787
-54.202
-48.8953
-42.4799
-35.3897
-28.1194
-21.1385
-14.8769
-9.56758
-5.29095
-1.97931
0.52812
2.41855
3.85772
4.96959
5.83729
6.51349
7.03189
7.41607
7.68514
7.85646
7.94631
7.96949
7.93848
7.86346
7.7536
7.62248
7.46504
7911.72
7886.01
7866.72
7824.1
7743.5
7606.2
7389.08
7079.13
6681.9
6216.32
5700.54
5146.57
4564.07
3962.91
3353.9
2748.49
2158.24
1594.4
1067.6
587.4
161.749
-204.037
-507.336
-746.418
-919.081
-1023.28
-1059.63
-1034.48
-960.569
-854.755
-734.521
-614.757
-505.55
-411.591
-333.532
-270.302
-220.635
-183.274
-156.665
-138.956
-128.216
-122.646
-120.73
-121.234
-123.167
-125.722
-128.229
-130.12
-130.902
-130.12
-127.408
-122.557
-115.545
-106.382
-95.352
-82.9789
-69.9826
-57.1834
-45.3487
-35.0374
-26.4997
-19.6908
-14.3731
-10.2409
-7.00948
-4.45419
-2.41051
-0.757652
0.595018
1.71451
2.64844
3.42989
4.08208
4.6216
5.06001
5.40478
5.66091
5.83445
5.93678
5.94656
-1947.39
-1843.3
-1709.68
-1550.81
-1344.42
-1102.41
-827.917
-529.996
-220.397
91.2664
397.327
690.635
964.029
1210.18
1422.14
1593.65
1719.1
1793.79
1814.53
1780.38
1692.48
1555.26
1375.95
1164.35
932.969
696.747
470.612
266.992
93.9496
-45.8809
-154.733
-237.615
-299.67
-344.324
-372.954
-385.886
-383.919
-369.314
-345.772
-317.549
-288.447
-261.224
-237.486
-217.865
-202.277
-190.169
-180.719
-173.011
-166.116
-158.846
-150.892
-141.77
-131.16
-119.033
-105.638
-91.4761
-77.2367
-63.7041
-51.6013
-41.3837
-33.0734
-26.3281
-20.7404
-16.0736
-12.2474
-9.19727
-6.79845
-4.88791
-3.31496
-1.96873
-0.780079
0.287857
1.25027
2.10921
2.85969
3.49406
4.00617
4.39422
4.65311
4.70757
-53.3034
-46.6628
-40.5867
-35.0645
-30.1042
-25.7037
-21.8451
-18.4988
-15.6195
-13.1514
-11.0346
-9.21722
-7.64414
-6.26614
-5.04154
-3.93686
-2.92677
-1.99363
-1.127
-0.322593
0.418236
1.08965
1.68276
2.18702
2.59219
2.89001
3.07553
3.14867
3.11518
2.9872
2.7913
2.54319
2.27643
2.00999
1.76366
1.55346
1.38839
1.27045
1.19591
1.15736
1.14556
1.15112
1.16613
1.18512
1.20423
1.21849
1.21969
1.19755
1.14404
1.05657
0.936258
0.7831
0.593284
0.360007
0.0760441
-0.263633
-0.659773
-1.10744
-1.59517
-2.10436
-2.60915
-3.07815
-3.4802
-3.79307
-4.0098
-4.13775
-4.19122
-4.18427
-4.12713
-4.02582
-3.88428
-3.70625
-3.49637
-3.26026
-3.00422
-2.73466
-2.4577
-2.17876
-1.90248
-1.63263
-1.37216
-1.12332
-0.887788
-0.666721
-0.460916
-0.270877
-0.096897
0.0608869
0.202437
0.327779
0.436969
0.530058
0.607061
0.667924
0.712525
0.740701
0.75232
0.747365
0.726027
0.688732
0.636063
0.568577
0.48663
0.390386
0.280147
0.156924
0.0229687
-0.118103
-0.261735
-0.403214
-0.538372
-0.66391
-0.7773
-0.87649
-0.959634
-1.02495
-1.07075
-1.09562
-1.09851
-1.07893
-1.037
-0.973552
-0.890036
-0.788502
-0.671459
-0.541736
-0.402326
-0.256231
-0.106332
0.0447098
0.194529
0.3411
0.482757
0.618175
0.74633
0.866437
0.977889
1.0802
1.17299
1.2559
1.32861
1.39075
1.44194
1.48168
1.50942
1.52448
1.52604
1.51311
1.48447
1.43869
1.37405
1.2886
1.18021
1.04657
0.88532
0.694163
0.470965
0.213902
-0.0784198
-0.406843
-0.771528
-1.17183
-1.60618
-2.07197
-2.56554
-3.08212
-3.61594
-4.16029
-4.70767
-5.24999
-5.77867
-6.28493
-6.75992
-7.19503
-7.58203
-7.91339
-8.18246
-8.38363
-8.51259
-8.56635
-8.54345
-8.4441
-8.2698
-8.02356
-7.70977
-7.33403
-6.90304
-6.42434
-5.90613
-5.35709
-4.78614
-4.20225
-3.61439
-3.03097
-2.46104
-1.91031
-1.39255
-0.897361
-0.480793
-0.0213955
-48.1944
-42.1578
-36.624
-31.5747
-27.0171
-22.9642
-19.4078
-16.3269
-13.6846
-11.4334
-9.5212
-7.89715
-6.50992
-5.3111
-4.25772
-3.31382
-2.45117
-1.64933
-0.895605
-0.184583
0.482494
1.09871
1.6528
2.13086
2.5185
2.80268