/*--------------------------------*- C++ -*----------------------------------*\
| =========                 |                                                 |
| \\      /  F ield         | OpenFOAM: The Open Source CFD Toolbox           |
|  \\    /   O peration     | Version:  2012                                  |
|   \\  /    A nd           | Website:  www.openfoam.com                      |
|    \\/     M anipulation  |                                                 |
\*---------------------------------------------------------------------------*/
FoamFile
{
    version     2.0;
    format      ascii;
    class       surfaceScalarField;
    location    "0.4";
    object      phi;
}
// * * * * * * * * * * * * * * * * * * * * * * * * * * * * * * * * * * * * * //

dimensions      [0 3 -1 0 0 0 0];
oriented        oriented;


internalField   nonuniform List<scalar> 
84340
(
-0.000135575
3.40764e-05
0.000101499
-0.000708123
0.000229965
0.000342582
-0.00166701
0.000417825
0.000541062
-0.00270558
0.000417714
0.000620854
-0.00352284
0.000186962
0.000630297
-0.00400456
-0.000170383
0.00065211
-0.00419006
-0.000512184
0.000697684
-0.00417731
-0.000751788
0.000739031
-0.00404878
-0.000880401
0.000751871
-0.00384904
-0.00092798
0.000728238
-0.00359555
-0.000924075
0.000670592
-0.00329536
-0.000884366
0.000584173
-0.00295809
-0.000815611
0.000478339
-0.00259455
-0.000724155
0.000360614
-0.00221101
-0.000619629
0.000236095
-0.00181809
-0.000503686
0.000110759
-0.00141229
-0.000394124
-1.16726e-05
-0.000980229
-0.000300317
-0.000131744
-0.000492802
-0.000232247
-0.00025518
6.36657e-05
-0.000174866
-0.000381602
0.000700829
-0.000108107
-0.000529056
0.00141154
-1.46093e-05
-0.0006961
0.00217078
0.000112065
-0.000871305
0.00294193
0.000265136
-0.00103629
0.00368057
0.000428437
-0.00116707
0.00434202
0.000583668
-0.00124512
0.00488927
0.000717507
-0.00126475
0.00529954
0.000822395
-0.00123266
0.00556691
0.000896334
-0.00116371
0.0057003
0.000941264
-0.00107466
0.00571772
0.000961241
-0.000978653
0.00563932
0.000961306
-0.000882909
0.00548274
0.000947003
-0.000790421
0.00526245
0.000923629
-0.000703339
0.00499186
0.000894833
-0.000624241
0.00468551
0.000861759
-0.000555414
0.00436031
0.000823825
-0.000498624
0.00403419
0.00078038
-0.000454265
0.00372394
0.000731787
-0.000421534
0.00344297
0.000679455
-0.000398489
0.0031999
0.000625258
-0.000382182
0.00299809
0.000570803
-0.000368995
0.00283629
0.000516824
-0.000355024
0.00270992
0.000462838
-0.000336462
0.00261252
0.000407119
-0.000309719
0.00253719
0.00034687
-0.000271543
0.00247735
0.000279211
-0.000219376
0.00242982
0.000199524
-0.00015199
0.00239552
0.000106831
-7.25255e-05
0.00236115
-4.70254e-06
3.90663e-05
0.00233181
-0.000131396
0.000160742
0.00230783
-0.000272214
0.000296192
0.00228772
-0.000421481
0.000441592
0.00226602
-0.000568345
0.000590041
0.00223046
-0.000695647
0.00073121
0.00216076
-0.000782095
0.000851787
0.00203368
-0.000811269
0.000938355
0.00183592
-0.000783954
0.000981712
0.00157706
-0.000720346
0.000979207
0.00128917
-0.000646841
0.000934728
0.00101237
-0.000582585
0.000859384
0.000778714
-0.000538261
0.000771922
0.000604461
-0.000520734
0.000694988
0.00049061
-0.000533856
0.000647707
0.000427469
-0.000576159
0.000639299
0.000400831
-0.000640888
0.000667526
0.000397554
-0.000718803
0.00072208
0.000408587
-0.000801098
0.000790064
0.000429131
-0.000880856
0.000860312
0.000457226
-0.000953246
0.000925151
0.000492179
-0.00101526
0.000980302
0.000533514
-0.00106545
0.00102412
0.000580489
-0.00110385
0.00105688
0.000631995
-0.00113183
0.00108032
0.000686599
-0.00115188
0.00109727
0.000742624
-0.0011673
0.00111127
0.000798189
-0.00118172
0.00112616
0.000851239
-0.00119853
0.00114548
0.000899644
-0.00122036
0.00117195
-0.00124906
0.00120788
0.000940825
-7.34337e-05
0.00010751
-0.000239851
0.000396383
-0.000370004
0.000547978
-0.000357211
0.000404921
-0.000202511
3.22624e-05
4.48154e-05
-0.000417709
0.000364113
-0.000831481
0.000757625
-0.0011453
0.00123416
-0.00135694
0.00179332
-0.00148713
0.00242494
-0.0015557
0.00311504
-0.00157446
0.00384656
-0.00154714
0.00459375
-0.00147134
0.00531542
-0.0013413
0.00596198
-0.00115025
0.00646405
-0.000896191
0.00675261
-0.000588876
0.00677527
-0.000254912
0.00653348
6.69261e-05
0.00608596
0.000339419
0.00552561
0.00054574
0.00494915
0.000688518
0.00443248
0.000781813
0.00401717
0.000843746
0.00371521
0.000885627
0.00351857
0.000914142
0.00340829
0.000932681
0.00336171
0.000942912
0.00335671
0.000946264
0.00337402
0.000943934
0.00339841
0.000936912
0.00341922
0.000926191
0.00343042
0.000912434
0.00342959
0.000895663
0.00341603
0.000875315
0.00338927
0.000850584
0.00334878
0.000820869
0.00329447
0.000786105
0.0032272
0.000746726
0.00314904
0.000703416
0.00306313
0.000656709
0.00297332
0.000606639
0.00288322
0.000552935
0.00279625
0.000494094
0.00271384
0.000429273
0.00264049
0.000352563
0.00257119
0.00026882
0.00250901
0.000169016
0.00243709
6.72175e-05
0.00235803
-5.23366e-05
0.00226722
-0.000181408
0.00215716
-0.000311417
0.00201801
-0.000429198
0.00184029
-0.000517927
0.00162045
-0.000562248
0.00136621
-0.000557033
0.00109688
-0.000514621
0.000838548
-0.000462014
0.000617013
-0.000425307
0.000450405
-0.000415977
0.000344488
-0.000432345
0.000292955
-0.000469201
0.000281983
-0.000522883
0.000296366
-0.000590541
0.000324256
-0.000668778
0.000358854
-0.000753401
0.000397597
-0.000839841
0.000440351
-0.000923611
0.000487775
-0.00100067
0.00054031
-0.00106779
0.000597762
-0.0011229
0.000659255
-0.00116535
0.000723366
-0.00119594
0.000788337
-0.00121685
0.000852297
-0.00123126
0.000913502
-0.00124293
0.000970612
-0.00125564
0.00102303
-0.00127278
-0.00129719
0.00107116
-7.16036e-05
0.000179114
0.000180653
0.000144126
0.000778166
-4.95341e-05
0.00141509
-0.000232
0.00180474
-0.000357386
0.00181478
-0.000427749
0.00142319
-0.000439894
0.000685416
-0.000407528
-0.00031617
-0.000355355
-0.0014969
-0.000306402
-0.00277752
-0.000275078
-0.00408305
-0.000268934
-0.00533927
-0.000290919
-0.00647262
-0.000337982
-0.00741604
-0.000397889
-0.00811227
-0.000454014
-0.00853822
-0.000470242
-0.00869883
-0.000428266
-0.00863078
-0.000322957
-0.00838949
-0.00017437
-0.00803165
-1.84173e-05
-0.007598
0.000112087
-0.00711045
0.000200965
-0.00657811
0.000249481
-0.00600382
0.000269456
-0.0053921
0.0002739
-0.00475098
0.000273023
-0.0040918
0.000273498
-0.00342679
0.000277908
-0.00276901
0.000288476
-0.00213019
0.000305121
-0.00151929
0.000326006
-0.000942703
0.000349608
-0.000404523
0.000374254
9.35927e-05
0.000397547
0.000551383
0.000417525
0.000969296
0.000432671
0.00134823
0.00044194
0.00168956
0.000444768
0.00199527
0.000441019
0.00226784
0.000430847
0.00251002
0.000414526
0.00272433
0.000392334
0.00291224
0.000365026
0.00307397
0.000332361
0.00320849
0.000294753
0.00330888
0.000252175
0.00337787
0.000199825
0.0034062
0.000140688
0.00340035
7.3067e-05
0.00335061
-2.5932e-06
0.00325287
-8.36757e-05
0.00310572
-0.000164265
0.00291174
-0.000235217
0.00268067
-0.000286861
0.00243152
-0.000313094
0.00218885
-0.000314366
0.00197232
-0.000298091
0.00178691
-0.000276597
0.00162495
-0.00026335
0.00147733
-0.000268355
0.00134031
-0.000295332
0.00121645
-0.000345337
0.00110937
-0.000415806
0.00102135
-0.000502524
0.000953275
-0.000600699
0.000905098
-0.000705224
0.000876159
-0.000810902
0.000865223
-0.000912675
0.000870513
-0.00100596
0.000889747
-0.00108702
0.000920247
-0.0011534
0.000959078
-0.00120418
0.00100321
-0.00124007
0.00104965
-0.00126329
0.00109562
-0.00127722
0.00113869
-0.001286
0.0011771
-0.00129405
0.00120992
-0.00130559
-0.00132424
0.00123697
0.000230823
-5.17087e-05
0.000411462
-3.65131e-05
0.000273426
8.85014e-05
-0.000151647
0.000193073
-0.000725534
0.000216501
-0.00130264
0.000149362
-0.00177023
2.76874e-05
-0.00210936
-6.83951e-05
-0.00239517
-6.9545e-05
-0.00271722
1.56527e-05
-0.00311379
0.000121488
-0.00358199
0.000199262
-0.00410746
0.000234557
-0.00466847
0.000223025
-0.00523667
0.000170311
-0.00578066
8.99737e-05
-0.00625433
3.43197e-06
-0.00661005
-7.2552e-05
-0.00680747
-0.000125536
-0.00682731
-0.000154525
-0.00667738
-0.000168345
-0.00638688
-0.000178413
-0.00599357
-0.000192349
-0.00553231
-0.000211778
-0.00502904
-0.000233817
-0.00450167
-0.000253466
-0.00395733
-0.000271317
-0.00340187
-0.000281961
-0.00283982
-0.000284139
-0.00227971
-0.000271636
-0.00172444
-0.000250148
-0.00117556
-0.000222875
-0.000632666
-0.000193288
-9.95754e-05
-0.000158837
0.00042217
-0.000124198
0.000931383
-9.16878e-05
0.00142704
-6.29828e-05
0.00190833
-3.93562e-05
0.00237476
-2.16577e-05
0.00282605
-1.02759e-05
0.00326215
-5.25275e-06
0.00368295
-6.26593e-06
0.00408561
-1.03297e-05
0.00447222
-2.15841e-05
0.00483944
-3.48549e-05
0.00518051
-4.63206e-05
0.0054877
-5.50107e-05
0.00574443
-5.69106e-05
0.00593308
-4.79565e-05
0.00604031
-3.41664e-05
0.00604443
-6.71509e-06
0.00592913
3.16251e-05
0.00569064
7.42306e-05
0.00533849
0.000116933
0.00489667
0.00015496
0.00439957
0.000184003
0.00388484
0.000200363
0.00338659
0.000200157
0.00293147
0.00017853
0.00253767
0.000130443
0.00221906
5.02576e-05
0.00195554
-3.18098e-05
0.00175109
-0.000140892
0.00159987
-0.000264583
0.00149265
-0.0003953
0.00142014
-0.000528194
0.00137415
-0.00065923
0.00134795
-0.000784706
0.00133631
-0.000901026
0.00133514
-0.00100479
0.00134129
-0.00109318
0.00135226
-0.00116437
0.00136609
-0.00121801
0.00138126
-0.00125524
0.00139652
-0.00127855
0.00141073
-0.00129143
0.00142279
-0.00129806
0.00143174
-0.00130301
0.001437
-0.00131086
-0.00132633
0.00143909
0.000104174
-0.000155883
0.000162874
-9.52124e-05
2.97656e-05
0.000221609
-0.000312787
0.000535625
-0.000860271
0.000763985
-0.00161937
0.000908465
-0.00256231
0.000970623
-0.00354737
0.000916668
-0.00431691
0.000699993
-0.00465956
0.000358303
-0.00457661
3.8542e-05
-0.00420673
-0.000170626
-0.00368989
-0.000282281
-0.00312614
-0.000340724
-0.00257881
-0.000377013
-0.00208286
-0.000405978
-0.00164879
-0.000430643
-0.00127403
-0.000447308
-0.000942359
-0.000457208
-0.000641444
-0.00045544
-0.000360922
-0.000448867
-9.92773e-05
-0.000440057
0.000137422
-0.000429048
0.00034255
-0.000416905
0.000511828
-0.000403096
0.000644295
-0.000385933
0.000737074
-0.000364096
0.000793608
-0.000338495
0.000821515
-0.000312046
0.000837586
-0.000287707
0.000854583
-0.000267145
0.000882123
-0.000250415
0.000924989
-0.000236154
0.000988497
-0.000222344
0.00107225
-0.000207948
0.00117343
-0.000192869
0.00128848
-0.000178038
0.00141398
-0.000164848
0.00154665
-0.000154335
0.00168332
-0.000146938
0.00182023
-0.000142171
0.00195286
-0.00013889
0.00207816
-0.000135632
0.00218711
-0.000130536
0.00227293
-0.000120666
0.00233132
-0.000104717
0.00236114
-8.48298e-05
0.00235268
-4.84478e-05
0.00231051
-5.79147e-06
0.00223264
4.37047e-05
0.00212831
9.76181e-05
0.00200839
0.000151543
0.00188249
0.000200126
0.00176113
0.000238297
0.00165426
0.000261834
0.0015706
0.000267661
0.00151691
0.000254053
0.00149683
0.000220242
0.00150911
0.000166246
0.00154532
9.42334e-05
0.00159285
2.72891e-06
0.00166163
-0.000100595
0.00173419
-0.000213449
0.00180204
-0.000332439
0.00186073
-0.000453987
0.00190756
-0.000575021
0.00194104
-0.000692706
0.00196058
-0.000804251
0.00196641
-0.000906861
0.00195947
-0.000997853
0.00194129
-0.00107499
0.00191389
-0.00113697
0.00187969
-0.00118381
0.00184137
-0.00121693
0.00180158
-0.00123876
0.00176246
-0.00125231
0.00172531
-0.0012609
0.00169053
-0.00126823
0.00165792
-0.00127825
-0.00129588
0.00162747
-0.000167199
1.13159e-05
-0.000215298
-4.71131e-05
-8.95679e-05
9.58791e-05
-4.26185e-05
0.000488676
-0.000227137
0.000948504
-0.000644979
0.00132631
-0.00120564
0.00153128
-0.0017743
0.00148533
-0.00220152
0.00112721
-0.00241807
0.000574849
-0.00244947
6.99486e-05
-0.00235576
-0.000264343
-0.0021864
-0.000451641
-0.00197443
-0.000552687
-0.00175371
-0.000597739
-0.00153638
-0.000623304
-0.00133118
-0.000635842
-0.00114029
-0.000638201
-0.000966771
-0.000630728
-0.000808813
-0.000613398
-0.000670103
-0.000587577
-0.000552654
-0.000557507
-0.000451921
-0.000529781
-0.000359819
-0.000509007
-0.000269451
-0.000493464
-0.000179046
-0.000476338
-9.06034e-05
-0.000452539
-5.52193e-06
-0.000423576
7.85088e-05
-0.000396077
0.000163649
-0.000372847
0.000247442
-0.000350938
0.000330036
-0.000333009
0.000408494
-0.000314612
0.000477085
-0.000290935
0.000529413
-0.000260276
0.000560288
-0.000223744
0.000566884
-0.000184634
0.000549148
-0.000147112
0.000509533
-0.00011472
0.000451991
-8.9396e-05
0.000381418
-7.15979e-05
0.000302799
-6.02711e-05
0.000219353
-5.21867e-05
0.000134666
-4.58491e-05
5.38906e-05
-3.98906e-05
-1.75546e-05
-3.32716e-05
-7.74799e-05
-2.49043e-05
-0.00011291
-1.30175e-05
-0.000121503
2.80165e-06
-9.96357e-05
2.1837e-05
-4.43313e-05
4.23137e-05
4.56121e-05
6.16e-05
0.000169169
7.65697e-05
0.000323402
8.40637e-05
0.000503908
8.13277e-05
0.000705234
6.63341e-05
0.000921133
3.8154e-05
0.001144
-2.62332e-06
0.00136991
-5.96617e-05
0.00159092
-0.000126782
0.00179765
-0.000203995
0.00198581
-0.000288757
0.00215086
-0.000378497
0.00228935
-0.000470929
0.00239915
-0.000563785
0.00247904
-0.000654917
0.00252869
-0.000742358
0.00254872
-0.000824276
0.00254078
-0.000898919
0.00250758
-0.000964659
0.00245283
-0.00102024
0.00238107
-0.00106521
0.00229757
-0.00110031
0.00220795
-0.00112731
0.00211765
-0.00114846
0.00203119
-0.00116585
0.00195166
-0.00118137
0.00188052
-0.0011971
0.00181788
-0.00121561
-0.00124095
0.00176295
0.000347308
-0.000335992
0.0010586
-0.000758401
0.0022051
-0.00105063
0.00372952
-0.00103574
0.00534536
-0.000667335
0.00685291
-0.000181246
0.00820529
0.000178905
0.00937701
0.000313609
0.0102224
0.000281842
0.0105973
0.000199937
0.0105344
0.000132866
0.0101787
9.13649e-05
0.00967136
5.56649e-05
0.0090808
3.78711e-05
0.00844034
4.27199e-05
0.00774122
7.58216e-05
0.00699769
0.000107683
0.00624114
0.000118355
0.00550433
0.000106082
0.00480845
8.24834e-05
0.00416175
5.91213e-05
0.00356093
4.33088e-05
0.00298624
4.4915e-05
0.00241375
6.34757e-05
0.00185264
6.76524e-05
0.00134526
3.10346e-05
0.000918478
-2.57521e-05
0.000561729
-6.68273e-05
0.000249441
-8.37891e-05
-3.45811e-05
-8.88249e-05
-0.000292016
-9.35026e-05
-0.000520435
-0.00010459
-0.000720871
-0.000114175
-0.000887621
-0.000124186
-0.00101558
-0.000132314
-0.00110069
-0.000138636
-0.0011441
-0.00014122
-0.00114899
-0.000142224
-0.00112129
-0.000142418
-0.00107021
-0.00014048
-0.00100261
-0.000139196
-0.000925088
-0.000137795
-0.000841394
-0.000135881
-0.000754013
-0.000133231
-0.000664131
-0.000129773
-0.000571844
-0.000125558
-0.00047604
-0.000120708
-0.0003735
-0.000115558
-0.000260064
-0.000110635
-0.000131472
-0.000106755
1.58277e-05
-0.000104986
0.000183903
-0.000106475
0.000373155
-0.000112683
0.000581794
-0.000124575
0.000806216
-0.000143095
0.00104144
-0.000168885
0.00128177
-0.000202181
0.00152202
-0.000242876
0.00175282
-0.000290462
0.00196986
-0.000343817
0.00216755
-0.000401691
0.00234145
-0.000462654
0.00248812
-0.000525168
0.00260495
-0.000587758
0.00269027
-0.000649111
0.00274347
-0.000708115
0.00276497
-0.000763856
0.00275624
-0.000815544
0.00271975
-0.000862433
0.00265898
-0.000903883
0.00257838
-0.000939644
0.00248339
-0.000970225
0.00238006
-0.000996976
0.0022744
-0.00102165
0.00217162
-0.00104568
0.00207559
-0.00106982
0.0019887
-0.00109447
0.00191195
-0.00112035
0.00184532
-0.00114897
-0.00118299
0.00178736
-0.00116473
0.000828735
-0.00335839
0.00143526
-0.00553723
0.00112822
-0.00717501
0.000602034
-0.00818115
0.000338805
-0.00873964
0.000377246
-0.00907718
0.00051644
-0.00934762
0.000584056
-0.00960525
0.000539471
-0.00979149
0.000386177
-0.00981091
0.000152288
-0.00959807
-0.000121483
-0.00918641
-0.000355991
-0.00865493
-0.000493608
-0.00808407
-0.000528141
-0.00751351
-0.00049474
-0.00694977
-0.000456056
-0.00638613
-0.000445283
-0.00582475
-0.000455303
-0.0052708
-0.00047146
-0.00473133
-0.000480356
-0.00421469
-0.000473324
-0.00373618
-0.000433604
-0.00332418
-0.000348521
-0.00300471
-0.000251818
-0.00277644
-0.000197229
-0.00261439
-0.000187804
-0.00248532
-0.000195897
-0.00237472
-0.000194395
-0.00227536
-0.000188181
-0.00218338
-0.000185484
-0.00210054
-0.000187423
-0.00202187
-0.000192845
-0.00194401
-0.000202054
-0.00186383
-0.000212489
-0.00177953
-0.00022294
-0.00168793
-0.000232814
-0.00158843
-0.000241733
-0.00148138
-0.000249466
-0.00136598
-0.000255879
-0.00124417
-0.000261005
-0.00111703
-0.000264932
-0.000985101
-0.000267812
-0.000848479
-0.000269853
-0.000706924
-0.000271328
-0.000559924
-0.000272558
-0.000406713
-0.000273919
-0.000246428
-0.000275843
-7.82457e-05
-0.000278817
9.83719e-05
-0.000283372
0.000283441
-0.000290055
0.000476358
-0.000299391
0.000675535
-0.000311861
0.000878761
-0.000327801
0.00108307
-0.000347401
0.00128485
-0.000370668
0.00148008
-0.00039741
0.00166445
-0.000427248
0.00183363
-0.00045964
0.00198378
-0.000493965
0.00211165
-0.000529565
0.00221488
-0.000565881
0.0022922
-0.000602482
0.00234351
-0.000639076
0.00236986
-0.000675461
0.00237318
-0.000711431
0.00235601
-0.000746686
0.00232127
-0.0007808
0.00227217
-0.000813336
0.00221237
-0.000844084
0.00214603
-0.0008733
0.00207751
-0.000901708
0.0020107
-0.000930169
0.00194827
-0.000959213
0.00189141
-0.000988811
0.00184021
-0.00101863
0.00179434
-0.00104861
0.00175347
-0.00107948
0.00171732
-0.00111283
-0.00115051
0.00168484
0.00100914
-0.000180408
0.00231379
0.00013061
0.00321649
0.000225521
0.00375393
6.45946e-05
0.00419937
-0.000106631
0.00477204
-0.000195427
0.00549692
-0.000208435
0.00626049
-0.000179518
0.00692467
-0.000124707
0.00737734
-6.64992e-05
0.007555
-2.53695e-05
0.00745443
-2.09096e-05
0.00713685
-3.84126e-05
0.00670076
-5.75169e-05
0.00623682
-6.42034e-05
0.00575676
-1.46729e-05
0.00514065
0.000160053
0.00422839
0.000466972
0.00295737
0.000815717
0.00147401
0.0010119
3.81875e-05
0.000955471
-0.00113977
0.000704637
-0.00198624
0.00041286
-0.00252138
0.000186619
-0.00281017
3.69771e-05
-0.00293941
-6.79902e-05
-0.00297455
-0.000152662
-0.00295584
-0.000214614
-0.00289482
-0.000255413
-0.00280231
-0.000280686
-0.00269688
-0.000290919
-0.00258314
-0.000301162
-0.00246451
-0.000311472
-0.00234411
-0.000322459
-0.00222217
-0.00033443
-0.0020978
-0.000347304
-0.00196971
-0.000360905
-0.00183678
-0.000374669
-0.00169847
-0.00038777
-0.001555
-0.000399347
-0.00140728
-0.000408728
-0.00125662
-0.000415588
-0.00110445
-0.000419981
-0.00095203
-0.000422277
-0.000800302
-0.000423055
-0.000649849
-0.000423011
-0.000500892
-0.000422876
-0.000353388
-0.000423346
-0.000207186
-0.00042502
-6.21899e-05
-0.000428368
8.14626e-05
-0.000433708
0.000223283
-0.000441211
0.000362349
-0.000450927
0.000497359
-0.000462812
0.000626716
-0.000476758
0.000748679
-0.000492632
0.000861559
-0.000510291
0.000963915
-0.000529604
0.00105474
-0.000550465
0.00113357
-0.000572798
0.00120057
-0.000596561
0.00125642
-0.000621727
0.00130219
-0.000648251
0.00133913
-0.000676017
0.00136847
-0.000704799
0.00139129
-0.000734255
0.0014086
-0.000764
0.00142152
-0.000793723
0.00143149
-0.000823304
0.00144024
-0.00085283
0.00144941
-0.000882469
0.00145996
-0.000912256
0.00147173
-0.000941941
0.00148356
-0.000971049
0.00149394
-0.000999182
0.00150171
-0.0010264
0.00150657
-0.00105347
0.00150893
-0.00108184
0.00150944
-0.00111334
-0.00114938
0.00150831
-0.000272021
9.16123e-05
-3.2296e-05
-0.000109115
0.000530407
-0.000337182
0.000912713
-0.000317711
0.000969821
-0.000163739
0.000773293
1.1002e-06
0.000450455
0.000114404
8.36697e-05
0.000187267
-0.000314069
0.000273032
-0.00076898
0.000388411
-0.00132959
0.000535236
-0.00203153
0.000681038
-0.0028551
0.000785156
-0.00371488
0.000802256
-0.0045085
0.000729418
-0.00514995
0.000626778
-0.00558948
0.00059959
-0.00582102
0.000698508
-0.00584663
0.000841324
-0.00569905
0.000864321
-0.00541805
0.000674472
-0.0050543
0.000340888
-0.00465482
1.3378e-05
-0.00425143
-0.00021677
-0.00386527
-0.000349183
-0.00351327
-0.000419989
-0.00320984
-0.000456092
-0.00295291
-0.000471547
-0.00272093
-0.000487393
-0.00250516
-0.000496457
-0.0022849
-0.000511182
-0.00207403
-0.000512029
-0.00188194
-0.000503561
-0.00171669
-0.000487706
-0.00158274
-0.000468387
-0.00147795
-0.00045209
-0.00139344
-0.000445415
-0.00131671
-0.000451396
-0.0012368
-0.000467682
-0.00114743
-0.000488724
-0.00104742
-0.000508736
-0.000939295
-0.00052371
-0.000827284
-0.000531993
-0.000715684
-0.000533877
-0.000607885
-0.000530855
-0.000505954
-0.000524942
-0.000410636
-0.000518194
-0.000321587
-0.000512395
-0.000237729
-0.000508878
-0.000157657
-0.00050844
-7.99905e-05
-0.000511375
-3.63984e-06
-0.000517562
7.20593e-05
-0.000526626
0.000147336
-0.000538088
0.000222085
-0.000551506
0.000295994
-0.00056654
0.00036868
-0.000582977
0.000439793
-0.000600717
0.000509054
-0.000619726
0.000576246
-0.00063999
0.00064116
-0.000661475
0.000703541
-0.000684109
0.000763069
-0.000707779
0.000819402
-0.000732351
0.000872299
-0.000757695
0.00092176
-0.000783715
0.000968114
-0.000810354
0.00101195
-0.000837563
0.00105388
-0.000865234
0.00109417
-0.000893121
0.00113252
-0.000920814
0.00116808
-0.000947815
0.00119985
-0.000973711
0.00122718
-0.000998379
0.00125012
-0.00102213
0.00126945
-0.00104573
0.00128634
-0.00107036
0.00130188
-0.00109737
0.00131664
-0.0011281
-0.00116335
0.00133061
3.91282e-05
5.24843e-05
-0.000258332
0.000188345
-0.000993437
0.000397923
-0.0019665
0.000655353
-0.00303126
0.000901021
-0.00402639
0.000996224
-0.0047309
0.000818917
-0.00495029
0.000406657
-0.00462343
-5.3831e-05
-0.00384723
-0.000387789
-0.00277656
-0.000535424
-0.00156737
-0.000528161
-0.000362899
-0.00041931
0.000718016
-0.000278659
0.0015934
-0.000145964
0.00224735
-2.71757e-05
0.00276637
8.05678e-05
0.00328892
0.000175958
0.00387602
0.000254226
0.00443574
0.000304607
0.00478889
0.000321323
0.00481675
0.000313022
0.00453618
0.00029395
0.00405044
0.00026897
0.00346841
0.000232847
0.00286806
0.000180363
0.00230026
0.000111706
0.0017974
3.13086e-05
0.00136459
-5.45773e-05
0.00100753
-0.000139402
0.000713772
-0.00021742
0.000485386
-0.000283643
0.000315758
-0.000333934
0.000197619
-0.000369566
0.000121276
-0.000392045
7.03605e-05
-0.000401174
2.93153e-05
-0.000404369
3.83423e-06
-0.000425915
-5.26919e-06
-0.000458579
1.23201e-06
-0.000495225
2.0508e-05
-0.000528012
4.8103e-05
-0.000551305
7.90617e-05
-0.000562952
0.000109099
-0.000563914
0.000135363
-0.000557119
0.000156705
-0.000546285
0.000173561
-0.000535049
0.000187571
-0.000526405
0.000201049
-0.000522357
0.000216408
-0.000523799
0.000235642
-0.000530609
0.000260028
-0.000541948
0.000290023
-0.000556621
0.000325364
-0.000573429
0.000365272
-0.000591414
0.000408684
-0.000609952
0.000454452
-0.000628744
0.00050147
-0.000647736
0.000548765
-0.000667022
0.000595537
-0.000686761
0.000641181
-0.000707119
0.0006853
-0.000728229
0.000727697
-0.000750176
0.000768339
-0.000772993
0.000807285
-0.000796641
0.000844574
-0.000821004
0.000880092
-0.000845872
0.000913482
-0.000870953
0.000944161
-0.000895914
0.000971495
-0.000920455
0.000995077
-0.000944396
0.001015
-0.000967738
0.00103197
-0.000990681
0.0010472
-0.0010136
0.0010621
-0.00103703
0.00107795
-0.00106158
0.00109557
-0.00108798
0.00111514
-0.00111694
0.00113616
-0.00114912
-0.00118493
0.00115774
0.000306175
-0.00025369
0.000753039
-0.000258519
0.001232
-8.10378e-05
0.0018245
6.28511e-05
0.00244253
0.000282992
0.00280723
0.00063153
0.00267187
0.000954276
0.00200015
0.00107837
0.00100068
0.000945648
5.50671e-06
0.00060738
-0.000712522
0.000182604
-0.00105464
-0.000186038
-0.00105179
-0.00042217
-0.000801257
-0.000529187
-0.000401975
-0.000545246
8.02526e-05
-0.000509403
0.000608745
-0.000447925
0.0011581
-0.000373397
0.00171276
-0.000300431
0.00224859
-0.000231229
0.00273668
-0.000166762
0.00315758
-0.000107884
0.00350688
-5.53428e-05
0.00378577
-9.92152e-06
0.00399055
2.80688e-05
0.00411242
5.84912e-05
0.00414318
8.09476e-05
0.00407921
9.52752e-05
0.00392283
0.000101802
0.00368284
0.000100583
0.00337329
9.21349e-05
0.00301366
7.59882e-05
0.00262894
5.07819e-05
0.00224286
1.65183e-05
0.00187803
-2.72135e-05
0.00156973
-9.2882e-05
0.00133746
-0.000172092
0.00116279
-0.000251249
0.00103009
-0.000325878
0.000924598
-0.000389734
0.000835347
-0.000438761
0.000756199
-0.000472157
0.000684804
-0.000491557
0.00062091
-0.00050002
0.000564976
-0.000501185
0.000517417
-0.000498727
0.000478395
-0.000496027
0.00044783
-0.000495839
0.000425438
-0.000499965
0.00041073
-0.000509091
0.000403006
-0.000522886
0.000401393
-0.000540335
0.000404939
-0.000560166
0.000412719
-0.00058121
0.000423933
-0.000602628
0.000437949
-0.000623968
0.000454316
-0.000645111
0.000472744
-0.000666164
0.000493059
-0.000687337
0.000515146
-0.000708848
0.000538878
-0.000730852
0.000564054
-0.000753405
0.000590339
-0.000776461
0.000617235
-0.000799889
0.000644099
-0.000823505
0.000670213
-0.000847119
0.000694922
-0.000870581
0.000717792
-0.000893822
0.000738743
-0.000916864
0.000758108
-0.000939821
0.000776572
-0.00096286
0.00079501
-0.000986176
0.000814288
-0.00100996
0.000835099
-0.00103442
0.000857857
-0.00105979
0.000882657
-0.00108638
0.000909273
-0.00111459
0.000937153
-0.00114482
0.000965457
-0.00117743
-0.00121272
0.00099325
-0.000207589
-4.61008e-05
-0.000105566
-0.000360543
0.000546269
-0.000732872
0.00155566
-0.000946536
0.00271057
-0.00087192
0.00381761
-0.000475513
0.00465729
0.000114596
0.00506072
0.000674944
0.00501489
0.000991475
0.00464112
0.000981149
0.00411281
0.000710917
0.00357935
0.000347413
0.00313397
2.32156e-05
0.00282042
-0.000215633
0.00264514
-0.000369969
0.00258555
-0.000449814
0.00260112
-0.000463497
0.00265798
-0.000430258
0.0027369
-0.000379351
0.00283376
-0.000328087
0.00295284
-0.000285841
0.00309535
-0.000250393
0.00325434
-0.000214332
0.00342024
-0.000175821
0.0035813
-0.000132989
0.00372183
-8.20416e-05
0.00383372
-3.09427e-05
0.00390962
1.93791e-05
0.00394381
6.76076e-05
0.0039336
0.000110793
0.00387704
0.000148693
0.0037769
0.000176133
0.00363959
0.000188095
0.00347504
0.000181068
0.00329335
0.000154476
0.00309104
0.000109421
0.00286252
5.64297e-05
0.00261362
-2.34054e-06
0.00234766
-5.99236e-05
0.00207005
-0.000112126
0.00178946
-0.000158167
0.00151475
-0.000197443
0.00125674
-0.000233553
0.00102448
-0.000267761
0.000824559
-0.00030126
0.000660606
-0.000334773
0.000533226
-0.000368647
0.0004403
-0.000402914
0.00037763
-0.000437295
0.000339784
-0.000471245
0.000320968
-0.00050407
0.000315744
-0.000535112
0.000319498
-0.00056392
0.000328633
-0.000590345
0.000340553
-0.000614548
0.000353529
-0.000636945
0.000366522
-0.000658104
0.000379003
-0.000678644
0.000390805
-0.00069914
0.000402007
-0.000720051
0.00041284
-0.000741684
0.000423618
-0.000764183
0.0004347
-0.000787543
0.000446463
-0.000811652
0.000459294
-0.000836335
0.000473578
-0.000861403
0.000489682
-0.000886685
0.00050791
-0.00091205
0.000528451
-0.000937405
0.000551332
-0.000962702
0.00057641
-0.000987938
0.000603404
-0.00101317
0.000631972
-0.00103853
0.000661771
-0.00106421
0.000692494
-0.00109051
0.00072384
-0.00111773
0.000755456
-0.00114621
0.000786874
-0.00117624
0.000817499
-0.00120805
-0.0012419
0.00084668
-2.05419e-05
-2.5559e-05
-0.000308947
-7.21374e-05
-0.000757807
-0.000284012
-0.00118166
-0.000522681
-0.0014037
-0.000649881
-0.00117286
-0.00070636
-0.000338235
-0.000720025
0.00104539
-0.000708684
0.00272702
-0.000690152
0.00439103
-0.00068286
0.0058032
-0.000701252
0.00690003
-0.000749421
0.00774308
-0.000819831
0.00842317
-0.000895726
0.00894832
-0.000895114
0.00924607
-0.000747564
0.00921124
-0.000428668
0.00882439
-4.34124e-05
0.00817518
0.000269866
0.00740142
0.000445667
0.00661122
0.000504361
0.00586126
0.000499563
0.00517302
0.000473915
0.00454778
0.000449418
0.00397951
0.000435272
0.00346016
0.000437317
0.00299281
0.000436405
0.00257501
0.000437178
0.00221495
0.000427666
0.00190173
0.00042401
0.00163405
0.000416382
0.00140996
0.000400216
0.00122517
0.000372882
0.00107251
0.000333727
0.000943072
0.000283919
0.000826432
0.000226061
0.000719581
0.00016328
0.000619185
9.80559e-05
0.000527843
3.14185e-05
0.000441349
-2.56325e-05
0.000362464
-7.92818e-05
0.000298262
-0.000133242
0.000250133
-0.000185424
0.000218077
-0.000235705
0.000200958
-0.000284141
0.000196906
-0.000330721
0.000203552
-0.000375293
0.000218183
-0.000417545
0.00023795
-0.000457061
0.000260131
-0.000493426
0.000282408
-0.000526347
0.000303042
-0.000555746
0.000320923
-0.000581801
0.000335515
-0.000604937
0.000346745
-0.000625778
0.000354879
-0.000645079
0.000360421
-0.000663646
0.000364036
-0.000682259
0.000366488
-0.000701593
0.000368591
-0.000722154
0.000371146
-0.000744239
0.000374884
-0.00076792
0.000380402
-0.000793062
0.000388123
-0.000819372
0.000398258
-0.000846471
0.000410817
-0.000873961
0.000425631
-0.000901498
0.000442414
-0.000928833
0.000460843
-0.000955834
0.00048063
-0.000982489
0.000501576
-0.00100888
0.000523579
-0.00103517
0.000546616
-0.00106156
0.000570676
-0.00108828
0.000595707
-0.00111554
0.000621548
-0.00114357
0.000647911
-0.00117257
0.000674371
-0.0012027
0.000700406
-0.00123409
-0.00126691
0.000725415
-0.000550649
0.00052509
-0.00149976
0.00087697
-0.00258988
0.000806113
-0.00369909
0.000586527
-0.00469032
0.000341348
-0.00549369
9.70122e-05
-0.00610151
-0.0001122
-0.00652854
-0.000281655
-0.00680379
-0.000414902
-0.00695414
-0.000532514
-0.00699855
-0.000656841
-0.00694827
-0.000799704
-0.00681497
-0.000953127
-0.00663231
-0.00107838
-0.00641437
-0.00111306
-0.00616185
-0.00100008
-0.00584067
-0.000749848
-0.00542074
-0.000463335
-0.00490345
-0.000247427
-0.00432667
-0.000131111
-0.00374674
-7.55677e-05
-0.00322161
-2.55728e-05
-0.00279632
4.86286e-05
-0.00249259
0.000145684
-0.0023047
0.000247381
-0.00219929
0.000331911
-0.00216106
0.000398176
-0.00215355
0.000429663
-0.00215433
0.000428447
-0.00213307
0.000402756
-0.00207775
0.000361064
-0.00198612
0.000308581
-0.00186348
0.00025024
-0.00171958
0.00018983
-0.0015659
0.000130243
-0.00141476
7.49206e-05
-0.0012709
1.94197e-05
-0.00113497
-3.78783e-05
-0.00101304
-9.05108e-05
-0.000897945
-0.000140725
-0.000787571
-0.000189656
-0.000682717
-0.000238096
-0.000582116
-0.000286025
-0.000484817
-0.000333003
-0.000390595
-0.000378363
-0.00029993
-0.000421386
-0.000213789
-0.000461434
-0.00013331
-0.000498024