/*--------------------------------*- C++ -*----------------------------------*\
| =========                 |                                                 |
| \\      /  F ield         | OpenFOAM: The Open Source CFD Toolbox           |
|  \\    /   O peration     | Version:  2012                                  |
|   \\  /    A nd           | Website:  www.openfoam.com                      |
|    \\/     M anipulation  |                                                 |
\*---------------------------------------------------------------------------*/
FoamFile
{
    version     2.0;
    format      ascii;
    class       volScalarField;
    location    "0.7";
    object      p;
}
// * * * * * * * * * * * * * * * * * * * * * * * * * * * * * * * * * * * * * //

dimensions      [0 2 -2 0 0 0 0];


internalField   nonuniform List<scalar> 
42400
(
-17828.8
-17398.9
-16907.5
-16402.3
-15933
-15496.7
-15025.9
-14408.1
-13545.8
-12415.1
-11058
-9527.61
-7885.96
-6245.03
-4762.96
-3569.47
-2696.45
-2098.31
-1697.94
-1427.26
-1242.32
-1117.4
-1036.93
-989.658
-964.973
-951.608
-938.459
-916.242
-878.975
-824.824
-755.973
-677.255
-594.067
-510.534
-429.344
-351.53
-278.267
-210.526
-149.026
-94.349
-46.8364
-6.52211
26.8451
53.7344
74.7509
90.5646
101.862
109.325
113.616
115.372
115.179
113.544
110.882
107.503
103.635
99.4387
95.0291
90.4937
85.9027
81.3151
76.7809
72.3425
68.0344
63.8837
59.9107
56.1303
52.5528
49.1853
46.032
43.0949
40.3739
37.8659
35.5644
33.4579
31.5289
29.7518
28.0937
26.5133
24.9448
23.1222
15304.6
14917.6
14370.9
13578.3
12442.5
11145.1
9813
8541.71
7387.03
6357.24
5439.43
4622
3895.17
3243.44
2647.9
2102.9
1626.58
1244.37
963.949
770.255
639.312
550.265
488.374
444.289
412.393
389.528
373.688
362.829
354.735
347.35
339.178
329.621
318.855
307.283
295.628
284.032
272.767
261.958
251.503
241.406
231.718
222.481
213.692
205.278
197.098
188.969
180.733
172.306
163.709
155.049
146.465
138.081
129.976
122.188
114.721
107.563
100.7
94.119
87.8127
81.7792
76.0226
70.5487
65.3624
60.4656
55.8585
51.5408
47.5116
43.7696
40.3133
37.1405
34.2478
31.6297
29.2768
27.1746
25.3012
23.6266
22.1151
20.7234
19.3803
17.9147
4571.07
4912.97
5394.41
5925.09
6494.74
7006.89
7425.63
7727.09
7901.52
7954.72
7901.8
7760.37
7547.83
7279.66
6966.65
6615.48
6232.12
5824.47
5401.83
4972.72
4543.16
4116.11
3691.76
3269.78
2851.74
2444.94
2066.32
1738.75
1481.3
1296.04
1166.61
1069.34
984.584
901.334
816.144
730.341
646.925
569.163
499.607
439.37
388.667
346.982
313.144
285.763
263.426
244.827
228.763
214.192
200.348
186.772
173.411
160.348
147.719
135.672
124.323
113.723
103.86
94.7451
86.3414
78.5813
71.4608
64.943
58.9659
53.4614
48.3797
43.6858
39.356
35.3761
31.7383
28.4397
25.4797
22.857
20.5673
18.5996
16.9334
15.5381
14.3727
13.3883
12.4885
11.5201
-6049.26
-6001.54
-5957.5
-5896.36
-5799.55
-5691.07
-5591.32
-5505.51
-5416.03
-5290.61
-5102.06
-4845.55
-4542.23
-4225.34
-3919.62
-3632.63
-3359.68
-3089.95
-2809.46
-2507.27
-2179.54
-1827.5
-1458.91
-1086.26
-725.48
-397.176
-126.14
70.6438
195.144
266.647
306.597
328.304
338.07
339.505
335.184
326.751
315.461
302.31
287.458
271.473
254.888
238.024
221.142
204.477
188.36
173.132
159.141
146.604
135.459
125.58
116.686
108.549
101.045
94.0324
87.3921
81.0929
75.138
69.4702
64.0575
58.8885
53.8882
49.0238
44.3055
39.7505
35.3723
31.1927
27.2344
23.5222
20.0842
16.9505
14.1507
11.7105
9.64799
7.96856
6.66245
5.72752
5.0772
4.67
4.38487
4.08007
-3733.74
-3750.53
-3758.75
-3717.04
-3587.64
-3373.55
-3126.09
-2915.64
-2776.04
-2682.76
-2594.93
-2523.61
-2544.93
-2718.52
-2983.88
-3187.97
-3252.5
-3216.69
-3131.96
-3021.73
-2895.87
-2754.92
-2594.93
-2413.25
-2206.32
-1970.9
-1706.51
-1420.76
-1131.48
-861.251
-627.996
-439.242
-292.95
-181.994
-98.3482
-35.073
12.5567
47.6422
73.0544
90.8513
102.601
109.623
113.011
113.648
112.241
109.343
105.36
100.587
95.3491
89.876
84.3159
78.6963
73.1573
67.8006
62.6937
57.8317
53.1907
48.7412
44.4519
40.293
36.237
32.2627
28.3527
24.5132
20.7526
17.0985
13.5795
10.2357
7.11541
4.27224
1.76034
-0.370879
-2.0826
-3.35255
-4.17951
-4.58607
-4.62283
-4.36666
-3.94435
-3.49072
1244.51
1349.8
1498.4
1658.83
1855.53
2023.13
2139.66
2204.48
2230.11
2224.94
2192.61
2168.76
2250.96
2578.05
3173.61
3745.65
3956.58
3847.96
3609.24
3279.3
2875.65
2454.03
2050.22
1680.23
1351.56
1067.25
828.063
632.291
475.552
351.883
255.007
179.35
120.483
75.0845
40.7015
15.4149
-2.50618
-14.4654
-21.6298
-24.9989
-25.4335
-23.6768
-20.3717
-16.0633
-11.194
-6.11593
-1.11137
3.59684
7.8517
11.5403
14.6049
17.0943
18.9267
20.1559
20.8732
21.0534
20.7251
19.944
18.7605
17.22
15.3651
13.2358
10.8736
8.3393
5.67344
2.92577
0.164266
-2.53579
-5.09375
-7.42725
-9.45707
-11.1131
-12.3415
-13.1107
-13.4163
-13.2838
-12.768
-11.9519
-10.9414
-9.86674
5950.48
5758.22
5520.93
5202.68
4763.49
4228.65
3643.21
3077.09
2576.68
2103.47
1575.96
1016.26
559.373
272.208
103.737
45.4958
159.684
441.659
764.939
998.124
1091.73
1051.56
908.163
707.955
499.848
316.164
167.6
51.4625
-38.6327
-107.89
-159.813
-197.264
-222.575
-237.704
-244.376
-244.117
-238.284
-228.069
-214.528
-198.61
-181.165
-162.937
-144.567
-126.58
-109.386
-93.2837
-78.4732
-65.0723
-53.1297
-42.6395
-33.559
-25.8148
-19.322
-14.0219
-9.85691
-6.65095
-4.28494
-2.67435
-1.73902
-1.40379
-1.59865
-2.25681
-3.31309
-4.71511
-6.37364
-8.21479
-10.157
-12.1101
-13.9806
-15.6756
-17.1088
-18.2076
-18.9196
-19.2185
-19.1074
-18.6191
-17.8126
-16.7683
-15.5696
-14.3015
-6118.5
-5995.25
-5787.21
-5490.91
-5111.86
-4670.84
-4167.76
-3631.37
-3162.7
-2969.19
-3204.15
-3708.46
-4136.59
-4333.63
-4291.23
-4003.49
-3537.72
-3028.57
-2576.15
-2219.4
-1959.55
-1778.23
-1646.97
-1537.71
-1432.78
-1326.97
-1221.91
-1120.16
-1023.16
-931.72
-846.053
-765.557
-690.104
-619.597
-554.03
-493.47
-437.858
-387.111
-341.096
-299.599
-262.342
-229.016
-199.298
-172.867
-149.425
-128.691
-110.412
-94.3597
-80.3169
-68.0943
-57.5158
-48.4207
-40.663
-34.1115
-28.6471
-24.1596
-20.5511
-17.735
-15.6328
-14.1724
-13.2857
-12.907
-12.9707
-13.4093
-14.1508
-15.1185
-16.231
-17.4024
-18.5459
-19.5782
-20.425
-21.0277
-21.348
-21.3724
-21.1128
-20.6043
-19.9007
-19.0656
-18.17
-17.2238
-7369.98
-6868.14
-6343.4
-5923.47
-5444.17
-4900.95
-4348.11
-3839.04
-3419.94
-3168.43
-3137.31
-3243.87
-3306.02
-3234.76
-3084.9
-2925.87
-2779.27
-2649.33
-2540.39
-2447.59
-2355.44
-2246.4
-2109.76
-1946.91
-1768.44
-1585.62
-1405.73
-1233.46
-1072.83
-927.494
-799.006
-687.93
-593.084
-512.676
-444.722
-387.137
-338.006
-295.769
-259.199
-227.343
-199.471
-175.018
-153.543
-134.694
-118.179
-103.742
-91.1593
-80.1973
-70.659
-62.3564
-55.1213
-48.8098
-43.3027
-38.5043
-34.3399
-30.7515
-27.6944
-25.1333
-23.0381
-21.3808
-20.133
-19.2634
-18.737
-18.5135
-18.5472
-18.7868
-19.176
-19.6557
-20.1661
-20.6507
-21.0602
-21.3568
-21.5177
-21.5364
-21.4226
-21.1998
-20.9011
-20.562
-20.2256
-19.8648
3978.73
3695.43
3158.29
2466.44
1744.12
1221.36
893.468
674.083
491.565
302.429
92.744
-124.432
-314.455
-435.727
-467.909
-429.151
-360.015
-295.893
-253.601
-234.223
-230.158
-231.727
-231.986
-228.186
-220.041
-208.155
-194.139
-179.303
-164.67
-152.356
-143.196
-136.577
-131.636
-127.626
-123.878
-119.838
-115.132
-109.613
-103.34
-96.5096
-89.3799
-82.219
-75.2738
-68.7539
-62.8187
-57.5661
-53.0257
-49.1632
-45.8959
-43.113
-40.6973
-38.5415
-36.5592
-34.691
-32.9052
-31.1944
-29.5696
-28.0528
-26.6701
-25.4458
-24.3985
-23.5391
-22.8697
-22.3841
-22.0689
-21.9043
-21.8656
-21.9248
-22.0526
-22.2203
-22.4024
-22.5785
-22.7347
-22.8641
-22.9663
-23.0466
-23.1129
-23.1748
-23.2408
-23.3026
10907.5
10618.9
10194.1
9626.17
8875.03
8247.46
7830.06
7548
7283.35
6962.04
6562.67
6101.72
5616.71
5141.95
4695.56
4283.75
3902.77
3544.17
3202.11
2876.15
2568.24
2279.83
2010.98
1761.28
1531.14
1320.98
1131.21
961.161
807.446
668.954
546.396
440.626
351.234
277.028
215.932
166.012
125.587
93.131
67.2423
46.666
30.3382
17.3993
7.16043
-0.948934
-7.41445
-12.6356
-16.9092
-20.4261
-23.2925
-25.5668
-27.2923
-28.5191
-29.3105
-29.7379
-29.8721
-29.7769
-29.5086
-29.1172
-28.649
-28.1462
-27.6458
-27.1779
-26.7652
-26.4229
-26.1592
-25.9763
-25.8715
-25.838
-25.8665
-25.9457
-26.064
-26.2099
-26.3735
-26.5461
-26.7217
-26.896
-27.0671
-27.2342
-27.3963
-27.5625
1160.7
1175.55
1120.94
953.018
679.783
448.876
367.395
466.146
727.327
1105.05
1509.6
1840.65
2057.19
2185.31
2260.42
2293.87
2284.44
2232.78
2144.49
2027.31
1889.16
1737.61
1579.05
1418.61
1260.31
1107.64
963.157
828.232
703.9
590.947
489.479
399.048
319.185
249.63
190.187
140.53
100.105
68.1155
43.575
25.3672
12.2423
2.794
-4.39121
-10.4253
-15.8838
-20.836
-25.0769
-28.3757
-30.6349
-31.9355
-32.4925
-32.5667
-32.3894
-32.1243
-31.8614
-31.6333
-31.4384
-31.2626
-31.0936
-30.9268
-30.765
-30.6155
-30.4869
-30.3875
-30.3236
-30.2988
-30.3141
-30.3682
-30.4571
-30.5756
-30.7167
-30.8734
-31.0386
-31.2059
-31.3703
-31.5284
-31.6779
-31.8175
-31.948
-32.0738
-5988.46
-5702.82
-5326.37
-4871.09
-4302.67
-3672.14
-3045.88
-2511.71
-2125.57
-1879.1
-1717.37
-1582.94
-1443.56
-1291.6
-1134.34
-984.441
-851.813
-740.333
-651.701
-584.95
-536.937
-503.536
-480.851
-466.037
-456.551
-449.246
-441.504
-432.307
-421.473
-408.842
-394.288
-377.984
-360.455
-342.476
-324.892
-308.318
-292.763
-277.277
-259.835
-237.938
-210.226
-178.19
-146.11
-118.605
-97.9747
-83.7256
-73.9407
-66.7242
-60.8239
-55.6196
-50.9043
-46.6831
-43.0346
-40.0262
-37.6752
-35.9444
-34.7549
-34.007
-33.5993
-33.4399
-33.4515
-33.5731
-33.7587
-33.977
-34.2081
-34.4408
-34.6699
-34.8934
-35.1106
-35.3214
-35.5249
-35.7198
-35.9042
-36.076
-36.2327
-36.3721
-36.4923
-36.5921
-36.6713
-36.7314
2436.53
2351.7
2228.12
2059.19
1851.27
1617.77
1364.77
1097.86
821.467
536.425
243.291
-53.6746
-346.49
-625.462
-880.33
-1101.72
-1282.88
-1421.74
-1518.98
-1577.23
-1600.34
-1594.5
-1565.86
-1517.62
-1450.48
-1361.91
-1247.29
-1108.85
-957.377
-803.719
-655.903
-521.425
-407.317
-318.261
-255.226
-215.545
-194.114
-184.736
-181.04
-177.565
-171.121
-161.388
-149.875
-138.072
-126.515
-115.07
-103.581
-92.1889
-81.2989
-71.393
-62.8429
-55.8182
-50.2981
-46.137
-43.1296
-41.0568
-39.7132
-38.9204
-38.5296
-38.4205
-38.498
-38.6895
-38.9425
-39.2213
-39.5034
-39.7762
-40.0336
-40.2732
-40.4945
-40.6976
-40.8826
-41.0489
-41.1954
-41.3207
-41.4232
-41.5014
-41.5545
-41.5818
-41.583
-41.5644
-7402.19
-7160.08
-6861.78
-6485.33
-5986.65
-5399.12
-4782.52
-4204.19
-3700.47
-3260.34
-2844.57
-2421.88
-1986.25
-1546.05
-1109.92
-682.775
-268.868
123.911
485.241
801.928
1048.38
1190.89
1214.05
1144.17
1028.47
892.831
741.499
584.181
437.799
312.157
209.333
128.544
67.4865
22.6879
-9.51166
-32.0723
-46.8417
-54.7041
-56.3464
-53.2695
-48.029
-43.2907
-40.6118
-40.0788
-40.8432
-41.9519
-42.8328
-43.3113
-43.4383
-43.3395
-43.136
-42.9172
-42.7397
-42.6343
-42.6145
-42.6824
-42.8325
-43.055
-43.3361
-43.6598
-44.009
-44.367
-44.7195
-45.0551
-45.3662
-45.6482
-45.8989
-46.1183
-46.307
-46.4665
-46.598
-46.7023
-46.7798
-46.8304
-46.8535
-46.8489
-46.8168
-46.7578
-46.6728
-46.5737
-126.689
-351.748
-630.315
-859.773
-1035.29
-1040.48
-888.478
-676.223
-522.664
-455.869
-413.424
-350.973
-274.941
-207.164
-160.412
-134.398
-120.12
-106.392
-84.9105
-53.6864
-18.0229
13.6277
37.1612
56.3283
73.469
83.0734
77.9754
58.5446
31.0302
1.02468
-28.1847
-54.5083
-76.667
-93.9448
-106.045
-113.009
-115.177
-113.192
-107.996
-100.734
-92.5543
-84.3666
-76.7219
-69.8583
-63.8359
-58.6657
-54.3689
-50.9724
-48.481
-46.8541
-46.0004
-45.7889
-46.0667
-46.6789
-47.4837
-48.3633
-49.2291
-50.0223
-50.7107
-51.2835
-51.7449
-52.1073
-52.3865
-52.5979
-52.7544
-52.8659
-52.9398
-52.9816
-52.9956
-52.9854
-52.9532
-52.9007
-52.8284
-52.7361
-52.6233
-52.4894
-52.3341
-52.1575
-51.9609
-51.7559
12095.8
11796.5
11385.6
10858.6
10226.1
9542.27
8773.33
7845.02
6748.48
5600.31
4551.51
3674.48
2954.51
2349.5
1834.93
1401.29
1042.26
749.965
514.641
325.893
173.939
50.1756
-52.7995
-142.079
-223.315
-298.023
-364.217
-419.183
-461.475
-490.771
-507.056
-510.088
-499.858
-477.293
-444.381
-403.874
-358.828
-312.175
-266.455
-223.675
-185.25
-152
-124.212
-101.75
-84.1956
-70.9832
-61.4965
-55.1247
-51.2842
-49.4301
-49.0605
-49.7243
-51.0325
-52.666
-54.3788
-55.995
-57.4018
-58.5415
-59.4008
-59.9989
-60.375
-60.5769
-60.6509
-60.6365
-60.5628
-60.4491
-60.3071
-60.1435
-59.962
-59.7652
-59.5548
-59.3317
-59.0963
-58.8482
-58.5866
-58.3107
-58.0195
-57.7129
-57.3913
-57.0637
-7522.72
-7037.49
-6386.14
-5635.7
-4760.44
-3875.01
-3058.44
-2369.94
-1780.81
-1193.7
-550.464
89.1811
604.921
925.768
1056.42
1038.01
914.784
722.973
490.915
239.385
-14.7369
-258.308
-480.933
-673.234
-826.521
-935.859
-1001.83
-1029.2
-1024.06
-992.13
-938.257
-866.928
-783
-691.882
-599.057
-509.364
-426.467
-352.69
-289.152
-236.029
-192.82
-158.591
-132.173
-112.32
-97.8082
-87.513
-80.4462
-75.779
-72.839
-71.0963
-70.1457
-69.689
-69.5183
-69.4982
-69.5458
-69.6121
-69.6658
-69.685
-69.6546
-69.5666
-69.4211
-69.2252
-68.9896
-68.7249
-68.439
-68.136
-67.8169
-67.4814
-67.1296
-66.7622
-66.3811
-65.9882
-65.585
-65.1722
-64.75
-64.3178
-63.8753
-63.422
-62.9579
-62.4905
-4654.65
-4860.22
-5133.55
-5439.16
-5800.13
-6186.24
-6553.5
-6834.88
-7003.48
-7094.04
-7142.14
-7146.14
-7092.57
-6978.21
-6807.5
-6584.58
-6311.56
-5990.57
-5626.16
-5225.43
-4796.87
-4349.21
-3889.48
-3423.38
-2958.99
-2509.13
-2088.84
-1711.85
-1388.04
-1119.95
-903.69
-731.883
-595.105
-484.839
-395.057
-322.374
-265.135
-222.002
-191.038
-169.707
-155.385
-145.806
-139.238
-134.452
-130.604
-127.135
-123.705
-120.143
-116.403
-112.511
-108.533
-104.548
-100.645
-96.9097
-93.4274
-90.2677
-87.4787
-85.0804
-83.0642
-81.3984
-80.0361
-78.9237
-78.0077
-77.2394
-76.5761
-75.9822
-75.429
-74.8945
-74.3638
-73.828
-73.2829
-72.7274
-72.1618
-71.587
-71.0036
-70.4121
-69.8128
-69.2061
-68.5921
-67.977
-1323.86
-1120.88
-819.025
-429.035
43.689
526.457
979.408
1380.9
1717.6
1984.59
2188.47
2341.94
2457.38
2543.56
2605.13
2643.88
2658.9
2648.57
2612.76
2554.76
2481
2398.02
2309.7
2215.93
2110
1978.74
1807.97
1590.13
1330.51
1050.51
784.831
567.137
411.293
307.453
233.681
170.249
107.204
44.3588
-13.5652
-61.7356
-97.5097
-120.937
-134.029
-139.627
-140.448
-138.587
-135.423
-131.741
-127.917
-124.082
-120.249
-116.393
-112.507
-108.623
-104.819
-101.197
-97.8634
-94.9058
-92.373
-90.27
-88.5633
-87.1926
-86.0866
-85.174
-84.3918
-83.688
-83.0226
-82.3669
-81.7027
-81.0207
-80.3179
-79.5957
-78.8575
-78.1071
-77.3476
-76.5818
-75.8114
-75.0379
-74.2618
-73.4868
-3907.08
-3960.27
-4056.22
-4169.81
-4267
-4304.58
-4268.47
-4172.18
-4041.6
-3903.3
-3778.89
-3680.4
-3610.71
-3567.1
-3540.56
-3514.65
-3466.39
-3371.81
-3213.9
-2989.55
-2710.56
-2399.32
-2079.47
-1769.89
-1482.91
-1225.55
-1000.46
-806.443
-640.873
-500.978
-384.067
-287.737
-209.269
-145.963
-95.2829
-54.9334
-22.9785
2.0563
21.3483
35.9047
46.6107
54.235
59.4207
62.6894
64.4605
65.0782
64.8359
63.9941
62.79
61.4405
60.138
59.0416
58.2652
57.8652
57.8316
58.0867
58.496
58.8915
59.1047
58.9991
58.4919
57.5587
56.2233
54.5389
52.5694
50.3764
48.0129
45.5216
42.9359
40.2821
37.581
34.8513
32.1089
29.3695
26.6493
23.9652
21.3356
18.7792
16.3166
13.9451
-10374.9
-10008.4
-9525.73
-8998.46
-8367.04
-7712.63
-7040.55
-6350.25
-5645.93
-4940.79
-4256.13
-3615.15
-3036.97
-2532.69
-2102.95
-1738.26
-1423.86
-1148.02
-910.256
-720.867
-589.411
-514.639
-483.079
-475.938
-476.888
-475.396
-466.263
-448.686
-424.039
-394.361
-361.704
-327.915
-294.117
-260.595
-227.84
-196.109
-165.684
-136.949
-110.299
-86.0549
-64.4178
-45.4679
-29.1782
-15.4313
-4.0374
5.24682
12.7001
18.6208
23.3123
27.0708
30.172
32.858
35.3224
37.6971
40.0427
42.348
44.5396
46.5043
48.1203
49.2869
49.9467
50.091
49.7522
48.9878
47.8647
46.4479
44.7945
42.952
40.9591
38.8472
36.642
34.3656
32.0379
29.6773
27.3023
24.9316
22.5861
20.2864
18.0535
15.8711
5061.89
5253.47
5506.79
5695.46
5851.3
5882.85
5800.81
5634.08
5409.61
5144.45
4843.79
4505.06
4124.77
3704.94
3257.57
2803.28
2364.06
1955.89
1585.66
1253.43
957.434
697.661
475.915
293.147
147.46
34.4269
-51.3264
-114.749
-159.798
-189.288
-205.277
-209.434
-203.339
-189.089
-169.157
-146.6
-124.117
-103.257
-84.3179
-67.5053
-52.7984
-40.0046
-28.9012
-19.2781
-10.9472
-3.74132
2.48964
7.88497
12.5779
16.6979
20.3693
23.706
26.8028
29.7257
32.5045
35.129
37.554
39.7111
41.5269
42.9406
43.9173
44.4521
44.5668
44.3007
43.7014
42.8173
41.6932
40.3682
38.8756
37.2433
35.4954
33.6528
31.7347
29.7592
27.744
25.7077
23.6716
21.6578
19.6828
17.7092
8812.63
8664.36
8456.72
8137.43
7686.61
7159.41
6591.45
5992.53
5350.5
4643.9
3858.57
3001.81
2116.24
1281.85
592.744
114.892
-146.785
-243.216
-246.536
-212.48
-169.128
-126.685
-89.2615
-59.3547
-37.7537
-23.0467
-12.448
-3.06678
7.1456
18.9973
31.9134
44.2303
53.8981
59.2528
59.5419
55.4722
48.6755
40.747
32.5965
25.2165
19.2331
14.8994
12.2031
10.9658
10.9259
11.7982
13.316
15.2543
17.4399
19.751
22.1094
24.468
26.7974
29.0734
31.2682
33.3453
35.2596
36.9614
38.4039
39.5503
40.3789
40.8849
41.0786
40.9813
40.6208
40.0268
39.2287
38.2533
37.1244
35.8631
34.4877
33.015
31.4605
29.8391
28.1654
26.4551
24.7291
23.0088
21.3018
19.5409
-7042.15
-6548.41
-5877.96
-5172.27
-4431
-3784.34
-3233.76
-2755.73
-2332.94
-1959.87
-1635.93
-1360
-1130.02
-942.709
-790.782
-663.998
-553.714
-456.691
-373.413
-304.576
-249.125
-204.72
-168.968
-139.897
-115.701
-94.6935
-75.2909
-56.4034
-37.7103
-19.6904
-3.14934
11.2111
22.9455
31.8822
38.1005
41.8934
43.6956
43.9674
43.1283
41.5542
39.5702
37.4431
35.3811
33.5362
32.0072
30.8458
30.0657
29.6537
29.5803
29.8076
30.2931
30.9924
31.8591
32.8443
33.8968
34.9632
35.9901
36.927
37.7302
38.3657
38.8117
39.0579
39.1046
38.96
38.6368
38.1503
37.516
36.7488
35.8624
34.869
33.78
32.6061
31.3576
30.0446
28.6772
27.2675
25.8352
24.4001
22.9561
21.4013
-4908.5
-4692.67
-4397.67
-4061.99
-3647.53
-3217
-2784.98
-2358.29
-1945.27
-1564.35
-1238.61
-981.03
-785.093
-630.23
-496.601
-374.479
-264.622
-172.412
-102.603
-56.6863
-32.8026
-27.0339
-34.7942
-51.519
-72.8294
-94.8024
-114.234
-128.993
-138.236
-141.812
-139.869
-132.92
-121.794
-107.473
-90.9926
-73.3814
-55.6056
-38.5225
-22.8335
-9.04629
2.55127
11.8955
19.1213
24.5052
28.3928
31.133
33.0347
34.3466
35.2571
35.9024
36.3797
36.7567
37.0793
37.3752
37.6568
37.9239
38.1669
38.3704
38.517
38.5908
38.5794
38.4746
38.2729
37.9739
37.5799
37.0945
36.5217
35.8661
35.1318
34.3233
33.445
32.5016
31.4983
30.4406
29.334
28.1867
27.0173
25.8441
24.6451
23.2806
6576.16
6399.79
6139.46
5768.79
5277.52
4721.07
4126.03
3503.23
2853.95
2178.26
1488.42
817.511
212.733
-286.095
-664.795
-935.366
-1120.31
-1239.68
-1305.73
-1324.77
-1304.29
-1257.92
-1204.31
-1158.09
-1119.99
-1078.09
-1020.29
-942.295
-849.716
-750.779
-652.356
-558.543
-471.126
-390.544
-316.743
-249.67
-189.463
-136.421
-90.8869
-53.0947
-23.0115
-0.215503
16.1386
27.2189
34.3042
38.5675
40.9472
42.1236
42.5588
42.5555
42.3076
41.9371
41.5179
41.0927
40.6837
40.2996
39.9404
39.6006
39.2713
38.9429
38.6058
38.2514
37.8725
37.4631
37.0185
36.5347
36.0084
35.4373
34.8194
34.1539
33.4404
32.6796
31.8731
31.023
30.1312
29.2035
28.2577
27.3113
26.3278
25.1327
-3764.57
-3663.07
-3555.35
-3447.45
-3345.76
-3239.32
-3124.64
-3011.63
-2919.55
-2859.65
-2817.77
-2753.27
-2616.16
-2378.35
-2053.17
-1686.02
-1328.3
-1017.83
-771.759
-588.661
-458.938
-376.894
-342.16
-350.495
-387.746
-433.322
-469.141
-486.178
-480.997
-456.018
-417.056
-370.445
-320.668
-269.985
-219.46
-170
-122.67
-78.8135
-39.8819
-7.21756
18.2055
36.0775
46.9907
52.3873
54.0891
53.7113
52.359
50.6597
48.9259
47.2975
45.8278
44.5285
43.3925
42.4049
41.548
40.804
40.1554
39.5855
39.0784
38.6194
38.1947
37.7918
37.3996
37.0081
36.6085
36.1931
35.7554
35.2902
34.793
34.2609
33.6916
33.0843
32.4391
31.7566
31.0372
30.2852
29.5188
28.7556
27.9492
26.8977
841.726
686.728
462.245
228.489
1.10543
-114.12
-121.297
-77.5937
-32.0701
-5.17381
0.0582626
-12.0715
-34.2644
-59.0645
-81.5841
-99.7395
-112.886
-121.029
-124.216
-122.306
-116.132
-107.99
-100.311
-95.3242
-95.8423
-104.071
-119.337
-136.122
-147.562
-150.283
-145.29
-134.897
-120.585
-102.998
-82.6151
-60.1487
-36.6316
-13.317
8.50187
27.6292
43.0098
53.8178
59.764
61.4368
60.1984
57.5641
54.5758
51.7469
49.2407
47.0692
45.2028
43.6086
42.258
41.1255
40.186
39.4142
38.7847
38.2723
37.8531
37.5048
37.2072
36.9425
36.6951
36.4517
36.2011
35.9338
35.6424
35.3208
34.9649
34.5715
34.1389
33.6667
33.1555
32.6064
32.0198
31.4002
30.7664
30.1372
29.4621
28.5224
6668.07
6548.1
6310.2
5896.91
5336.2
4728.36
4124.56
3533.12
2958.75
2417.62
1927.15
1498.09
1134.45
835.489
598.928
422.828
303.998
236.712
207.083
193.221
173.492
137.166
88.512
40.5983
4.97557
-13.8
-16.8207
-7.8856
7.6501
23.3915
34.6768
40.4295
42.1224
41.8134
41.1614
41.3376
43.0906
46.7172
52.1154
58.9394
66.1546
72.2735
75.8873
76.3377
73.8414
69.3629
64.1955
59.0318
54.2484
50.0407
46.4853
43.5845
41.2954
39.5488
38.2636
37.3558
36.7457
36.3612
36.1398
36.0295
35.9877
35.9809
35.9829
35.974
35.9395
35.8687
35.7544
35.592
35.3789
35.1143
34.7986
34.4337
34.0221
33.5666
33.0693
32.5355
31.9846
31.4369
30.8427
29.977
-12003.2
-11744.3
-11435.8
-11046.9
-10522.5
-9840.37
-8999.82
-8035.64
-7003.2
-5964.55
-4981.62
-4110.34
-3387.13
-2814.31
-2357.75
-1950.55
-1514.59
-1006.49
-446.706
94.7363
537.976
829.903
960.563
957.559
865.551
728.118
579.914
442.505
322.831
219.595
132.593
64.6555
17.3626
-11.0363
-24.5249
-27.9907
-25.8902
-21.1185
-14.8678
-7.65992
-0.00737319
7.11046
12.6002
15.9229
17.4602
18.1766
18.4656
18.7875
19.3722
20.2612
21.4086
22.7404
24.181
25.6628
27.1302
28.5395
29.8587
31.0656
32.1466
33.0946
33.9079
34.588
35.1394
35.5678
35.88
36.0831
36.1846
36.1918
36.112
35.9523
35.7198
35.4214
35.0641
34.654
34.1961
33.6974
33.1779
32.659
32.0958
31.2629
5071.37
4919.06
4744.08
4556.23
4339.93
4136.8
3969.64
3853.2
3786.18
3730.39
3597.6
3308.18
2893.43
2449.76
2009.26
1545.8
1050.78
544.6
61.2444
-366.037
-706.416
-935.456
-1045.89
-1053.6
-989.957
-887.469
-770.688
-655.28
-550.175
-459.562
-383.746
-320.84
-268.07
-223.21
-185.136
-153.321
-127.303
-106.358
-89.5022
-75.6765
-63.9466
-53.6188
-44.2537
-35.6083
-27.5676
-20.0977
-13.2116
-6.91916
-1.21196
3.93451
8.55626
12.6949
16.3929
19.6894
22.6193
25.2123
27.4936
29.4852
31.2068
32.677
33.9134
34.9335
35.7542
36.3922
36.8636
37.1836
37.3669
37.4275
37.3784
37.2318
36.9992
36.6913
36.3181
35.8885
35.4095
34.8892
34.3475
33.8066
33.2275
32.3873
15868.4
15694
15372.6
14789.1
13943.1
12926.1
11807.3
10632
9427.26
8168.45
6816.79
5510.41
4500.46
3792.57
3203.68
2675.31
2231.03
1860.43
1545.33
1278.99
1053.01
855.308
674.741
504.61
342.59
189.217
46.6642
-82.3694
-195.143
-288.965
-361.55
-411.185
-437.421
-441.453
-426.103
-395.483
-354.795
-309.574
-264.532
-222.647
-185.067
-151.961
-123.092
-98.138
-76.7437
-58.5185
-43.0518
-29.942
-18.8207
-9.36562
-1.30421
5.58821
11.4938
16.5582
20.8974
24.6041
27.7533
30.4079
32.6221
34.4442
35.9179
37.0831
37.9762
38.6302
39.075
39.3374
39.4412
39.4079
39.2564
39.0036
38.6644
38.2523
37.7794
37.2559
36.6899
36.0896
35.4738
34.8642
34.2288
33.3462
-16874.8
-15819.4
-14493.9
-13157.4
-11721
-10298.5
-8910.19
-7607.71
-6446.71
-5459.22
-4624.14
-3870.52
-3163.27
-2557.44
-2108.67
-1805.03
-1604.2
-1467.84
-1366.27
-1276.46
-1180.24
-1067.62
-940.403
-811.374
-695.698
-600.898
-524.921
-461.414
-404.597
-350.937
-299.372
-250.116
-204.349
-163.765
-129.87
-103.144
-83.1364
-68.6748
-58.395
-51.0025
-45.0788
-39.5973
-33.8746
-27.8113
-21.5025
-15.1012
-8.76604
-2.63203
3.19968
8.66111
13.7114
18.3292
22.506
26.2408
29.5379
32.4059
34.8584
36.9146
38.5997
39.943
40.9762
41.7321
42.2422
42.5368
42.644
42.5893
42.3961
42.0854
41.6759
41.1844
40.6257
40.013
39.3578
38.6701
37.9571
37.2257
36.4919
35.7766
35.0549
34.1054
-11206.7
-11067.2
-10867
-10665.6
-10490.7
-10317.9
-10043.4
-9605.79
-9009.78
-8304
-7562.76
-6856.02
-6236.05
-5719.34
-5288.86
-4909.72
-4547.3
-4181.16
-3802.16
-3405.19
-2984.13
-2539.06
-2092.17
-1686.65
-1357.57
-1109.34
-922.451
-775.452
-654.624
-551.907
-461.391
-379.601
-305.68
-240.864
-186.175
-141.729
-106.71
-79.7031
-59.0211
-42.7847
-29.7382
-19.0472
-10.2611
-2.86777
3.51148
9.1288
14.1528
18.6974
22.8422
26.6451
30.1459
33.3666
36.3112
38.9684
41.3146
43.3205
44.9621
46.2324
47.1456
47.7336
48.0369
48.097
47.9522
47.6365
47.1792
46.6057
45.9382
45.1963
44.3967
43.554
42.6809
41.7881
40.8848
39.9785
39.0743
38.176
37.2956
36.4527
35.6304
34.6046
19729.8
19372.2
18921.1
18259.8
17325.8
16248.4
15101.4
13889.9
12590.3
11206.6
9780
8360.82
6984.12
5668.55
4433.5
3308.08
2322.33
1496.43
836.404
333.85
-30.385
-281.805
-444.667
-539.188
-579.768
-577.143
-541.495
-483.316
-412.372
-336.479
-261.444
-191.66
-130.376
-79.1851
-38.5885
-8.08542
13.6475
28.2729
37.4749
42.8288
45.6794
47.0599
47.7067
48.0417
48.3381
48.7125
49.1903
49.7524
50.3661
51.0062
51.6707
52.3871
53.1986
54.1235
55.1086
56.0199
56.6961
57.0242
56.9751
56.592
55.9476
55.1103
54.135
53.0609
51.9158
50.7206
49.4925
48.2461
46.9943
45.748
44.5162
43.3064
42.1247
40.9756
39.8614
38.7827
37.7465
36.7708
35.8501
34.7606
-3501.7
-3189.7
-2846.54
-2541.17
-2194.73
-1795.82
-1309.54
-734.866
-98.9027
574.811
1281.85
2023.08
2762.9
3423.42
3930.22
4251.26
4395.28
4390.93
4269.37
4059.01
3784.41
3466.93
3125.7
2777.47
2436.12
2112.25
1812.97
1542.22
1301.31
1089.82
906.2
748.009
612.996
499.16
404.605
327.489
265.944
217.869
180.986
153.06
132.081
116.349
104.504
95.511
88.6283
83.3428
79.3095
76.2936
74.1263
72.6751
71.8228
71.444
71.3805
71.4243
71.3337
70.8872
69.969
68.6043
66.9207
65.0674
63.1573
61.2563
59.3931
57.5734
55.7922
54.0426
52.3214
50.6298
48.9726
47.357
45.7903
44.2795
42.83
41.4458
40.1283
38.876
37.6907
36.5878
35.583
34.4795
-12183.6
-11737.5
-11203.8
-10650.5
-10077.1
-9512.11
-8884.53
-8116.81
-7178.09
-6113.63
-5024.22
-4014.26
-3147.39
-2433.06
-1843.14
-1340.99
-901.574
-513.661
-174.888
114.014
352.668
542.387
686.128
787.755
852.073
884.432
890.352
875.166
843.72
800.246
748.353
691.038
630.638
569.108
508.165
449.334
393.799
342.276
295.1
252.345
213.956
179.835
149.903
124.123
102.507
85.0827
71.8386
62.6345
57.137
54.8038
54.9336
56.7525
59.5112
62.5709
65.4525
67.6421
68.9595
69.3814
69.0323
68.0712
66.6537
64.9184
62.9779
60.9162
58.7879
56.6338
54.4855
52.3689
50.3052
48.3117
46.4015
44.5839
42.8654
41.2492
39.736
38.3221
37.0023
35.7838
34.7058
33.6562
11356.2
11054.4
10621.4
9950.76
8922.68
7800.22
6807.79
5987.31
5265.65
4598.85
3978.37
3400.41
2867.45
2387.77
1968.29
1611.27
1315.14
1075.35
886.022
740.944
632.774
553.696
495.206
449.695
411.366
376.307
342.165
307.688
272.496
237.175
203.261
172.761
147.454
128.244
114.955
106.595
101.778
99.1033
97.3999
95.8183
93.8245
91.1544
87.7621
83.774
79.4503
75.1394
71.2167
68.0137
65.7627
64.5734
64.4286
65.1938
66.6401
68.4449
70.2169
71.7034
72.5087
72.4783
71.6739
70.2732
68.4668
66.4103
64.2057
61.9123
59.5665
57.1955
54.8242
52.4772
50.1787
47.9504
45.8114
43.7766
41.857
40.0599
38.3884
36.8417
35.4192
34.1342
33.022
31.927
3149
3098.53
3017.9
2858.36
2544.42
2134.77
1722.94
1390.67
1156.92
998.819
887.32
794.424
691.199
552.085
361.925
120.485
-162.303
-469.463
-772.829
-1038.82
-1241.32
-1372.72
-1439.64
-1454.63
-1430.31
-1376.36
-1298.57
-1199.87
-1082.31
-949.61
-808.683
-668.91
-539.309
-425.715
-330.05
-251.264
-186.517
-132.956
-88.3381
-50.9293
-19.4395
7.06575
29.2578
47.6293
62.5628
74.3811
83.3795
89.8514
94.1099
96.5005
97.3921
97.1461
96.0751
94.4144
92.3228
89.8975
87.1916
84.245
81.1034
77.8202
74.4509
71.0482
67.6576
64.3167
61.0547
57.8939
54.8512
51.9394
49.1686
46.5471
44.0812
41.7749
39.6299
37.6448
35.8147
34.1316
32.5889
31.1911
29.9488
28.742
9.63976
4.54427
1.00008
-1.38505
-2.94571
-3.86654
-4.2454
-4.1767
-3.76747
-3.17738
-2.53535
-1.94219
-1.46433
-1.13567
-0.954965
-0.894178
-0.916721
-0.992457
-1.1042
-1.24658
-1.421
-1.63041
-1.87593
-2.15582
-2.46585
-2.80033
-3.15307
-3.51813
-3.8899
-4.26267
-4.62987
-4.98324
-5.31265
-5.60659
-5.85349
-6.04319
-6.16795
-6.22304
-6.2068
-6.1204
-5.96775
-5.75685
-5.50309
-5.21373
-4.90159
-4.58094
-4.26458
-3.96352
-3.68625
-3.43835
-3.22256
-3.03905
-2.88597
-2.75996
-2.65675
-2.57177
-2.50056
-2.43907
-2.38384
-2.33211
-2.28181
-2.23155
-2.18048
-2.12822
-2.07475
-2.02035
-1.96546
-1.91064
-1.85647
-1.80356
-1.75245
-1.70359
-1.65732
-1.61384
-1.57322
-1.53539
-1.50013
-1.46713
-1.43596
-1.40611
-1.37705
-1.34827
-1.31925
-1.28948
-1.25851
-1.22597
-1.19166
-1.15551
-1.11763
-1.07818
-1.03745
-0.995821
-0.953788
-0.911972
-0.871084
-0.831924
-0.795381
-0.762444
-0.734186
-0.711717
-0.696122
-0.688415
-0.689493
-0.700099
-0.720728
-0.751534
-0.792141
-0.841662
-0.899011
-0.962392
-1.02884
-1.095
-1.15729
-1.21198
-1.25542
-1.28441
-1.29655
-1.29051
-1.26625
-1.22509
-1.16947
-1.10262
-1.02815
-0.949664
-0.870509
-0.793611
-0.721409
-0.655812
-0.598222
-0.549593
-0.510511
-0.481258
-0.461856
-0.452131
-0.451814
-0.460656
-0.478504
-0.505313
-0.541076
-0.585741
-0.639143
-0.700987
-0.770873
-0.848345
-0.932954
-1.02434
-1.12231
-1.22688
-1.33824
-1.45662
-1.5822
-1.71495
-1.85458
-2.00052
-2.15191
-2.30761
-2.46618
-2.6259
-2.78479
-2.94071
-3.09143
-3.23468
-3.36816
-3.48959
-3.59679
-3.68774
-3.76067
-3.81415
-3.8471
-3.85884
-3.84906
-3.81783
-3.76559
-3.6932
-3.60185
-3.49304
-3.36851
-3.23018
-3.08006
-2.92021
-2.75268
-2.57949
-2.40261
-2.22387
-2.04499
-1.86751
-1.69277
-1.52188
-1.35585
-1.19534
-1.04121
-0.893555
-0.753538
-0.620038
-0.49589
-0.376501
-0.271008
-0.163487
-0.0853861
0.0149442
11.8442
6.99056
3.6213
1.36424
-0.114989
-1.03587
-1.49993
-1.58599
-1.38502
-1.01718
-0.620415
-0.257428
0.0191374
0.169169
0.191746
0.112262
-0.0371089
-0.230391
-0.453339
-0.702258
-0.979263
-1.28747
-1.62805
-1.99931
-2.39721
-2.81645
-3.25144
-3.69688
-4.14755
-4.59764
-5.03984
-5.46467
-5.86064
-6.21525
-6.51653
-6.75426
-6.92058
-7.01
-7.01922
-6.9468
-6.793
-6.5623
-6.28913
-5.96509
-5.60701
-5.23264
-4.85789
-4.49648
-4.15905
-3.85283
-3.58172
-3.34667
-3.1462
-2.97713
-2.83518
-2.71566
-2.61391
-2.52564
-2.44709