/*--------------------------------*- C++ -*----------------------------------*\
| =========                 |                                                 |
| \\      /  F ield         | OpenFOAM: The Open Source CFD Toolbox           |
|  \\    /   O peration     | Version:  2012                                  |
|   \\  /    A nd           | Website:  www.openfoam.com                      |
|    \\/     M anipulation  |                                                 |
\*---------------------------------------------------------------------------*/
FoamFile
{
    version     2.0;
    format      ascii;
    class       surfaceScalarField;
    location    "0.7";
    object      phi;
}
// * * * * * * * * * * * * * * * * * * * * * * * * * * * * * * * * * * * * * //

dimensions      [0 3 -1 0 0 0 0];
oriented        oriented;


internalField   nonuniform List<scalar> 
84340
(
0.00105323
-0.000646386
-0.000406846
0.00259654
-0.0009296
-0.000613709
0.00401748
-0.000792272
-0.000628669
0.00537242
-0.000667167
-0.000687767
0.00676858
-0.000602608
-0.000793552
0.00818929
-0.000524148
-0.000896566
0.00953176
-0.000354673
-0.000987796
0.0106924
-8.16043e-05
-0.00107905
0.0116099
0.000243786
-0.00116126
0.0122822
0.000538222
-0.00121048
0.0127377
0.000750386
-0.00120596
0.0130005
0.000864937
-0.00112767
0.0130683
0.000900858
-0.000968661
0.0129047
0.000895423
-0.000731903
0.0124652
0.000874802
-0.000435263
0.0117348
0.000835011
-0.000104594
0.0107472
0.00075921
0.000228404
0.00956218
0.000654708
0.000530285
0.00823736
0.00054649
0.000778323
0.00683447
0.00045579
0.000947105
0.00539413
0.000392344
0.001048
0.00394987
0.000346997
0.00109726
0.00253497
0.000303465
0.00111144
0.00118558
0.000248909
0.00110047
-6.01353e-05
0.000179872
0.00106585
-0.00116408
0.000102172
0.00100177
-0.00209166
2.66999e-05
0.000900882
-0.002815
-3.68844e-05
0.000760229
-0.00331568
-8.47337e-05
0.000585413
-0.00358941
-0.000119903
0.000393626
-0.00365124
-0.00015038
0.000212216
-0.00353664
-0.000185269
7.06664e-05
-0.00329602
-0.000229205
-1.14152e-05
-0.00297735
-0.000289122
-2.95465e-05
-0.00262663
-0.000354646
3.93052e-06
-0.00226534
-0.000421502
6.02053e-05
-0.00191369
-0.000483452
0.0001318
-0.00158566
-0.000535279
0.000207252
-0.0012885
-0.000573567
0.000276407
-0.0010263
-0.000596949
0.000334747
-0.000800973
-0.00060572
0.000380395
-0.000612584
-0.000601282
0.000412893
-0.000459538
-0.000585575
0.000432529
-0.0003389
-0.000560639
0.000440002
-0.000246779
-0.000528401
0.00043628
-0.000178768
-0.000490676
0.000422666
-0.000130433
-0.000449285
0.00040095
-9.78182e-05
-0.000406144
0.000373529
-7.78726e-05
-0.000363182
0.000343236
-6.85573e-05
-0.000322211
0.000312896
-6.85759e-05
-0.000284663
0.000284682
-7.69246e-05
-0.000251408
0.000259757
-9.25582e-05
-0.000222718
0.000238352
-0.000114216
-0.000198363
0.000220021
-0.000140495
-0.000177795
0.000204074
-0.000169911
-0.000160343
0.000189759
-0.000200931
-0.000145374
0.000176394
-0.000232017
-0.000132412
0.000163498
-0.000261738
-0.000121214
0.000150936
-0.000288878
-0.000111781
0.000138921
-0.000312507
-0.000104338
0.000127967
-0.000332019
-9.92695e-05
0.000118781
-0.0003471
-9.70561e-05
0.000112137
-0.000357663
-9.81945e-05
0.000108757
-0.000363736
-0.000103144
0.000109215
-0.000365341
-0.000112283
0.000113888
-0.00036239
-0.000125888
0.000122937
-0.000354599
-0.000144124
0.000136333
-0.000341443
-0.000167052
0.000153895
-0.000322148
-0.00019463
0.000175335
-0.000295731
-0.000226711
0.000200295
-0.000261064
-0.000263037
0.00022837
-0.00021696
-0.000303225
0.000259121
-0.000162274
-0.000346766
0.000292079
-9.59892e-05
-0.000393037
0.000326753
-1.72787e-05
-0.000441378
0.000362668
7.45356e-05
-0.000491241
0.000399427
0.000180275
-0.000542546
0.000436808
0.000301776
-0.000596456
0.000474954
-0.000657549
0.00051459
0.000444736
-0.000854227
0.000207841
-0.00201224
0.000228417
-0.00286718
6.26619e-05
-0.00347771
-5.66353e-05
-0.00398915
-9.11718e-05
-0.00450316
-1.01357e-05
-0.00504508
0.00018725
-0.00557675
0.000450069
-0.00604281
0.000709844
-0.00641107
0.000906476
-0.00666576
0.00100508
-0.00680223
0.0010014
-0.00681801
0.000916642
-0.00670513
0.000782543
-0.00645751
0.000627188
-0.00608824
0.000465739
-0.00562374
0.000294703
-0.00508884
0.000119815
-0.00449756
-4.47917e-05
-0.00385581
-0.000185966
-0.00316266
-0.000300802
-0.00242441
-0.00039125
-0.00165965
-0.000461296
-0.000896322
-0.000514421
-0.000165585
-0.000550865
0.000507008
-0.000570421
0.00110817
-0.000574467
0.00163354
-0.000562249
0.00208396
-0.000535159
0.00246095
-0.000496889
0.00276414
-0.000453573
0.00299163
-0.000412754
0.003143
-0.000380573
0.00321425
-0.000360371
0.00321307
-0.000353475
0.0031434
-0.000351829
0.00301623
-0.000356282
0.00284623
-0.000365278
0.00264528
-0.000372613
0.00242466
-0.000376337
0.0021948
-0.000375857
0.00196498
-0.000371466
0.00174293
-0.000363524
0.0015344
-0.000352109
0.00134278
-0.000336781
0.0011692
-0.000317098
0.00101295
-0.000293034
0.000872195
-0.000265387
0.000744838
-0.000235824
0.000629019
-0.000206392
0.000523352
-0.000178995
0.000426711
-0.000154768
0.00033801
-0.000134017
0.000256154
-0.000116507
0.000180148
-0.000101789
0.000109224
-8.94182e-05
4.29055e-05
-7.90557e-05
-1.89207e-05
-7.05865e-05
-7.61491e-05
-6.3986e-05
-0.000128599
-5.93309e-05
-0.000176023
-5.69141e-05
-0.000218213
-5.70792e-05
-0.000255088
-6.01817e-05
-0.000286621
-6.66609e-05
-0.000312763
-7.70016e-05
-0.000333361
-9.16846e-05
-0.000348084
-0.000111165
-0.000356365
-0.000135843
-0.000357381
-0.000166036
-0.000350069
-0.000201942
-0.000333179
-0.000243602
-0.000305352
-0.000290864
-0.000265232
-0.000343345
-0.000211591
-0.000400407
-0.00014346
-0.000461168
-6.02815e-05
-0.000524557
3.7961e-05
-0.000589484
0.000150646
-0.000655231
0.000276525
-0.000722334
-0.000794927
0.000413903
0.000132065
7.57757e-05
0.000463433
-0.000102951
0.00101602
-0.000489922
0.00168769
-0.000728307
0.00228269
-0.000686174
0.00273639
-0.000463835
0.00311949
-0.00019585
0.00353716
3.23994e-05
0.00405901
0.000187994
0.00469338
0.000272104
0.0054033
0.000295161
0.00614096
0.000263746
0.00687093
0.000186675
0.00757024
8.3223e-05
0.00821975
-2.23152e-05
0.00880117
-0.000115688
0.00929271
-0.000196834
0.00968141
-0.000268882
0.00997277
-0.000336153
0.0101916
-0.000404781
0.0103724
-0.000481595
0.010552
-0.000570824
0.010761
-0.000670353
0.0110217
-0.00077514
0.0113337
-0.000862832
0.0116406
-0.000877299
0.0118431
-0.000776993
0.011827
-0.000546137
0.0115545
-0.000262712
0.0110795
-2.18765e-05
0.0104924
0.000133533
0.00986602
0.000213654
0.00924138
0.000244066
0.00863748
0.000243522
0.00806053
0.000223482
0.00751633
0.000192364
0.00700328
0.000156775
0.00651661
0.000121393
0.00605544
8.85544e-05
0.00561405
6.50497e-05
0.00518732
5.08757e-05
0.00477356
4.22907e-05
0.00437201
3.80228e-05
0.00398256
3.73488e-05
0.00360539
4.03855e-05
0.003241
4.7296e-05
0.00289028
5.76881e-05
0.00255473
7.01564e-05
0.00223644
8.24668e-05
0.00193568
9.43747e-05
0.00165533
0.000101348
0.00139787
0.000102691
0.0011647
9.9161e-05
0.000956137
9.20515e-05
0.000771664
8.26842e-05
0.000609973
7.22729e-05
0.000467878
6.30404e-05
0.00034335
5.39413e-05
0.000234374
4.49902e-05
0.000137765
3.7279e-05
5.2361e-05
2.84897e-05
-2.21715e-05
1.74532e-05
-8.74298e-05
5.07633e-06
-0.000144233
-9.85823e-06
-0.00019287
-2.83645e-05
-0.00023344
-5.11143e-05
-0.000265727
-7.88773e-05
-0.000289178
-0.000112393
-0.000302923
-0.000152291
-0.000305837
-0.000199028
-0.000296619
-0.00025282
-0.0002739
-0.000313582
-0.000236373
-0.000380872
-0.000182929
-0.00045385
-0.000112811
-0.000531285
-2.57191e-05
-0.000611649
7.78065e-05
-0.000693009
0.00019625
-0.000773675
0.000326749
-0.000852833
-0.000932682
0.000464504
0.000245976
-0.0001702
0.00052433
-0.000381306
0.000540533
-0.000506125
0.000323852
-0.000511627
8.89557e-05
-0.000451278
3.331e-05
-0.000408189
0.000218988
-0.000381528
0.000577537
-0.00032615
0.000992109
-0.000226578
0.00137948
-0.000115268
0.0017421
-6.74555e-05
0.00217021
-0.000164362
0.00276628
-0.0004094
0.00355156
-0.000702059
0.0044614
-0.00093215
0.0054246
-0.00107889
0.00640038
-0.00117261
0.00733889
-0.00120739
0.00818548
-0.00118275
0.00890131
-0.00112061
0.00944629
-0.00102657
0.00979572
-0.000920256
0.00991991
-0.000794536
0.00979367
-0.000648909
0.00939847
-0.000467623
0.00873901
-0.00021784
0.00783939
0.000122623
0.00677821
0.000515044
0.00565997
0.000855529
0.00458775
0.00105034
0.00363838
0.0010829
0.00285253
0.000999509
0.00223942
0.000857175
0.00178654
0.000696398
0.00146839
0.000541636
0.00125073
0.000410019
0.00110239
0.000305112
0.00100581
0.000217973
0.000935272
0.000159097
0.000876968
0.000123354
0.000824311
0.000103532
0.000772732
9.38699e-05
0.000720664
9.00912e-05
0.000668519
8.9493e-05
0.000617918
9.09869e-05
0.000570778
9.44358e-05
0.000529168
9.9298e-05
0.000495917
0.000103408
0.000470205
0.000108178
0.000451803
0.000112776
0.000436794
0.000116357
0.000421048
0.000118436
0.000402803
0.000117406
0.000380483
0.000114371
0.000352318
0.00011085
0.000318074
0.000106517
0.000279659
0.000101456
0.000237929
9.56711e-05
0.000193846
8.90729e-05
0.000149688
8.14373e-05
0.000105903
7.22748e-05
6.22807e-05
6.10761e-05
2.05064e-05
4.6851e-05
-1.83384e-05
2.89868e-05
-5.35258e-05
6.82289e-06
-8.40223e-05
-2.06177e-05
-0.000108467
-5.44324e-05
-0.000125437
-9.54227e-05
-0.000133422
-0.000144306
-0.000130871
-0.00020158
-0.000116269
-0.000267422
-8.82266e-05
-0.000341624
-4.55727e-05
-0.000423526
1.25519e-05
-0.000511975
8.65955e-05
-0.000605329
0.000176345
-0.000701399
0.000281112
-0.000797776
0.000399158
-0.000891722
0.000527348
-0.000981023
-0.00106502
0.00065969
-6.75664e-05
-0.000102633
-0.00028976
-0.000159112
-0.000687191
-0.000108694
-0.00107644
-0.000122383
-0.00119934
-0.000328372
-0.000915723
-0.000691807
-0.000272362
-0.00102489
0.000545639
-0.00114415
0.00133102
-0.00101196
0.00192878
-0.000713019
0.00222223
-0.000360907
0.00206419
-6.3267e-06
0.00120457
0.000450223
-0.000647957
0.00115047
-0.00324264
0.00166253
-0.00536714
0.0010456
-0.00611997
-0.000419776
-0.00593139
-0.00139597
-0.00551817
-0.00159597
-0.00512966
-0.00150912
-0.00482086
-0.00133537
-0.00462973
-0.00111138
-0.00455023
-0.00087404
-0.00456277
-0.000636365
-0.00462447
-0.000405927
-0.00465531
-0.000186995
-0.004545
1.23046e-05
-0.00420819
0.000178234
-0.0036485
0.000295848
-0.00295611
0.000357948
-0.00224281
0.000369605
-0.0015875
0.000344202
-0.00102728
0.000296947
-0.000571205
0.000240329
-0.000216479
0.00018691
5.297e-05
0.00014057
0.000252606
0.000105476
0.000388546
8.20336e-05
0.000478597
6.9046e-05
0.000537782
6.41688e-05
0.000576428
6.48862e-05
0.000601304
6.89941e-05
0.000616494
7.49011e-05
0.000624319
8.16684e-05
0.000626414
8.88918e-05
0.000624411
9.64387e-05
0.000619567
0.000104142
0.00061122
0.000111756
0.000600407
0.000118991
0.000587842
0.000125342
0.000574639
0.00012956
0.00055797
0.000135105
0.000537416
0.000137961
0.000512947
0.00013884
0.000485815
0.000137983
0.000456748
0.000135583
0.000426462
0.000131742
0.000395668
0.000126465
0.000365083
0.000119658
0.000335432
0.000111088
0.000307337
0.00010037
0.000281461
8.69512e-05
0.000258225
7.00874e-05
0.000238485
4.87276e-05
0.000222951
2.23569e-05
0.000212508
-1.01744e-05
0.000208245
-5.01698e-05
0.00021132
-9.84981e-05
0.000222892
-0.000155879
0.000244058
-0.000222746
0.000275772
-0.000299136
0.000318753
-0.000384606
0.000373405
-0.000478177
0.000439761
-0.000578331
0.000517454
-0.000683022
0.000605791
-0.000789736
0.000703568
-0.000895552
0.00080913
-0.000997284
0.000919968
-0.00109186
-0.0011766
0.00103154
-3.76942e-05
-6.49392e-05
-7.50352e-05
-0.000121771
3.18026e-05
-0.000215532
0.000372234
-0.000462814
0.000936945
-0.000893083
0.00167939
-0.00143426
0.00260391
-0.00194941
0.00378131
-0.00232154
0.00528275
-0.0025134
0.00711703
-0.0025473
0.00918076
-0.00242464
0.0112058
-0.00203137
0.0128765
-0.00122044
0.0139423
8.45975e-05
0.01418
0.00142487
0.0135337
0.00169186
0.0122569
0.000857098
0.0106961
0.000164766
0.00909022
9.93898e-06
0.00756673
1.43691e-05
0.00619935
3.20072e-05
0.00502463
6.33386e-05
0.004027
0.00012359
0.00318879
0.000201846
0.00248844
0.00029442
0.00191524
0.000386206
0.0014684
0.000459148
0.00114427
0.000502356
0.000925401
0.000514721
0.000782175
0.000501173
0.000683256
0.000468524
0.000603185
0.000424273
0.000525078
0.000375054
0.000439459
0.000325948
0.000346244
0.000280125
0.000247736
0.000239077
0.000149989
0.000203223
5.94914e-05
0.000172531
-1.80445e-05
0.000146582
-7.88223e-05
0.000124946
-0.000121163
0.000107226
-0.000145256
9.30877e-05
-0.000152472
8.21163e-05
-0.000144878
7.40752e-05
-0.000124996
6.90088e-05
-9.50766e-05
6.65197e-05
-5.71437e-05
6.62091e-05
-1.30606e-05
6.76728e-05
3.54334e-05
7.04976e-05
8.65015e-05
7.42736e-05
0.000137445
7.86163e-05
0.00018925
8.33005e-05
0.000238856
8.83547e-05
0.000284855
9.28418e-05
0.000328548
9.42895e-05
0.000368822
9.53096e-05
0.00040513
9.54339e-05
0.000437627
9.39679e-05
0.000466788
9.0497e-05
0.00049329
8.45863e-05
0.000517944
7.57166e-05
0.000541638
6.32572e-05
0.000565034
4.66912e-05
0.000589597
2.41642e-05
0.000616168
-4.21359e-06
0.000645884
-3.98906e-05
0.000679649
-8.39347e-05
0.00071833
-0.000137179
0.000762671
-0.000200219
0.000813198
-0.000273272
0.000870141
-0.00035608
0.000933369
-0.000447833
0.00100234
-0.000547148
0.00107609
-0.000652082
0.00115329
-0.000760224
0.00123236
-0.000868805
0.00131161
-0.000974803
0.00138938
-0.00107505
0.00146364
-0.00116612
-0.001247
0.00153404
-0.00028412
0.00021918
-0.000743782
0.000337892
-0.00118026
0.000220944
-0.00162517
-1.79052e-05
-0.00221796
-0.00030029
-0.00301778
-0.000634432
-0.00393189
-0.0010353
-0.00473037
-0.00152307
-0.00516346
-0.00208031
-0.00512083
-0.00258993
-0.00473714
-0.00280833
-0.00419247
-0.00257604
-0.00336364
-0.00204927
-0.00179369
-0.00148535
0.00041516
-0.000783978
0.00212442
-1.73997e-05
0.00241201
0.000569499
0.00166551
0.000911272
0.000599248
0.0010762
-0.00050532
0.00111894
-0.00154454
0.00107123
-0.00243925
0.000958048
-0.00312751
0.000811852
-0.00359852
0.000672856
-0.0038718
0.000567693
-0.00398454
0.000498946
-0.0039778
0.00045241
-0.00388773
0.00041229
-0.00374344
0.00037043
-0.0035682
0.000325931
-0.00337486
0.000275183
-0.00317536
0.000224777
-0.00297677
0.00017646
-0.0027822
0.000131376
-0.00259233
9.02542e-05
-0.0024065
5.3257e-05
-0.00222444
2.1155e-05
-0.00204559
-6.31362e-06
-0.00186969
-2.93229e-05
-0.00169681
-4.7932e-05
-0.00152715
-6.2431e-05
-0.00136104
-7.30187e-05
-0.00119899
-7.99414e-05
-0.00104144
-8.34708e-05
-0.000888535
-8.38967e-05
-0.000740452
-8.15635e-05
-0.000597384
-7.68587e-05
-0.000459515
-7.01956e-05
-0.000327005
-6.20122e-05
-0.000199991
-5.27401e-05
-7.85403e-05
-4.28344e-05
3.7362e-05
-3.26015e-05
0.000148281
-2.25637e-05
0.000254243
-1.31202e-05
0.000353273
-4.74116e-06
0.000446297
2.28609e-06
0.000534096
7.63495e-06
0.000617188
1.08768e-05
0.000696144
1.15409e-05
0.000771627
9.10335e-06
0.00084435
2.99352e-06
0.000915067
-7.46075e-06
0.000984847
-2.30881e-05
0.00105377
-4.47568e-05
0.00112291
-7.33512e-05
0.00119285
-0.000109835
0.00126398
-0.000155064
0.0013365
-0.000209697
0.00141036
-0.00027408
0.00148522
-0.000348137
0.00156042
-0.000431276
0.00163492
-0.000522337
0.00170736
-0.000619585
0.00177606
-0.000720784
0.00183916
-0.00082332
0.00189473
-0.000924383
0.00194103
-0.0010211
0.00197668
-0.00111069
0.002
-0.00118944
-0.00125979
0.0020128
-2.00634e-05
0.000239244
-0.000418132
0.000735961
-0.00119595
0.000998762
-0.00199694
0.00078308
-0.00267124
0.00037401
-0.00330729
1.62109e-06
-0.00405621
-0.00028638
-0.00502884
-0.000550434
-0.0062443
-0.000864854
-0.00763446
-0.00119977
-0.00910579
-0.00133701
-0.0105536
-0.00112825
-0.0118932
-0.00070963
-0.013043
-0.000335559
-0.0137731
-5.39098e-05
-0.0139719
0.000181443
-0.0137551
0.000352666
-0.0132908
0.000446968
-0.0126867
0.000472065
-0.0119978
0.00043011
-0.0112606
0.000333987
-0.0105176
0.000215072
-0.00981125
0.000105495
-0.00916693
2.85399e-05
-0.00858107
-1.81677e-05
-0.00803071
-5.14149e-05
-0.00749592
-8.23833e-05
-0.00696456
-0.00011907
-0.00643404
-0.000160086
-0.00591309
-0.000195023
-0.00541531
-0.000222596
-0.00494135
-0.000249182
-0.0044964
-0.000268489
-0.00408206
-0.000282967
-0.0036988
-0.000293006
-0.00334458
-0.000300962
-0.00301624
-0.000307185
-0.00271081
-0.000311738
-0.0024257
-0.00031444
-0.00215857
-0.000315054
-0.0019076
-0.000313401
-0.00167129
-0.000309334
-0.00144843
-0.000302799
-0.00123805
-0.000293849
-0.0010393
-0.000282653
-0.000851367
-0.000269493
-0.000673475
-0.00025475
-0.000504778
-0.000238893
-0.0003444
-0.00022239
-0.00019143
-0.00020571
-4.49907e-05
-0.000189274
9.58523e-05
-0.000173444
0.00023183
-0.000158542
0.000363556
-0.000144847
0.00049143
-0.000132615
0.000615822
-0.000122106
0.000737051
-0.000113594
0.000855342
-0.000107415
0.000970859
-0.000103976
0.00108373
-0.00010377
0.00119411
-0.00010738
0.00130213
-0.000115481
0.00140789
-0.000128856
0.00151144
-0.000148302
0.00161274
-0.000174649
0.00171157
-0.000208667
0.00180749
-0.00025099
0.00189982
-0.000302017
0.00198755
-0.000361818
0.00206946
-0.000430045
0.00214406
-0.000505871
0.0022097
-0.000587977
0.00226469
-0.000674576
0.00230742
-0.000763513
0.00233651
-0.000852412
0.00235096
-0.000938838
0.00235024
-0.00102038
0.00233424
-0.0010947
0.00230326
-0.00115846
-0.00121436
0.00225783
-0.000111947
0.000351191
-0.000702997
0.00132701
-0.00184606
0.00214183
-0.00311536
0.00205238
-0.00409894
0.00135759
-0.00477815
0.000680832
-0.00532681
0.000262279
-0.00593316
5.59168e-05
-0.00674685
-5.11664e-05
-0.00780375
-0.000142865
-0.00893432
-0.000206442
-0.00987232
-0.000190242
-0.0105023
-7.96052e-05
-0.010897
5.90484e-05
-0.0111074
0.000156531
-0.0111053
0.000179343
-0.0108715
0.000118876
-0.0104179
-6.65704e-06
-0.00977912
-0.000166694
-0.00901861
-0.000330399
-0.00821918
-0.000465442
-0.0074607
-0.000543412
-0.00679908
-0.000556126
-0.00624778
-0.000522756
-0.00578261
-0.000483345
-0.005363
-0.000471022
-0.00495084
-0.000494541
-0.00453848
-0.000531432
-0.00414492
-0.000553649
-0.00379006
-0.00054988
-0.0034758
-0.000536853
-0.00320659
-0.000518393
-0.00297357
-0.000501515
-0.00276575
-0.000490786
-0.00257151
-0.000487241
-0.0023827
-0.000489777
-0.00219407
-0.000495817
-0.0020031
-0.000502703
-0.00180933
-0.000508213
-0.00161365
-0.000510734
-0.0014178
-0.000509249
-0.00122392
-0.000503216
-0.00103427
-0.000492441
-0.000851109
-0.000477014
-0.000676441
-0.000457322
-0.000511838
-0.000434096
-0.000358197
-0.00040839
-0.000215613
-0.000381477
-8.32978e-05
-0.000354705
4.0287e-05
-0.000329295
0.000157207
-0.000306193
0.000269765
-0.000286002
0.000380207
-0.000268984
0.00049049
-0.000255129
0.00060213
-0.000244254
0.000716124
-0.0002361
0.000832964
-0.000230433
0.000952668
-0.000227118
0.00107487
-0.000226176
0.0011989
-0.000227805
0.00132391
-0.000232384
0.00144887
-0.000240447
0.00157266
-0.000252645
0.00169405
-0.000269689
0.00181168
-0.000292284
0.00192408
-0.000321066
0.00202961
-0.000356517
0.00212649
-0.000398896
0.00221283
-0.000448163
0.00228673
-0.000503935
0.00234632
-0.000565465
0.00238999
-0.000631651
0.00241652
-0.000701099
0.00242522
-0.000772214
0.00241611
-0.0008433
0.00238989
-0.000912619
0.00234784
-0.000978335
0.00229155
-0.00103841
0.00222354
-0.00109045
-0.00113445
0.00214363
-0.000105975
0.000457166
-0.000247231
0.00146827
-0.000420489
0.00231509
-0.000624195
0.00225609
-0.000610188
0.00134358
-0.00017665
0.000247294
0.000623069
-0.00053744
0.00158709
-0.000908106
0.00250371
-0.000967784
0.00319411
-0.000833268
0.00357803
-0.000590356
0.00370733
-0.000319544
0.00371038
-8.26545e-05
0.00365915
0.000110278
0.00355736
0.000258315
0.00337824
0.000358462
0.00310128
0.000395838
0.00272932
0.000365302
0.00227646
0.000286164
0.00175313
0.000192937
0.00118074
0.000106944
0.00060235
3.49795e-05
7.62718e-05
-3.00482e-05
-0.000343686
-0.000102798
-0.000632284
-0.000194746
-0.000797782
-0.000305524
-0.000875342
-0.000416981
-0.000920294
-0.00048648
-0.000955011
-0.000518932
-0.000992764
-0.000512126
-0.00104108
-0.000488533
-0.00108809
-0.000471384
-0.00111707
-0.000472543
-0.00111569
-0.000492159
-0.00107894
-0.000523991
-0.00100816
-0.000560562
-0.000908286
-0.000595688
-0.000785855
-0.000625134
-0.000647614
-0.000646454
-0.000499734
-0.000658615
-0.000347417
-0.000661566
-0.00019489
-0.000655743
-4.57278e-05
-0.000641603
9.66925e-05
-0.000619435
0.000228919
-0.000589548
0.000347512
-0.000552689
0.000449532
-0.000510411
0.000533176
-0.000465121
0.000598277
-0.000419806
0.000646534
-0.000377551
0.000681377
-0.000341037
0.000707505
-0.00031213
0.000730194
-0.000291672
0.000754556
-0.000279492
0.000784918
-0.000274616
0.000824422
-0.000275604
0.000874883
-0.000280894
0.000936865
-0.000289101
0.00100989
-0.000299203
0.00109272
-0.000310628
0.00118357
-0.000323236
0.00128036
-0.000337243
0.00138083
-0.000353112
0.00148258
-0.000371442
0.00158317
-0.00039287
0.0016801
-0.000417991
0.00177086
-0.000447285
0.00185303
-0.000481063
0.0019243
-0.00051943
0.00198261
-0.000562253
0.00202632
-0.000609166
0.00205425
-0.000659588
0.00206591
-0.000712761
0.00206149
-0.000767785
0.0020418
-0.000823612
0.00200817
-0.000878994
0.00196227
-0.000932437
0.00190614
-0.000982272
0.00184271
-0.00102702
-0.00106578
0.00177404
-0.000165984
0.00062315
-0.000178326
0.00148061
0.000214204
0.00192255
0.000668712
0.00180158
0.000880318
0.00113198
0.000905392
0.000222219
0.000923352
-0.000555399
0.00108216
-0.00106691
0.00147413
-0.00135976
0.00207659
-0.00143573
0.00273205
-0.00124581
0.00325261
-0.000840103
0.00355571
-0.000385759
0.00368877
-2.27831e-05
0.00373139
0.000215697
0.00374002
0.000349832
0.00371965
0.000416212
0.00365183
0.000433122
0.00352398
0.000414009
0.00334597
0.000370948
0.00313979
0.000313124
0.00292927
0.000245504
0.00272939
0.000169825
0.0025392
8.73939e-05
0.00234773
-3.27503e-06
0.00213372
-9.1518e-05
0.00188372
-0.000166981
0.00162017
-0.00022293
0.00135873
-0.000257488
0.00112451
-0.000277905
0.000935656
-0.000299681
0.000800856
-0.000336584
0.000719742
-0.000391429
0.000685783
-0.0004582
0.000689805
-0.000528014
0.000722296
-0.000593052
0.000774579
-0.000647971
0.000839209
-0.000689764
0.000909988
-0.000717233
0.00098209
-0.000730716
0.00105244
-0.000731914
0.00111968
-0.000722982
0.00118341
-0.000705336
0.00124295
-0.000678974
0.00129635
-0.000642951
0.00134034
-0.000596673
0.00137106
-0.00054113
0.00138522
-0.000479282
0.00138094
-0.000415531
0.00135817
-0.000354783
0.00131877
-0.000301632
0.00126641
-0.000259769
0.00120626
-0.000231526
0.00114441
-0.000217643
0.00108703
-0.000217234
0.00103949
-0.000228061
0.00100569
-0.000247094
0.000987783
-0.000271194
0.000986267
-0.000297687
0.00100034
-0.000324697
0.0010283
-0.000351199
0.00106793
-0.000376876
0.00111673
-0.000401909
0.00117206
-0.00042677
0.00123126
-0.000452067
0.0012917
-0.000478438
0.0013509
-0.000506477
0.00140652
-0.000536683
0.00145651
-0.000569424
0.00149917
-0.000604917
0.00153322
-0.000643212
0.00155781
-0.000684184
0.00157257
-0.000727522
0.00157749
-0.000772706
0.00157287
-0.000818993
0.00155933
-0.000865454
0.001538
-0.000911103
0.00151087
-0.000955139
0.00148098
-0.000997133
-0.00103703
0.00145222
0.000180726
0.000442424
0.000685095
0.000976239
0.00154999
0.00105766
0.00251286
0.000838713
0.00320517
0.000439668
0.00347792
-5.05383e-05
0.00343626
-0.000513739
0.00325789
-0.000888544
0.0030506
-0.00115246
0.00287431
-0.00125944
0.0027728
-0.0011443
0.00275584
-0.000823141
0.00279794
-0.000427861
0.00287241
-9.72524e-05
0.00296625
0.000121858
0.00306524
0.000250842
0.00316138
0.000320072
0.0032466
0.000347901
0.00331665
0.000343965
0.00336872
0.000318871
0.0033991
0.000282744
0.00340689
0.000237718
0.00338788
0.000188831
0.00333434
0.000140938
0.00323579
9.52788e-05
0.00309505
4.92127e-05
0.00292976
-1.68305e-06
0.00276775
-6.09196e-05
0.00263849
-0.000128232
0.00256208
-0.000201499
0.00254119
-0.000278783
0.00256309
-0.000358486
0.00260977
-0.000438115
0.0026654
-0.000513831
0.00271845
-0.000581059
0.00276081
-0.000635413
0.00278625
-0.000673411
0.00278963
-0.000693144
0.00276761
-0.00069521
0.00272065
-0.000683756
0.00265456
-0.000665829
0.00257835
-0.000646772
0.00249976
-0.000626743
0.00242198
-0.000601196
0.00234337
-0.000564345
0.00225934
-0.000512635
0.00216506
-0.000446856
0.00205805
-0.00037227
0.00193928
-0.000296758
0.00181277
-0.000228274
0.001684
-0.000172868
0.00155829
-0.000134057
0.00143988
-0.00011311
0.00133175
-0.000109513
0.0012359
-0.000121389
0.00115365
-0.000145813
0.0010858
-0.000179238
0.00103269
-0.000218085
0.000994282
-0.000259279
0.000970152
-0.000300567
0.000959514
-0.000340561
0.000961242
-0.000378603
0.000973894
-0.000414562
0.000995775
-0.00044865
0.001025
-0.000481298
0.00105962
-0.000513052
0.00109764
-0.000544502
0.00113717
-0.000576214
0.00117643
-0.00060868
0.00121379
-0.000642277
0.00124782
-0.000677245
0.00127731
-0.000713674
0.00130129
-0.0007515
0.00131912
-0.00079053
0.00133062
-0.000830494
0.00133629
-0.000871131
0.00133745
-0.000912262
0.00133611
-0.000953799
0.00133463
-0.000995648
-0.00103742
0.00133502
0.000427393
1.50308e-05
0.00119677
0.000206862
0.00201246
0.000241971
0.00273425
0.000116922
0.00322829
-5.43688e-05
0.00338889
-0.000211146
0.00317471
-0.00029956
0.00258613
-0.000299958
0.00166271
-0.000229041
0.0005272
-0.000123935
-0.000595807
-2.12922e-05
-0.00148052
6.15682e-05
-0.00203268
0.000124299
-0.00229872
0.000168793
-0.00237262
0.000195756
-0.00232737
0.000205588
-0.00220938
0.000202091
-0.0020315
0.00017002
-0.00181186
0.000124325
-0.00155723
6.42332e-05
-0.00126493
-9.55499e-06
-0.000934775
-9.24338e-05
-0.000572288
-0.000173656
-0.000191343
-0.000240006
0.000187762
-0.000283826
0.000550012
-0.000313037
0.000893077
-0.000344749
0.00121934
-0.000387178
0.00152707
-0.000435964
0.0018117
-0.000486135
0.00207073
-0.000537812
0.0023046
-0.000592358
0.00251561
-0.000649119
0.00270622
-0.000704444
0.00287652
-0.000751357
0.00302141
-0.000780309
0.00312908
-0.000781079
0.00318179
-0.000745851
0.00316048
-0.000673902
0.00305325
-0.000576527
0.00286386
-0.000476433
0.0026136
-0.000396517
0.002333
-0.000346145
0.00205028
-0.000318475
0.00178513
-0.00029919
0.00154892
-0.000276428
0.00134739
-0.000245321
0.00118264
-0.000207529
0.00105437
-0.000168486
0.000960197
-0.000134099
0.000895961
-0.000108633
0.000856117
-9.4213e-05
0.00083431
-9.1303e-05
0.000824172
-9.93756e-05
0.000820091
-0.000117308
0.000817861
-0.000143584
0.000815119
-0.000176497
0.000811365
-0.000214331
0.000807556
-0.000255471
0.000805448
-0.000298459
0.000806919
-0.000342031
0.000813457
-0.000385141
0.000825915
-0.000427021
0.000844481
-0.000467216
0.00086878
-0.000505596
0.00089803
-0.000542302
0.000931189
-0.000577661
0.000967064
-0.000612089
0.00100439
-0.00064601
0.00104192
-0.000679802
0.00107845
-0.000713774
0.00111294
-0.000748166
0.0011446
-0.000783164
0.00117299
-0.000818916
0.00119804
-0.00085554
0.00122
-0.000893097
0.00123927
-0.000931532
0.00125608
-0.000970612
0.00127033
-0.0010099
-0.00104853
0.00128144
-0.000241564
0.000256595
-0.000493834
0.000459132
-0.000783231
0.000531368
-0.00121637
0.000550063
-0.00179384
0.000523099
-0.00248939
0.000484403
-0.00325272
0.000463771
-0.00401918
0.000466505
-0.00472529
0.000477065
-0.00532779
0.000478569
-0.00580853
0.000459445
-0.00616333
0.000416372
-0.00639224
0.000353208
-0.00649831
0.000274862
-0.0064881
0.000185543
-0.00637154
8.90326e-05
-0.00616416
-5.29365e-06
-0.00590957
-8.45651e-05
-0.00563738
-0.000147865
-0.00535708
-0.000216065
-0.00504087
-0.000325768
-0.00464578
-0.000487525
-0.00416262
-0.000656817
-0.00363156
-0.000771064
-0.00310286
-0.000812524
-0.00259522
-0.000820685
-0.00210898
-0.000830982
-0.00166218
-0.00083398
-0.00128517
-0.000812977
-0.00100009
-0.000771209
-0.00081665
-0.000721256
-0.000733452
-0.000675556
-0.000739649
-0.000642921
-0.000817781
-0.000626313
-0.000947107
-0.000622031
-0.00110676
-0.000620655
-0.00127761
-0.000610226
-0.00144281
-0.000580651
-0.00158855
-0.000528167
-0.00170494
-0.000460136
-0.0017854
-0.000395976
-0.00182698
-0.000354932
-0.00182952
-0.00034361
-0.00179288
-0.000355112
-0.00171831
-0.000373757
-0.00160836
-0.000386378
-0.00146694
-0.000386747
-0.0012992
-0.000375271
-0.00111243
-0.000355253
-0.000915645
-0.000330882
-0.000718141
-0.000306137
-0.000528074
-0.000284281
-0.000351637
-0.00026774
-0.000192844
-0.000258169
-5.35975e-05
-0.000256555
6.61211e-05
-0.000263302
0.000167893
-0.000278269
0.000254359
-0.000300797
0.000328635
-0.000329746
0.000393788
-0.000363613
0.000452477
-0.00040072
0.000506794
-0.000439458
0.000558275
-0.000478502
0.000607994
-0.000516935
0.000656665
-0.000554268
0.000704726
-0.000590363
0.000752382
-0.000625317
0.000799634
-0.000659341
0.000846301
-0.000692677
0.000892052
-0.000725554
0.000936454
-0.000758176
0.000979014
-0.000790727
0.00101922
-0.000823374
0.00105656
-0.00085625
0.00109045
-0.000889428
0.00112023
-0.000922884
0.0011452
-0.000956496
0.00116467
-0.000990081
0.00117821
-0.00102344
-0.00105622
0.00118589
0.000487342
-0.000230747
0.00132635
-0.000379873
0.00211019
-0.000252474
0.00269361
-3.33538e-05
0.00310083
0.000115873
0.00344028
0.000144952
0.00382183
8.2227e-05
0.00426855
1.97782e-05
0.00470763
3.79839e-05
0.00507095
0.000115254
0.00534075
0.000189643
0.00551732
0.000239798
0.00559737
0.000273164
0.00557914
0.000293096
0.00546226
0.000302421
0.00524356
0.000307726
0.00491919
0.00031908
0.00448686
0.000347764
0.00394366
0.000395341
0.00328962
0.000437974
0.00253374
0.000430108
0.00168962
0.000356598
0.000793402
0.000239396
-0.000107707
0.000130045
-0.000960253
4.00216e-05
-0.00172115
-5.97877e-05
-0.00236383
-0.0001883
-0.0028794
-0.000318416
-0.0032683
-0.000424079
-0.0035357
-0.000503806
-0.00368909
-0.000567867
-0.0037428
-0.000621844
-0.00371665
-0.000669072
-0.00363271
-0.000710255
-0.00351049
-0.000744243
-0.0033624
-0.000768744
-0.00319114
-0.000781487
-0.00299103
-0.000780769
-0.00275293
-0.000766264
-0.00247299
-0.00074007
-0.00216203
-0.00070694
-0.00184409
-0.000672871
-0.00154606
-0.000641643
-0.00128794
-0.000613227
-0.00107654
-0.000585166
-0.000907758
-0.000555157
-0.000772237
-0.000522268
-0.000660256
-0.000487252
-0.00056361