/*--------------------------------*- C++ -*----------------------------------*\
| =========                 |                                                 |
| \\      /  F ield         | OpenFOAM: The Open Source CFD Toolbox           |
|  \\    /   O peration     | Version:  2012                                  |
|   \\  /    A nd           | Website:  www.openfoam.com                      |
|    \\/     M anipulation  |                                                 |
\*---------------------------------------------------------------------------*/
FoamFile
{
    version     2.0;
    format      ascii;
    class       volVectorField;
    location    "0.7";
    object      U;
}
// * * * * * * * * * * * * * * * * * * * * * * * * * * * * * * * * * * * * * //

dimensions      [0 1 -1 0 0 0 0];


internalField   nonuniform List<vector> 
42400
(
(8.33008 -1.30857 -1.5979e-16)
(13.1184 2.2044 -2.31515e-16)
(12.6422 13.5265 2.3681e-16)
(11.6568 23.4051 0)
(12.0464 31.7905 0)
(12.6332 40.3454 2.49577e-19)
(12.7179 49.5622 0)
(12.5006 58.8178 -3.50222e-19)
(12.9183 66.2681 0)
(14.4668 70.1672 -3.77435e-19)
(17.6871 70.2765 -3.57852e-19)
(23.1618 67.2509 3.19412e-19)
(30.3119 61.7961 1.20587e-16)
(37.2568 54.5453 -1.23199e-16)
(42.409 46.1333 1.46832e-19)
(45.6883 37.1751 0)
(47.688 28.2379 0)
(48.291 19.9724 0)
(46.7793 13.0132 0)
(42.8913 7.68153 0)
(37.1678 3.75907 0)
(30.5622 0.599688 8.94266e-20)
(24.0103 -2.48523 2.08833e-17)
(18.1686 -5.88502 -6.64753e-19)
(13.286 -9.56165 -2.069e-17)
(9.24278 -13.1381 9.43252e-20)
(5.76494 -16.1301 9.61138e-20)
(2.65688 -18.1784 -1.90866e-19)
(-0.0868351 -19.1656 0)
(-2.30825 -19.2109 0)
(-3.79866 -18.5881 -1.63879e-17)
(-4.42167 -17.6169 1.65509e-17)
(-4.19602 -16.5606 -1.00145e-19)
(-3.28185 -15.5791 1.10521e-17)
(-1.92521 -14.7232 -1.10888e-17)
(-0.361593 -13.9758 0)
(1.22053 -13.2869 0)
(2.67675 -12.6134 0)
(3.91335 -11.9246 0)
(4.88155 -11.2003 1.72737e-18)
(5.56447 -10.4339 -1.73294e-18)
(5.96836 -9.63055 -2.42181e-19)
(6.11638 -8.80191 -5.55522e-19)
(6.04298 -7.96301 2.35603e-18)
(5.78935 -7.12974 -1.3629e-18)
(5.39996 -6.31796 2.14044e-18)
(4.92008 -5.54337 -4.71325e-18)
(4.3932 -4.8219 2.35737e-18)
(3.85835 -4.16941 2.10368e-19)
(3.34699 -3.60003 -2.78453e-18)
(2.87983 -3.12388 5.51473e-18)
(2.46615 -2.74374 3.24027e-19)
(2.1054 -2.45361 -3.01205e-18)
(1.79045 -2.24026 3.36719e-19)
(1.51141 -2.08662 0)
(1.25871 -1.97537 0)
(1.02538 -1.89149 0)
(0.808095 -1.82371 -2.58669e-19)
(0.607264 -1.76493 -2.40061e-19)
(0.426274 -1.71206 0)
(0.270172 -1.66517 -3.19925e-18)
(0.144221 -1.62635 3.33414e-18)
(0.0528033 -1.59847 2.73377e-18)
(-0.00118968 -1.5843 -2.68278e-18)
(-0.0165277 -1.58581 0)
(0.00652704 -1.60378 0)
(0.0666068 -1.63763 1.94406e-18)
(0.161692 -1.68544 -1.90046e-18)
(0.289521 -1.74415 -1.968e-19)
(0.447877 -1.80976 0)
(0.634707 -1.87762 0)
(0.848087 -1.9427 -1.46755e-19)
(1.08609 -1.99978 -1.33249e-19)
(1.34664 -2.04374 0)
(1.6274 -2.06991 -1.10312e-19)
(1.92589 -2.07464 -8.7234e-19)
(2.24043 -2.05555 8.46057e-19)
(2.5728 -2.01118 1.67303e-19)
(2.93296 -1.94105 6.59848e-19)
(3.32658 -1.87096 5.26694e-19)
(5.00477 -6.65821 0)
(-2.44342 -11.1747 1.97179e-16)
(-12.814 -3.39494 -2.02156e-16)
(-25.2578 -2.36842 0)
(-27.9603 -2.68752 0)
(-30.9941 -2.90471 1.54387e-16)
(-40.213 2.22048 -1.58096e-16)
(-56.1033 13.362 3.52953e-19)
(-74.6649 27.0891 0)
(-91.0511 39.1722 3.80199e-19)
(-102.095 47.1307 3.59994e-19)
(-107.14 50.6612 -7.08903e-17)
(-107.438 50.8477 1.2543e-17)
(-104.872 49.158 6.22329e-17)
(-100.723 46.6539 4.20819e-17)
(-95.0132 43.6286 -4.17941e-17)
(-87.2639 39.8399 0)
(-77.8344 35.2499 1.0352e-18)
(-67.8501 30.3869 0)
(-58.3524 25.9853 0)
(-49.6769 22.5154 0)
(-41.8209 20.0395 -1.0488e-17)
(-34.6371 18.3729 9.91891e-19)
(-28.0239 17.262 1.01268e-17)
(-21.9695 16.4992 0)
(-16.5239 15.9472 -5.62228e-19)
(-11.7291 15.5212 -9.4732e-20)
(-7.57016 15.1546 1.88043e-19)
(-3.94984 14.7712 -7.72976e-18)
(-0.740378 14.2769 7.82159e-18)
(2.17487 13.5825 -5.3008e-19)
(4.87618 12.6248 -4.97765e-19)
(7.38314 11.3824 -6.63603e-18)
(9.65051 9.88723 7.2715e-18)
(11.5939 8.22488 6.74184e-18)
(13.1246 6.51523 -7.21935e-18)
(14.1772 4.87222 0)
(14.737 3.38824 3.10818e-19)
(14.8371 2.11997 0)
(14.5403 1.08277 5.14495e-19)
(13.9302 0.264631 -5.04474e-18)
(13.0978 -0.359248 5.53209e-18)
(12.1268 -0.816111 -1.83433e-19)
(11.0846 -1.13015 1.97753e-19)
(10.0207 -1.32266 1.44083e-19)
(8.96847 -1.41386 2.13311e-19)
(7.94989 -1.42487 -2.15281e-19)
(6.97987 -1.37812 -3.87242e-18)
(6.0692 -1.29549 3.86158e-18)
(5.22604 -1.19651 0)
(4.45645 -1.09684 -2.39673e-19)
(3.76335 -1.00713 -3.74572e-19)
(3.146 -0.933775 -2.62579e-18)
(2.60085 -0.880189 2.61948e-18)
(2.12256 -0.847715 3.46708e-19)
(1.70513 -0.836107 -4.46665e-18)
(1.34282 -0.84377 5.0186e-18)
(1.03091 -0.868326 2.58516e-19)
(0.765547 -0.906725 2.39936e-19)
(0.543721 -0.956135 -3.43829e-18)
(0.363799 -1.01474 3.38449e-18)
(0.224929 -1.08144 -1.88244e-19)
(0.126506 -1.15594 -1.60903e-19)
(0.0683616 -1.23882 0)
(0.0505019 -1.33089 1.8817e-18)
(0.0728643 -1.43259 -1.62989e-19)
(0.135257 -1.54372 -2.10028e-18)
(0.237387 -1.66313 0)
(0.378855 -1.78864 3.61039e-19)
(0.55907 -1.91705 -1.45861e-19)
(0.777106 -2.04417 -1.14352e-18)
(1.03149 -2.16502 1.26059e-18)
(1.31998 -2.27403 1.06205e-18)
(1.63937 -2.3653 -9.94527e-19)
(1.98542 -2.43317 1.92319e-19)
(2.35311 -2.47289 -6.89942e-19)
(2.73775 -2.48115 5.35776e-19)
(3.13744 -2.45723 -1.67316e-19)
(3.55472 -2.40958 6.21321e-19)
(3.99108 -2.38553 -5.06439e-19)
(-3.93532 2.53301 -2.04804e-17)
(9.7757 -3.93158 -2.8677e-20)
(34.1591 -24.6703 5.3367e-19)
(53.8162 -34.1987 7.95395e-22)
(56.2052 -32.8012 0)
(48.1758 -23.085 -1.07343e-16)
(36.5696 -11.2703 2.25277e-16)
(27.3208 -1.58453 -1.17991e-16)
(22.6014 4.92254 1.2612e-16)
(22.1205 8.82187 1.53695e-20)
(24.8314 10.7763 -1.30922e-16)
(29.6641 11.2819 -8.14436e-19)
(35.6755 10.85 -7.6602e-19)
(41.9967 10.024 1.24227e-16)
(47.8507 9.26218 -1.26328e-16)
(52.7492 8.83529 -1.0175e-18)
(56.5299 8.80583 -1.10854e-16)
(59.1331 9.1107 6.29408e-18)
(60.7142 9.62456 1.06038e-16)
(61.5345 10.2092 3.69032e-19)
(61.9677 10.7778 -3.58901e-19)
(62.2573 11.3181 -3.52433e-19)
(62.5666 11.8992 0)
(62.9885 12.593 -2.42253e-19)
(63.5307 13.464 5.44446e-17)
(64.0471 14.5312 -1.01372e-16)
(64.1426 15.7483 4.76144e-17)
(63.1794 17.0138 -3.44262e-17)
(60.617 18.1806 3.48664e-17)
(56.3865 19.1728 2.75216e-17)
(50.9944 20.0204 -5.15864e-17)
(45.1932 20.7272 2.04305e-18)
(39.6052 21.2213 2.3295e-17)
(34.6024 21.4074 0)
(30.3434 21.2241 0)
(26.8395 20.6716 3.6917e-19)
(24.0079 19.8107 0)
(21.7066 18.7255 1.48934e-20)
(19.7851 17.5031 -1.11669e-17)
(18.1242 16.2176 2.1145e-17)
(16.6363 14.911 -1.0407e-17)
(15.2625 13.6075 0)
(13.9634 12.3308 0)
(12.7122 11.1082 -6.6488e-18)
(11.4781 9.96598 6.30774e-18)
(10.24 8.92367 3.16468e-19)
(8.99341 7.98657 0)
(7.75737 7.14207 0)
(6.57249 6.36586 -4.66703e-18)
(5.48232 5.62931 4.64881e-18)
(4.51771 4.91317 2.38751e-19)
(3.69204 4.21655 0)
(3.00047 3.55007 3.70866e-18)
(2.42571 2.92784 -3.31478e-18)
(1.94741 2.36204 5.17132e-18)
(1.54767 1.8589 -5.49823e-18)
(1.21129 1.41694 4.21409e-18)
(0.926783 1.03056 -8.50323e-18)
(0.687444 0.692915 7.64454e-18)
(0.488264 0.394465 -3.23969e-19)
(0.326389 0.126418 -3.2162e-18)
(0.202655 -0.117036 -2.61216e-18)
(0.118483 -0.342619 2.7272e-18)
(0.0742466 -0.557044 0)
(0.0712702 -0.765112 -1.57569e-18)
(0.111429 -0.970341 1.76164e-19)
(0.196539 -1.17513 1.95307e-18)
(0.328169 -1.38051 0)
(0.50751 -1.58594 -2.82306e-19)
(0.735105 -1.7894 -8.14333e-19)
(1.01048 -1.98742 8.50179e-19)
(1.33182 -2.1752 0)
(1.69564 -2.34691 0)
(2.09661 -2.49595 9.14688e-20)
(2.52751 -2.61565 -8.19877e-20)
(2.97976 -2.69981 -3.71039e-19)
(3.44391 -2.74292 5.70931e-19)
(3.91261 -2.74212 0)
(4.37846 -2.70728 -1.09296e-19)
(4.82628 -2.69241 -3.00899e-19)
(3.47208 -1.60407 5.39235e-17)
(14.8367 -7.96461 -8.08436e-17)
(27.955 -17.3948 4.11877e-17)
(34.1038 -22.2678 4.0878e-17)
(30.3433 -21.2085 -4.19763e-17)
(22.8183 -16.6904 0)
(16.0232 -11.2683 8.2797e-17)
(11.8932 -6.43325 -8.39275e-17)
(10.4635 -2.79751 8.30911e-17)
(10.908 -0.412794 -8.47631e-17)
(12.5856 0.80709 7.96945e-17)
(15.5371 1.00557 -1.59329e-16)
(19.8777 0.678757 1.52127e-16)
(25.114 0.705206 -1.44948e-16)
(30.3813 1.69278 1.37614e-16)
(35.25 3.49447 -6.79239e-17)
(39.8495 5.64643 -5.80995e-17)
(44.2294 7.92292 1.14491e-16)
(48.2219 10.1148 -5.55032e-17)
(51.7336 11.9341 -3.68702e-19)
(54.7574 13.1542 1.13239e-18)
(57.3123 13.6237 -3.29974e-17)
(59.2042 13.2892 3.32167e-17)
(59.8895 12.4535 -3.50227e-19)
(58.1589 11.9584 0)
(51.9243 13.2554 -3.39677e-19)
(39.6123 17.4746 0)
(22.7482 23.8907 -3.12213e-18)
(6.13389 29.7654 -2.18859e-18)
(-5.78432 32.4362 4.64273e-18)
(-11.8779 31.3526 7.24484e-18)
(-13.607 27.7952 -6.82454e-18)
(-12.8632 23.329 -4.65913e-19)
(-10.9478 18.948 5.79775e-20)
(-8.63266 15.1085 7.86214e-18)
(-6.39161 11.9738 -8.02739e-18)
(-4.49965 9.5657 0)
(-3.06915 7.82822 -7.46714e-18)
(-2.09816 6.63719 7.16924e-18)
(-1.51364 5.83697 -5.41785e-19)
(-1.20692 5.29048 2.73223e-19)
(-1.07388 4.89113 0)
(-1.03813 4.5656 0)
(-1.04651 4.2765 0)
(-1.07444 4.00984 2.30397e-19)
(-1.10679 3.76498 -4.39159e-18)
(-1.13389 3.54427 4.0622e-18)
(-1.14488 3.34807 0)
(-1.1268 3.17154 0)
(-1.07258 3.00551 -2.92456e-18)
(-0.984266 2.84016 2.75623e-18)
(-0.873175 2.66504 -2.49726e-18)
(-0.752077 2.47511 1.85289e-18)
(-0.632274 2.2715 -2.36859e-19)
(-0.52458 2.05586 1.73709e-18)
(-0.43679 1.83067 -2.21285e-18)
(-0.370284 1.60156 3.28025e-18)
(-0.322722 1.37381 -3.07322e-18)
(-0.289993 1.14941 0)
(-0.264857 0.930131 1.34835e-19)
(-0.23985 0.716049 2.20525e-18)
(-0.209113 0.503539 -3.08799e-19)
(-0.165064 0.289633 -3.7666e-18)
(-0.099352 0.0733486 3.15328e-18)
(-0.0048783 -0.147222 -1.35727e-18)
(0.124731 -0.374085 -1.14063e-18)
(0.295608 -0.607923 8.60027e-19)
(0.513074 -0.848137 7.87269e-20)
(0.780998 -1.09301 7.31937e-19)
(1.10144 -1.33956 -6.59517e-19)
(1.47428 -1.58348 1.20364e-19)
(1.89688 -1.81917 3.85206e-19)
(2.3639 -2.03991 -3.51576e-19)
(2.86719 -2.23827 0)
(3.39569 -2.40679 1.92576e-19)
(3.93713 -2.53681 -1.04062e-19)
(4.47779 -2.62064 -3.0225e-19)
(5.00382 -2.65328 1.3813e-19)
(5.49878 -2.64454 -1.16148e-19)
(5.93129 -2.6544 1.14429e-19)
(8.80861 -6.25346 1.68969e-17)
(15.4034 -11.6658 0)
(11.3449 -11.0478 0)
(2.26061 -7.28694 3.21164e-19)
(-3.29982 -4.90548 0)
(-1.98536 -4.96866 0)
(1.75239 -4.58161 0)
(1.78025 -0.379667 -4.60994e-19)
(-3.4306 7.86246 0)
(-10.6262 17.359 -2.85959e-20)
(-13.8706 23.188 4.2344e-17)
(-8.1199 20.2504 -8.52766e-17)
(5.576 7.30415 4.38788e-17)
(19.744 -11.9105 0)
(27.7212 -31.8855 -4.82903e-19)
(30.1142 -47.7575 5.27235e-19)
(31.0483 -56.0114 0)
(30.7391 -56.1901 6.04698e-17)
(27.9348 -51.8884 -1.21301e-16)
(23.1744 -46.1176 2.37123e-18)
(17.0482 -39.7372 5.87652e-17)
(9.9472 -33.17 7.32809e-19)
(2.20695 -26.9143 0)
(-5.73992 -21.0927 -4.87167e-17)
(-13.5097 -15.8319 4.97006e-17)
(-20.5493 -11.1236 -4.00132e-17)
(-26.1091 -6.91216 4.06809e-17)
(-29.3851 -3.22159 2.87187e-17)
(-29.9169 -0.221894 -2.87967e-17)
(-27.927 1.89396 0)
(-24.1962 3.10934 -1.22871e-17)
(-19.6303 3.59447 1.23913e-17)
(-14.9511 3.58414 -1.64542e-20)
(-10.6349 3.2901 -3.36892e-18)
(-6.95683 2.8771 3.3339e-18)
(-4.03349 2.47415 1.15903e-19)
(-1.86511 2.16236 3.76379e-21)
(-0.380501 1.96042 1.44925e-18)
(0.543989 1.8565 -1.45604e-18)
(1.05796 1.83763 -2.32349e-18)
(1.29724 1.88116 -5.02089e-19)
(1.36733 1.9589 2.6571e-18)
(1.33931 2.04815 0)
(1.25396 2.13582 -7.46603e-20)
(1.13145 2.21742 2.40489e-18)
(0.982062 2.29433 -5.41234e-18)
(0.812886 2.36862 5.13165e-18)
(0.630793 2.43763 -2.42561e-18)
(0.445562 2.49571 0)
(0.269637 2.53875 -7.63726e-20)
(0.11477 2.5627 2.03005e-18)
(-0.0136835 2.56017 -1.94023e-18)
(-0.116835 2.52456 1.21151e-19)
(-0.195543 2.45525 1.63565e-18)
(-0.25056 2.35641 -1.17435e-18)
(-0.28451 2.23478 1.27322e-18)
(-0.300748 2.09644 1.15697e-18)
(-0.301326 1.94611 -2.44651e-18)
(-0.286911 1.78744 1.87085e-18)
(-0.256613 1.6229 -1.97814e-18)
(-0.207668 1.4533 0)
(-0.13632 1.27835 1.06887e-19)
(-0.038301 1.09701 1.13719e-18)
(0.0918936 0.907676 -9.50568e-19)
(0.260252 0.708702 -2.05233e-19)
(0.472552 0.498532 0)
(0.734209 0.276634 -3.90587e-19)
(1.04961 0.0433972 3.66275e-19)
(1.42139 -0.199673 6.18948e-20)
(1.84987 -0.449747 -7.00583e-21)
(2.33253 -0.702627 -1.77827e-20)
(2.86367 -0.952889 -4.81265e-20)
(3.43436 -1.19402 -1.18469e-19)
(4.0326 -1.41875 8.64105e-20)
(4.64367 -1.61933 -3.41069e-20)
(5.25069 -1.78764 0)
(5.83624 -1.91563 -1.29643e-19)
(6.38275 -1.99543 1.27247e-19)
(6.86824 -2.0323 0)
(7.23783 -2.09076 -7.66295e-20)
(-0.34032 -0.771314 -2.32296e-19)
(-2.47093 2.57639 8.91894e-18)
(-6.86758 2.90687 -1.10519e-17)
(2.0988 0.149479 2.34026e-17)
(26.159 -12.9813 -1.26305e-17)
(58.4838 -30.002 -3.59187e-19)
(85.4895 -42.5805 -1.59807e-17)
(97.4265 -44.1888 1.66239e-17)
(94.0762 -34.1418 2.94081e-19)
(80.4647 -15.8814 2.98582e-19)
(60.1098 8.0512 1.77779e-17)
(30.8135 38.3426 1.85736e-17)
(-15.9698 78.9105 -3.74356e-17)
(-83.7349 132.485 4.99221e-17)
(-134.858 172.674 -1.11924e-16)
(-107.064 150.016 6.29797e-17)
(-21.1033 83.4969 0)
(36.9823 39.4473 0)
(47.2706 24.849 -6.78454e-17)
(41.2015 18.6553 7.23476e-18)
(33.2422 15.5575 6.2314e-17)
(24.9591 14.0817 -4.63739e-17)
(17.1344 13.1526 8.60615e-17)
(10.3445 12.4894 -3.96492e-17)
(4.74431 11.8709 -2.61078e-17)
(0.273317 11.2609 5.68365e-18)
(-3.12537 10.7 2.06704e-17)
(-5.47139 10.1681 -1.18371e-19)
(-6.79275 9.61469 7.63964e-20)
(-7.22803 8.97741 -8.61414e-20)
(-7.01492 8.23099 0)
(-6.41654 7.39188 -3.46602e-18)
(-5.65927 6.498 5.80346e-18)
(-4.90693 5.59165 -2.29594e-18)
(-4.25685 4.70967 0)
(-3.74696 3.88372 1.49362e-19)
(-3.37104 3.13772 -1.61464e-19)
(-3.10085 2.48709 0)
(-2.90449 1.94192 0)
(-2.75398 1.50724 -6.37285e-19)
(-2.62825 1.18096 6.14448e-19)
(-2.51379 0.955404 -2.08117e-19)
(-2.4029 0.818887 0)
(-2.29184 0.758193 4.09463e-19)
(-2.17926 0.759863 -4.44277e-20)
(-2.06475 0.81055 -1.33797e-19)
(-1.94774 0.898722 -6.07053e-20)
(-1.82758 1.01401 -3.2477e-20)
(-1.704 1.14725 0)
(-1.57718 1.28942 3.91056e-19)
(-1.44779 1.4312 -6.03872e-19)
(-1.31445 1.5672 3.70286e-19)
(-1.17753 1.69276 1.35898e-19)
(-1.04035 1.80129 6.08586e-19)
(-0.902999 1.89201 -1.10515e-19)
(-0.763874 1.96505 -9.59176e-19)
(-0.623238 2.01789 3.45219e-19)
(-0.48054 2.04941 0)
(-0.333625 2.06011 0)
(-0.179209 2.0508 -2.14694e-20)
(-0.0129308 2.02212 -1.83921e-20)
(0.170551 1.97426 0)
(0.37727 1.90667 -3.4693e-19)
(0.614112 1.81909 3.48527e-19)
(0.888518 1.71104 2.37339e-19)
(1.20718 1.58183 -1.20039e-19)
(1.57572 1.43137 -2.70017e-20)
(1.99791 1.26012 -1.41187e-19)
(2.47498 1.06954 1.37894e-19)
(3.00509 0.862401 -4.42241e-20)
(3.58282 0.642674 3.3855e-19)
(4.19905 0.41544 -3.21781e-19)
(4.8411 0.186643 -3.87382e-19)
(5.49329 -0.0372379 4.69799e-19)
(6.13776 -0.249532 -3.79362e-19)
(6.7554 -0.443608 4.01317e-19)
(7.32695 -0.612746 -3.60568e-19)
(7.83389 -0.750311 6.73178e-19)
(8.25771 -0.853148 -2.85177e-20)
(8.53676 -0.995847 -3.93801e-20)
(-3.42092 0.340995 -2.66441e-17)
(0.18804 -3.68035 -1.86551e-19)
(13.2718 -13.1392 3.69743e-17)
(29.4352 -25.8806 -7.24527e-17)
(46.5942 -38.803 3.56393e-17)
(63.6349 -53.0431 -2.84096e-17)
(81.1488 -68.5121 3.98827e-18)
(99.7274 -84.0636 2.56422e-17)
(118.151 -97.6555 -1.84426e-17)
(134.005 -108.107 1.83019e-17)
(144.225 -113.965 -1.04492e-17)
(145.613 -112.171 1.07967e-17)
(137.259 -102.089 -3.47375e-18)
(118.296 -84.3877 3.34789e-18)
(87.1363 -55.7746 -2.20748e-19)
(51.6998 -21.9997 -2.60481e-19)
(24.6525 1.0955 -5.35997e-18)
(8.45035 8.8315 5.47453e-18)
(-0.236049 7.3817 6.40237e-19)
(-4.46697 2.82926 1.82568e-19)
(-6.56659 -2.23445 -2.08047e-17)
(-7.9014 -6.99003 2.14666e-17)
(-9.25335 -10.604 0)
(-11.1088 -12.3982 -1.33897e-19)
(-13.539 -12.4848 0)
(-16.0571 -11.5869 0)
(-17.9825 -10.4414 -1.78223e-19)
(-18.8996 -9.46897 4.56421e-19)
(-18.7855 -8.78177 -2.33963e-19)
(-17.8819 -8.345 3.08592e-18)
(-16.4926 -8.0769 -3.03406e-18)
(-14.8715 -7.89727 6.43138e-21)
(-13.1967 -7.75386 -3.70115e-20)
(-11.5835 -7.60304 0)
(-10.0911 -7.41854 -2.94503e-19)
(-8.74303 -7.18513 0)
(-7.54416 -6.89611 0)
(-6.48527 -6.55361 -2.31534e-19)
(-5.55409 -6.16342 0)
(-4.73775 -5.73282 0)
(-4.02413 -5.26959 4.20068e-18)
(-3.40283 -4.781 -4.06845e-18)
(-2.86488 -4.27436 0)
(-2.40211 -3.75632 0)
(-2.00648 -3.23213 0)
(-1.66982 -2.70715 -1.69748e-19)
(-1.3839 -2.18652 6.07254e-20)
(-1.14062 -1.67538 1.39408e-18)
(-0.932174 -1.17865 -1.43487e-18)
(-0.751191 -0.700773 9.20519e-19)
(-0.591067 -0.2456 -9.97312e-19)
(-0.446005 0.183985 6.16922e-20)
(-0.30956 0.586171 4.42494e-20)
(-0.176906 0.959524 0)
(-0.0460897 1.29975 0)
(0.0856088 1.6035 -8.15715e-20)
(0.222767 1.87195 6.83805e-20)
(0.369418 2.10651 7.80109e-20)
(0.529087 2.30785 -3.46675e-20)
(0.705602 2.47664 7.67147e-20)
(0.90329 2.61347 1.00448e-19)
(1.12707 2.71874 3.58461e-20)
(1.38257 2.79288 -2.58512e-19)
(1.67508 2.83533 1.61931e-19)
(2.00983 2.84514 2.54382e-20)
(2.39192 2.82245 1.284e-20)
(2.8248 2.76725 4.22509e-19)
(3.30948 2.67982 -8.97081e-19)
(3.84413 2.56138 4.72754e-19)
(4.42344 2.41425 5.11194e-20)
(5.03833 2.24186 6.0913e-19)
(5.67601 2.0487 -6.75749e-19)
(6.32042 1.84006 0)
(6.95311 1.62178 -6.4281e-20)
(7.55453 1.39981 0)
(8.10536 1.17996 5.46831e-19)
(8.58768 0.967788 -2.68795e-20)
(8.98537 0.767936 -4.88154e-19)
(9.28337 0.589991 2.93255e-19)
(9.4563 0.365968 6.46731e-20)
(-5.13334 2.86151 -2.7132e-17)
(-13.2761 7.2223 4.0773e-17)
(-15.698 3.96555 3.26185e-19)
(-10.7612 -2.87259 3.73325e-17)
(-4.72433 -10.7595 -3.81525e-17)
(4.17568 -18.8047 3.27757e-17)
(15.9267 -28.4605 -6.2531e-17)
(31.9743 -40.8298 2.99073e-17)
(52.0068 -56.7904 -2.40936e-17)
(67.5906 -74.2478 2.45682e-17)
(63.0521 -83.4914 0)
(34.3513 -75.5501 2.80415e-19)
(-2.36668 -60.4559 -5.01724e-19)
(-32.196 -51.5116 0)
(-54.4723 -44.7091 0)
(-71.5744 -36.4053 0)
(-82.9205 -29.658 0)
(-88.678 -24.9259 4.19632e-19)
(-89.9 -21.4516 0)
(-86.9099 -19.4221 -2.06053e-17)
(-80.0208 -19.0747 2.06118e-17)
(-70.1564 -20.1218 3.44271e-17)
(-58.7852 -21.9752 -3.50916e-17)
(-47.721 -23.9106 -3.07726e-17)
(-38.2858 -25.4006 3.19047e-17)
(-30.8805 -26.1671 -2.73187e-17)
(-25.2336 -26.1902 2.78775e-17)
(-20.8541 -25.6025 -2.33785e-17)
(-17.3355 -24.5752 2.09999e-18)
(-14.4441 -23.2647 2.20461e-17)
(-12.0368 -21.8049 0)
(-10.0113 -20.2837 5.2279e-19)
(-8.28728 -18.7654 4.65956e-19)
(-6.80855 -17.2913 0)
(-5.54097 -15.89 2.94876e-19)
(-4.43932 -14.5684 0)
(-3.48314 -13.3252 0)
(-2.65245 -12.1545 9.0192e-18)
(-1.93227 -11.0474 -1.63741e-17)
(-1.31162 -9.99612 7.80214e-18)
(-0.78129 -8.99435 5.82712e-18)
(-0.333313 -8.03721 -6.0173e-18)
(0.0397599 -7.12134 -1.35077e-19)
(0.34517 -6.24464 0)
(0.590241 -5.40591 3.61636e-18)
(0.782695 -4.60458 -3.23708e-18)
(0.930622 -3.84049 0)
(1.04232 -3.11372 0)
(1.12604 -2.424 -1.68616e-18)
(1.18984 -1.7707 1.88939e-18)
(1.24115 -1.15319 1.42321e-18)
(1.28671 -0.570587 -1.31679e-18)
(1.33272 -0.0220837 -9.27505e-19)
(1.38466 0.492711 1.60979e-18)
(1.44713 0.973776 -7.27144e-19)
(1.52338 1.4213 -1.22597e-19)
(1.61641 1.83536 0)
(1.72932 2.21567 5.97771e-20)
(1.86518 2.56165 -2.7492e-19)
(2.0271 2.87248 5.99695e-19)
(2.21838 3.14719 -2.92872e-19)
(2.44258 3.38467 0)
(2.70352 3.58375 -2.09496e-20)
(3.00492 3.74297 0)
(3.34982 3.861 -2.53958e-20)
(3.7404 3.93667 -4.10846e-20)
(4.17719 3.96899 -8.39551e-20)
(4.65829 3.95743 -6.66213e-19)
(5.17882 3.9022 5.63012e-19)
(5.73053 3.80448 -8.8856e-20)
(6.30178 3.66662 -7.13925e-19)
(6.87775 3.49215 8.6663e-19)
(7.44126 3.2858 -6.97709e-19)
(7.97386 3.05331 6.78513e-19)
(8.45735 2.80115 -7.26037e-19)
(8.87532 2.5362 5.46969e-19)
(9.21389 2.26533 5.66741e-19)
(9.46294 1.99565 -5.4945e-19)
(9.60566 1.7345 1.15182e-19)
(9.66825 1.46454 -1.03762e-19)
(-20.9257 11.1897 3.30427e-17)
(-67.4464 35.2946 4.48095e-17)
(-98.5634 39.4549 -8.89343e-17)
(-83.4373 26.0912 8.43922e-17)
(-51.3061 4.61723 -4.16619e-17)
(-26.4833 -11.4894 -2.81047e-19)
(-13.9235 -20.98 3.15967e-17)
(-8.79136 -26.1081 -6.11273e-17)
(-5.0949 -31.1832 2.54214e-18)
(0.742982 -39.829 2.73465e-17)
(6.82559 -50.696 -2.01793e-19)
(8.24935 -57.3821 -2.88329e-17)
(4.51953 -57.6827 2.94164e-17)
(-0.127327 -56.7415 -2.83765e-17)
(-2.58792 -57.2992 2.88097e-17)
(-2.57962 -58.0517 2.63779e-17)
(-0.858368 -58.0477 -2.67436e-17)
(2.16583 -57.407 -4.21563e-19)
(6.27273 -56.2887 0)
(10.9979 -54.6189 -2.37164e-17)
(15.1678 -52.2098 2.38783e-17)
(17.2685 -48.7649 3.91038e-19)
(16.4534 -44.3215 2.08275e-17)
(13.125 -39.3647 -2.15152e-17)
(8.95004 -34.6475 -2.00641e-19)
(5.61271 -30.6976 0)
(3.77663 -27.5954 -2.72382e-19)
(3.20522 -25.0849 -6.49608e-19)
(3.25845 -22.9906 -2.21585e-17)
(3.449 -21.1314 2.26299e-17)
(3.58384 -19.4637 1.70033e-17)
(3.65389 -17.9922 -1.75507e-17)
(3.70281 -16.7181 -2.03257e-19)
(3.77363 -15.6076 -1.14961e-17)
(3.87401 -14.613 2.12145e-17)
(4.01324 -13.6852 -9.93439e-18)
(4.17354 -12.7894 -7.44714e-18)
(4.33745 -11.8997 7.65969e-18)
(4.48814 -11.0031 -9.01254e-20)
(4.6116 -10.095 -1.23236e-19)
(4.69758 -9.17761 1.76258e-19)
(4.73989 -8.25744 -4.02544e-18)
(4.73601 -7.34345 6.29742e-19)
(4.68665 -6.44602 3.53681e-18)
(4.59548 -5.57598 -2.92639e-18)
(4.4689 -4.74359 2.71746e-18)
(4.3152 -3.95777 0)
(4.14423 -3.22435 1.935e-18)
(3.96639 -2.54521 -1.94313e-18)
(3.79151 -1.91899 1.31853e-18)
(3.62822 -1.34118 -2.4667e-19)
(3.48359 -0.80509 -1.40655e-19)
(3.363 -0.303292 -1.21652e-19)
(3.27018 0.171321 -1.04843e-19)
(3.20745 0.624644 -8.4331e-19)
(3.17609 1.06083 3.42244e-20)
(3.17672 1.48205 0)
(3.2098 1.88855 -5.97306e-19)
(3.27591 2.27881 4.76834e-19)
(3.37598 2.64991 0)
(3.51133 2.99793 -4.79214e-19)
(3.68366 3.31828 3.56729e-19)
(3.8948 3.60607 0)
(4.14632 3.85636 -5.15871e-20)
(4.43906 4.06439 0)
(4.77261 4.22585 -6.94234e-19)
(5.1448 4.33707 1.49048e-18)
(5.55114 4.39526 -7.1927e-19)
(5.98457 4.39874 8.75561e-20)
(6.43535 4.34718 8.87844e-20)
(6.8913 4.24179 -7.30077e-19)
(7.33846 4.08546 6.22368e-19)
(7.76191 3.88281 -9.02887e-20)
(8.14705 3.64008 -8.81073e-20)
(8.48082 3.36497 1.6763e-19)
(8.75267 3.06633 7.82851e-20)
(8.95422 2.7535 6.828e-19)
(9.07941 2.43777 -9.52277e-21)
(9.115 2.12366 -6.31267e-19)
(9.09516 1.84496 -1.42126e-19)
(-28.3273 15.1233 0)
(-95.0194 38.1029 -8.35831e-20)
(-149.132 64.4311 3.60717e-19)
(-149.867 59.8178 1.46424e-17)
(-104.039 41.0792 -2.58893e-17)
(-56.1806 22.565 1.92916e-17)
(-24.5691 12.4049 -8.11039e-18)
(-7.4582 9.80101 0)
(0.280881 11.5395 1.83128e-19)
(1.9129 15.0239 1.62685e-18)
(-0.356951 18.6325 -1.45957e-18)
(-4.97718 21.5835 1.84613e-18)
(-10.8201 24.2583 -4.74426e-18)
(-17.0914 27.0939 -3.5619e-19)
(-22.3962 29.3152 2.44828e-20)
(-24.6607 29.5948 4.35251e-18)
(-22.9111 27.3686 -2.56257e-19)
(-18.1677 23.2814 -2.59446e-18)
(-12.3643 18.3878 2.86362e-18)
(-7.1789 13.4706 2.04897e-19)
(-3.55656 8.99685 -1.81764e-19)
(-1.61478 5.1547 -7.15593e-19)
(-0.728641 1.90828 -2.3658e-18)
(0.122993 -0.901781 1.66691e-19)
(1.8033 -3.39469 2.26147e-18)
(4.48237 -5.62343 -1.86599e-19)
(7.55566 -7.47823 -1.59994e-18)
(10.1671 -8.80892 4.19199e-18)
(11.7011 -9.64699 -3.89657e-18)
(12.1047 -9.98537 1.87648e-18)
(11.7038 -10.0138 0)
(10.9579 -9.90643 -3.23299e-18)
(10.243 -9.75641 5.8624e-18)
(9.76474 -9.58218 -2.80314e-18)
(9.56566 -9.36517 2.91265e-18)
(9.58776 -9.07843 -2.88259e-18)
(9.73508 -8.70183 -1.69531e-19)
(9.91552 -8.22739 0)
(10.0588 -7.65877 -1.23402e-19)
(10.1199 -7.00813 -2.11698e-18)
(10.0762 -6.29227 2.26561e-18)
(9.92036 -5.52942 -2.47258e-20)
(9.65503 -4.73773 2.60149e-20)
(9.28901 -3.93565 0)
(8.8362 -3.14375 0)
(8.31635 -2.38478 1.29692e-18)
(7.75492 -1.68218 -1.4006e-18)
(7.18066 -1.05726 -9.81261e-20)
(6.62243 -0.525042 -1.07643e-18)
(6.10523 -0.0912373 2.13117e-18)
(5.64753 0.248967 -9.51704e-19)
(5.26022 0.509653 0)
(4.94698 0.711084 8.88238e-19)
(4.70589 0.87592 -8.32308e-19)
(4.53129 1.02557 0)
(4.41553 1.17744 7.39445e-19)
(4.35054 1.3435 -6.86889e-19)
(4.32896 1.52995 6.1058e-19)
(4.34489 1.73777 -5.26012e-19)
(4.3943 1.96379 0)
(4.47492 2.20187 1.28684e-19)
(4.58588 2.44409 5.60665e-20)
(4.72715 2.68162 -4.65807e-19)
(4.8989 2.90549 5.97333e-20)
(5.10088 3.10702 4.40019e-19)
(5.33184 3.2782 0)
(5.58917 3.41204 4.86495e-20)
(5.86863 3.50275 0)
(6.16423 3.54607 0)
(6.46843 3.53947 -7.88376e-19)
(6.77247 3.48236 7.6866e-19)
(7.06696 3.37619 6.58063e-19)
(7.34264 3.22444 9.50331e-20)
(7.59108 3.0325 -6.3626e-19)
(7.80513 2.80739 -7.96115e-19)
(7.97846 2.55744 6.89889e-19)
(8.10462 2.29197 -8.00441e-20)
(8.17625 2.0213 -6.54736e-19)
(8.18653 1.75451 1.43119e-18)
(8.14512 1.52417 -4.72933e-19)
(-30.6054 13.7109 -9.70623e-17)
(-85.2728 28.2291 7.24394e-17)
(-116.851 48.454 6.79065e-17)
(-107.288 41.2978 -6.95899e-17)
(-52.0211 23.1695 -2.99823e-19)
(14.3746 -0.890118 -2.74002e-19)
(60.3634 -18.1409 0)
(77.2872 -24.6986 -5.76717e-17)
(73.6481 -22.4564 5.92927e-17)
(59.3723 -14.5137 0)
(40.7979 -3.90564 5.27792e-17)
(23.3509 6.12264 -1.0389e-16)
(10.7083 13.3052 3.8164e-18)
(2.58494 17.587 9.12647e-17)
(-2.89396 20.1335 -4.46461e-17)
(-6.6179 21.715 -2.7848e-19)
(-8.63206 22.4325 -1.9455e-19)
(-9.00793 22.2421 0)
(-8.12659 21.2667 -2.98149e-17)
(-6.48744 19.7356 3.00297e-17)
(-4.45336 17.8728 -1.65768e-19)
(-2.14444 15.8355 -2.14664e-17)
(0.482509 13.6993 2.17888e-17)
(3.45756 11.4977 -1.69103e-17)
(6.64372 9.28075 1.71614e-17)
(9.64349 7.09193 1.85661e-19)
(11.8325 5.0994 -1.14846e-17)
(12.6489 3.48813 1.77389e-18)
(11.9745 2.38772 1.77524e-17)
(10.3948 1.73688 -1.33585e-18)
(8.88706 1.27001 -6.72596e-18)
(8.17759 0.774011 -4.55183e-18)
(8.41508 0.17724 4.71889e-18)
(9.33458 -0.453556 0)
(10.5581 -1.00659 -3.39252e-20)
(11.7773 -1.40693 -1.71409e-20)
(12.8045 -1.62704 0)
(13.5535 -1.67226 -1.93279e-18)
(14.0047 -1.56748 1.92809e-18)
(14.1775 -1.34569 -1.8881e-20)
(14.1098 -1.03882 0)
(13.8406 -0.670527 2.46745e-20)
(13.3972 -0.254069 -1.04348e-19)
(12.7936 0.203781 7.73575e-20)
(12.0392 0.694442 0)
(11.1511 1.20038 -2.92706e-19)
(10.1634 1.69374 4.11134e-19)
(9.12683 2.14056 0)
(8.1025 2.50767 0)
(7.15127 2.76907 -5.15187e-20)
(6.32372 2.91061 -5.07083e-20)
(5.6529 2.93254 0)
(5.15121 2.84964 6.46117e-19)
(4.81165 2.68868 -6.88593e-19)
(4.61268 2.48332 -6.89037e-19)
(4.52481 2.26774 4.79871e-20)
(4.51707 2.07106 1.33203e-18)
(4.56196 1.91376 -1.29824e-18)
(4.63832 1.80677 -6.5387e-20)
(4.73227 1.75247 5.35573e-19)
(4.83642 1.74683 -6.939e-20)
(4.9483 1.78169 0)
(5.06839 1.84675 0)
(5.19849 1.93091 5.31534e-19)
(5.34052 2.02328 -5.91024e-19)
(5.49575 2.11371 0)
(5.66433 2.1932 6.66872e-20)
(5.84517 2.25422 0)
(6.03589 2.29088 4.69709e-19)
(6.23303 2.29914 -4.58356e-19)
(6.43229 2.27679 1.2244e-19)
(6.62896 2.2235 9.86113e-19)
(6.81813 2.14061 -8.60078e-19)
(6.99466 2.03094 1.14843e-19)
(7.15289 1.89855 0)
(7.28623 1.74862 0)
(7.38778 1.58741 0)
(7.45235 1.4222 -8.75563e-19)
(7.47989 1.26226 -9.10718e-20)
(7.47484 1.11714 1.46513e-18)
(-29.6096 11.8068 -5.19998e-18)
(-67.4859 24.921 -7.73867e-18)
(-75.5799 32.7726 7.91457e-18)
(-64.9941 32.5048 -5.76439e-18)
(-40.8804 28.9687 5.78872e-18)
(-8.45597 20.7648 -9.25951e-20)
(25.3475 9.93497 -7.86337e-20)
(57.2903 -1.81965 0)
(85.0046 -12.3134 -2.45859e-19)
(101.594 -18.8568 0)
(98.4833 -18.8707 -6.67492e-21)
(76.4747 -12.3734 1.63912e-17)
(47.839 -2.77923 -1.67508e-17)
(24.5717 5.72979 -1.95343e-17)
(10.1558 11.3105 1.98693e-17)
(2.42588 14.4241 -2.08763e-17)
(-1.35829 16.0979 2.19398e-17)
(-2.85866 16.9609 0)
(-2.96553 17.3004 0)
(-2.22859 17.2679 0)
(-1.02082 16.9758 1.84276e-17)
(0.38703 16.5065 -3.52701e-17)
(1.79158 15.9201 1.93826e-18)
(3.02749 15.2434 2.97939e-17)
(4.00724 14.4563 -1.43949e-17)
(4.78927 13.5214 0)
(5.55671 12.4207 -8.90519e-20)
(6.53817 11.1834 0)
(7.81401 9.94562 7.51836e-18)
(9.32383 8.85689 -7.52136e-18)
(10.978 7.99425 -1.67806e-19)
(12.6987 7.34752 0)
(14.3894 6.86712 -3.42969e-18)
(15.9327 6.50851 5.89244e-18)
(17.2209 6.24336 -2.56955e-18)
(18.1753 6.05427 1.42877e-18)
(18.7493 5.9264 -2.44119e-18)
(18.928 5.84124 1.00949e-18)
(18.7316 5.77509 0)
(18.2215 5.70272 0)
(17.4942 5.60622 0)
(16.6484 5.48511 8.98537e-21)
(15.7417 5.35954 -1.86663e-19)
(14.7751 5.25967 1.78834e-19)
(13.7145 5.20591 0)
(12.5302 5.19509 -5.69008e-19)
(11.2267 5.20206 5.55284e-19)
(9.84863 5.19242 7.12382e-19)
(8.46808 5.13664 -2.57688e-20)
(7.16566 5.01823 2.24027e-20)
(6.01548 4.83346 7.61533e-21)
(5.07544 4.5863 -7.70377e-19)
(4.38067 4.28456 0)
(3.93897 3.93939 0)
(3.73011 3.56634 -6.82926e-19)
(3.711 3.18509 7.29831e-19)
(3.82626 2.817 0)
(4.02066 2.48143 0)
(4.24892 2.19268 4.44747e-20)
(4.48024 1.95869 8.00349e-20)
(4.69793 1.78127 0)
(4.89592 1.65741 0)
(5.0747 1.58083 -8.27659e-20)
(5.23799 1.54333 -8.13732e-20)
(5.39055 1.53586 6.71125e-19)
(5.53702 1.54926 -1.17742e-18)
(5.68125 1.57484 -6.73957e-20)
(5.82606 1.60473 1.12881e-18)
(5.97309 1.63212 -1.18005e-18)
(6.12282 1.6514 1.08308e-18)
(6.27453 1.65823 -1.91457e-19)
(6.42634 1.64955 -5.17923e-19)
(6.57514 1.62366 1.01891e-18)
(6.71672 1.58022 2.42463e-20)
(6.84628 1.52038 -1.94098e-18)
(6.95962 1.44678 1.07219e-18)
(7.05474 1.36353 0)
(7.13292 1.27597 2.25073e-19)
(7.19775 1.18946 0)
(7.25165 1.10628 -8.5483e-19)
(-13.9868 5.33323 0)
(-30.9758 14.8487 4.41331e-20)
(-26.7799 16.1868 -4.17832e-20)
(-8.2448 15.93 -3.24507e-17)
(13.3739 12.5808 6.21941e-17)
(32.0806 8.93018 -2.95261e-17)
(42.3703 5.54258 7.93112e-20)
(42.6478 2.776 0)
(35.1194 0.457934 0)
(23.8791 -1.91914 0)
(12.8036 -4.53 6.76224e-21)
(3.8918 -6.90765 -6.30982e-20)
(-2.58016 -8.38952 0)
(-6.9503 -8.87902 6.67447e-20)
(-9.73956 -8.72934 2.23312e-19)
(-11.3608 -8.25363 8.58983e-18)
(-11.9766 -7.62372 -8.95968e-18)
(-11.6682 -6.93008 -1.62665e-19)
(-10.5581 -6.24229 0)
(-8.83806 -5.57226 1.67964e-19)
(-6.72815 -4.84819 1.06574e-19)
(-4.47277 -3.98035 4.93644e-18)
(-2.26456 -2.93291 -2.92145e-20)
(-0.189635 -1.74845 -4.96553e-18)
(1.77548 -0.506505 1.33235e-19)
(3.74716 0.683351 1.51819e-19)
(5.82084 1.72383 -4.93794e-18)
(7.97815 2.61951 4.52646e-18)
(10.1373 3.41608 2.38596e-19)
(12.2402 4.11987 -3.18195e-20)
(14.2497 4.72083 -1.67883e-20)
(16.1183 5.22706 -4.2061e-18)
(17.7799 5.66604 4.24146e-18)
(19.1569 6.07444 1.3628e-19)
(20.1741 6.48431 -2.45392e-20)
(20.771 6.90662 9.60755e-20)
(20.9081 7.31884 -8.984e-20)