/*--------------------------------*- C++ -*----------------------------------*\
| =========                 |                                                 |
| \\      /  F ield         | OpenFOAM: The Open Source CFD Toolbox           |
|  \\    /   O peration     | Version:  2012                                  |
|   \\  /    A nd           | Website:  www.openfoam.com                      |
|    \\/     M anipulation  |                                                 |
\*---------------------------------------------------------------------------*/
FoamFile
{
    version     2.0;
    format      ascii;
    class       surfaceScalarField;
    location    "0.22";
    object      phi;
}
// * * * * * * * * * * * * * * * * * * * * * * * * * * * * * * * * * * * * * //

dimensions      [0 3 -1 0 0 0 0];
oriented        oriented;


internalField   nonuniform List<scalar> 
84340
(
-0.000825985
0.000402269
0.000423716
-0.00179071
0.000208539
0.000756185
-0.00247065
-0.000536059
0.001216
-0.00335164
-0.0012322
0.0021132
-0.00465374
-0.00168979
0.00299189
-0.00616104
-0.00193876
0.00344606
-0.00761586
-0.00198868
0.0034435
-0.00889442
-0.0018868
0.00316536
-0.00998009
-0.00169996
0.00278564
-0.0109014
-0.0014547
0.002376
-0.0117096
-0.00114387
0.00195207
-0.0124532
-0.000741744
0.00148537
-0.0131772
-0.000221497
0.000945489
-0.013883
0.000382025
0.000323786
-0.0145271
0.000995517
-0.000351495
-0.0150057
0.0014892
-0.00101059
-0.0152097
0.00176519
-0.00156117
-0.0150881
0.00180111
-0.00192271
-0.0146562
0.00164101
-0.00207295
-0.0139828
0.0013625
-0.00203583
-0.0131685
0.00104729
-0.00186158
-0.0123064
0.000762565
-0.00162471
-0.0114536
0.000542087
-0.00139489
-0.0106348
0.000388059
-0.00120682
-0.00984892
0.000276227
-0.00106213
-0.00908403
0.000180124
-0.000945013
-0.00832206
9.03796e-05
-0.000852352
-0.00755995
1.14656e-05
-0.000773572
-0.00680161
-4.92004e-05
-0.000709146
-0.00605911
-8.30301e-05
-0.000659466
-0.00534776
-8.81044e-05
-0.000623244
-0.00467451
-7.47214e-05
-0.000598531
-0.00404735
-4.4345e-05
-0.000582809
-0.00346277
-1.15155e-05
-0.000573073
-0.00291837
2.17539e-05
-0.00056615
-0.00241271
5.31367e-05
-0.000558801
-0.0019459
8.11528e-05
-0.000547955
-0.00151837
0.000103437
-0.00053097
-0.00113056
0.00011819
-0.000506005
-0.000782494
0.000124279
-0.000472341
-0.00047341
0.000121468
-0.000430551
-0.000201488
0.000110456
-0.000382379
3.62547e-05
9.25899e-05
-0.000330333
0.000243472
6.98022e-05
-0.00027702
0.000425436
4.26495e-05
-0.000224614
0.000585439
1.4377e-05
-0.00017438
0.000726783
-1.33942e-05
-0.00012795
0.000856526
-3.86071e-05
-9.11364e-05
0.00097424
-5.93644e-05
-5.83498e-05
0.00107897
-7.38359e-05
-3.08924e-05
0.00116947
-8.03943e-05
-1.01086e-05
0.00124397
-7.78479e-05
3.35236e-06
0.00130024
-6.55652e-05
9.29544e-06
0.00133591
-4.36376e-05
7.96879e-06
0.00134854
-1.25866e-05
-4.23246e-08
0.00133509
2.7328e-05
-1.38809e-05
0.00130493
6.2339e-05
-3.21772e-05
0.00126511
9.39683e-05
-5.41493e-05
0.00121945
0.000124537
-7.88762e-05
0.00117434
0.000150325
-0.000105223
0.00113452
0.000171876
-0.000132053
0.00110214
0.000190602
-0.00015822
0.00107748
0.000207296
-0.000182632
0.00106012
0.000221686
-0.000204328
0.00104971
0.000232936
-0.000222528
0.00104621
0.000240115
-0.000236613
0.00104981
0.000242435
-0.000246044
0.00106085
0.000239253
-0.000250288
0.00107963
0.000230019
-0.000248803
0.00110642
0.000214269
-0.000241057
0.00114136
0.000191645
-0.000226583
0.00118448
0.000161889
-0.00020501
0.00123574
0.000124818
-0.000176075
0.00129508
8.02593e-05
-0.000139601
0.00136255
2.79748e-05
-9.54473e-05
0.00143872
-3.23391e-05
-4.38275e-05
0.00152315
-0.000101262
1.6829e-05
0.00161645
-0.000179327
8.60268e-05
0.001719
-0.000267991
0.000165448
-0.000358532
0.000253513
0.00182402
0.000609381
-0.000207112
0.00144146
-0.000623536
0.00193939
-0.001034
0.00185925
-0.00115206
0.0010689
-0.000899433
-0.000358108
-0.000511757
-0.00214989
-0.000196898
-0.00399975
-3.69444e-05
-0.00570079
1.08725e-06
-0.00715488
-6.14327e-07
-0.00833375
3.50091e-05
-0.00924075
0.000165249
-0.00985478
0.000392538
-0.0101621
0.000689343
-0.0101361
0.000969545
-0.00978092
0.00113399
-0.0091689
0.00115317
-0.00843207
0.00106429
-0.00770928
0.00091822
-0.00709677
0.000749982
-0.0066299
0.000580424
-0.0062877
0.000420361
-0.0060115
0.000265891
-0.00573746
0.000114019
-0.00542936
-3.18775e-05
-0.0050553
-0.000193936
-0.00462525
-0.000339664
-0.00416049
-0.000453292
-0.00367903
-0.000530669
-0.00319563
-0.000566429
-0.00272711
-0.000556618
-0.0022827
-0.000519134
-0.00185924
-0.000467805
-0.00145828
-0.000412481
-0.00107732
-0.000359199
-0.000713234
-0.000310952
-0.000363122
-0.000268959
-2.644e-05
-0.000233245
0.000295347
-0.000203597
0.000599984
-0.000180359
0.000884838
-0.000163386
0.00114633
-0.000151034
0.00138398
-0.000145065
0.00159779
-0.000144001
0.00178713
-0.000146697
0.00195304
-0.000151532
0.00209627
-0.000156626
0.00221755
-0.000159882
0.00231717
-0.000158988
0.00239491
-0.000151568
0.00245002
-0.000135509
0.00248143
-0.000109254
0.00248779
-7.19297e-05
0.00246902
-2.48686e-05
0.00242639
3.00471e-05
0.00235287
0.000100844
0.00224746
0.00016775
0.00211191
0.000229519
0.00195635
0.000280093
0.00179176
0.000314921
0.00163099
0.000332649
0.00148651
0.000335082
0.00136777
0.000326036
0.00127932
0.000310137
0.00122058
0.000291672
0.00118728
0.000273418
0.00117365
0.000256063
0.00117439
0.000238514
0.00118562
0.000218784
0.00120503
0.000194858
0.0012315
0.000165178
0.00126466
0.000128727
0.00130456
8.49171e-05
0.00135146
3.33574e-05
0.00140623
-2.6795e-05
0.00146939
-9.54909e-05
0.0015415
-0.000173373
0.00162295
-0.00026078
0.00171336
-0.000358404
-0.000455769
0.0018106
2.21115e-05
-0.000229223
-0.000302444
-0.000298981
-0.00130934
-2.70964e-05
-0.00280525
0.000343849
-0.0043974
0.000692721
-0.00588617
0.000977014
-0.00721929
0.00113622
-0.00839299
0.00113675
-0.00938161
0.000989704
-0.0101343
0.000752087
-0.0106033
0.000504026
-0.0107504
0.000312299
-0.0105683
0.000210474
-0.0100762
0.000197235
-0.00932131
0.000214644
-0.00840252
0.000215202
-0.00742406
0.000174715
-0.00645466
9.48899e-05
-0.00552409
-1.235e-05
-0.00463749
-0.000136623
-0.00378778
-0.000269281
-0.002965
-0.000402418
-0.0021667
-0.000532406
-0.00139603
-0.000656659
-0.00065945
-0.000768455
2.53546e-06
-0.000855921
0.000583903
-0.000921032
0.00108432
-0.000953709
0.0015026
-0.000948952
0.00184719
-0.000911017
0.00213852
-0.000847952
0.00239002
-0.000770626
0.0026109
-0.000688688
0.00280538
-0.000606964
0.00297468
-0.000528494
0.00311855
-0.000454826
0.00323643
-0.000386835
0.00332885
-0.000325665
0.00339829
-0.000273037
0.00344873
-0.000230805
0.00348472
-0.000199373
0.00351169
-0.000178003
0.00353206
-0.000165437
0.00354778
-0.000159721
0.00355992
-0.000158835
0.00356908
-0.000160697
0.00357542
-0.00016296
0.00357844
-0.000162907
0.00357705
-0.000157591
0.00356961
-0.000144133
0.00355427
-0.00012017
0.00352929
-8.42722e-05
0.00349382
-3.64592e-05
0.00344923
1.97269e-05
0.00338167
9.76011e-05
0.00330305
0.000179466
0.00320591
0.000264886
0.00308627
0.000349164
0.00294026
0.000426101
0.0027667
0.000488481
0.0025699
0.000529451
0.00236028
0.000544698
0.00215186
0.000534461
0.00195811
0.000503881
0.00178878
0.000461
0.00164869
0.000413514
0.00153842
0.000366326
0.00145595
0.000320987
0.00139809
0.000276649
0.00136153
0.000231418
0.00134337
0.000183338
0.0013413
0.00013079
0.00135372
7.25046e-05
0.00137964
7.43119e-06
0.00141824
-6.53935e-05
0.00146947
-0.000146724
0.00153315
-0.000237046
0.00160874
-0.000336373
0.00169487
-0.000444535
-0.000552386
0.00179149
-0.000297834
6.86099e-05
-0.00105668
0.000459871
-0.0022239
0.00114012
-0.00375413
0.00187407
-0.00552424
0.00246284
-0.00742003
0.0028728
-0.00933662
0.00305282
-0.011137
0.00293717
-0.01263
0.00248263
-0.0136123
0.00173441
-0.0139656
0.000857323
-0.0137233
7.00045e-05
-0.0130223
-0.000490559
-0.0119988
-0.000826208
-0.010776
-0.00100813
-0.00944938
-0.00111145
-0.00809297
-0.00118169
-0.00675662
-0.00124146
-0.00547397
-0.001295
-0.00427046
-0.00134014
-0.00316655
-0.00137318
-0.00217739
-0.00139158
-0.0013154
-0.0013944
-0.000590469
-0.00138159
-5.38966e-06
-0.00135353
0.000451385
-0.0013127
0.000793684
-0.00126333
0.00105204
-0.00121206
0.00126735
-0.00116426
0.00147754
-0.00112121
0.00170519
-0.0010756
0.00196043
-0.00102587
0.00224114
-0.000969398
0.00253376
-0.000899588
0.00281759
-0.000812328
0.00306967
-0.000706904
0.00326922
-0.000586385
0.00340092
-0.000457363
0.00345747
-0.000329585
0.00344125
-0.000214582
0.00336466
-0.000122783
0.00324715
-6.04925e-05
0.0031097
-2.79907e-05
0.00297065
-2.06736e-05
0.00284303
-3.12134e-05
0.00273372
-5.13844e-05
0.00264419
-7.34363e-05
0.00257213
-9.08426e-05
0.00251308
-9.85387e-05
0.00246193
-9.29829e-05
0.0024139
-7.21433e-05
0.00236486
-3.5234e-05
0.00231148
1.69198e-05
0.00224921
8.1998e-05
0.00218856
0.000158252
0.00212631
0.000241712
0.00206288
0.000328318
0.00199891
0.000413139
0.00193472
0.00049029
0.00186991
0.000553285
0.00180326
0.000596107
0.00173316
0.000614798
0.00165876
0.000608858
0.00158113
0.000581518
0.00150359
0.000538539
0.00143096
0.000486144
0.00136805
0.000429234
0.00131843
0.000370603
0.00128396
0.000311123
0.00126499
0.000250388
0.00126099
0.000187338
0.00127116
0.000120615
0.0012949
4.87669e-05
0.00133135
-2.90156e-05
0.00138041
-0.000114453
0.00144183
-0.000208152
0.00151509
-0.000310302
0.0015991
-0.000420383
0.00169204
-0.000537473
-0.000652828
0.00179248
-0.000105896
0.000174506
-0.000272146
0.00062612
-0.000194879
0.00106286
0.000244714
0.00143448
0.000955417
0.00175213
0.00184563
0.00198258
0.00279325
0.0021052
0.00365943
0.00207098
0.00431628
0.00182578
0.0046847
0.001366
0.00474655
0.000795468
0.00452494
0.000291611
0.0040669
-3.25102e-05
0.00344178
-0.000201096
0.0027353
-0.000301653
0.00201648
-0.000392624
0.00132424
-0.000489454
0.000672216
-0.000589441
6.20028e-05
-0.000684784
-0.000506565
-0.000771575
-0.00102656
-0.000853187
-0.00148949
-0.000928651
-0.00188335
-0.00100054
-0.00219468
-0.00107026
-0.0024099
-0.00113832
-0.00251837
-0.00120423
-0.00251722
-0.00126448
-0.00241476
-0.00131452
-0.00222762
-0.00135141
-0.00197531
-0.00137351
-0.00167295
-0.00137796
-0.00133927
-0.00135955
-0.000997819
-0.00131085
-0.000674782
-0.00122263
-0.000397047
-0.00109006
-0.000183715
-0.000920236
-3.77479e-05
-0.000732352
5.40052e-05
-0.000549116
0.000112237
-0.000387817
0.000155943
-0.000258288
0.000197996
-0.000164835
0.000245743
-0.00010824
0.000300737
-8.29842e-05
0.000359147
-7.90829e-05
0.000416892
-8.89583e-05
0.000471707
-0.000106199
0.000519643
-0.000121372
0.000556883
-0.000128083
0.000580632
-0.000122288
0.000589665
-0.000102016
0.000584115
-6.65927e-05
0.00056732
-1.84385e-05
0.000543384
4.08556e-05
0.000516702
0.00010868
0.000492194
0.00018276
0.000474352
0.000259554
0.000467312
0.000335356
0.000474354
0.000406097
0.000497253
0.000467391
0.000535635
0.000514902
0.000586629
0.000545113
0.000645296
0.000556131
0.000705998
0.000548155
0.000764046
0.000523469
0.000816925
0.000485661
0.000864521
0.000438549
0.00090848
0.000385275
0.000951222
0.000327861
0.000995165
0.000267181
0.00104237
0.000203187
0.00109453
0.000135171
0.00115338
6.17732e-05
0.00121939
-1.72524e-05
0.00129392
-0.000103544
0.00137755
-0.000198083
0.00147037
-0.000300968
0.00157182
-0.000411752
0.00168065
-0.000529211
0.0017948
-0.000651623
-0.000771324
0.00191329
-0.000241078
0.000415585
-0.000235571
0.000620613
0.000295217
0.000532069
0.00136996
0.000359739
0.00302099
0.000101098
0.00524395
-0.000240369
0.00792314
-0.000573996
0.0108025
-0.000808419
0.0135127
-0.00088441
0.0157061
-0.000827369
0.0171762
-0.000674625
0.0179322
-0.000464443
0.0181436
-0.000243833
0.0180031
-6.0677e-05
0.017636
6.55083e-05
0.0171161
0.000127298
0.0164769
0.000149678
0.0157422
0.000145283
0.0149334
0.000124022
0.0140736
8.82059e-05
0.0131794
4.10093e-05
0.0122648
-1.4024e-05
0.0113391
-7.48123e-05
0.010418
-0.000149179
0.00952389
-0.000244208
0.00867896
-0.000359298
0.00789401
-0.000479538
0.00716908
-0.000589587
0.00649813
-0.000680458
0.00587186
-0.000747234
0.0052785
-0.000784606
0.00470518
-0.000786224
0.00413896
-0.000744626
0.00357052
-0.00065419
0.0029984
-0.000517938
0.00243065
-0.00035249
0.00188967
-0.000191376
0.00140614
-6.55779e-05
0.00100441
1.39056e-05
0.000695882
5.02434e-05
0.000476694
5.43526e-05
0.000329894
3.85596e-05
0.000234357
1.25527e-05
0.000176992
-2.17184e-05
0.00013878
-5.07466e-05
0.000105115
-7.25338e-05
6.70344e-05
-8.32912e-05
2.03692e-05
-8.14174e-05
-3.5232e-05
-6.66862e-05
-9.74471e-05
-3.98005e-05
-0.00016323
-8.09409e-07
-0.000228015
4.63465e-05
-0.000287136
9.99765e-05
-0.000335736
0.00015728
-0.000368612
0.000215636
-0.000381463
0.000272405
-0.000371054
0.000324948
-0.000335582
0.000370624
-0.000275093
0.000406903
-0.000191832
0.000431641
-9.00973e-05
0.000443378
2.43846e-05
0.000441649
0.000145411
0.000427128
0.000267544
0.000401337
0.000386992
0.000366212
0.000501915
0.000323626
0.000612184
0.000275006
0.000718898
0.000221146
0.000823869
0.00016221
0.000929207
9.78482e-05
0.00103708
2.73003e-05
0.00114885
-5.00019e-05
0.00126651
-0.000134908
0.00139084
-0.000227876
0.00152169
-0.000328931
0.00165821
-0.000437492
0.00179869
-0.000552234
0.00194078
-0.000671296
0.00208057
-0.000791413
-0.00090861
0.00221785
0.000452226
-3.66414e-05
0.00105566
1.71769e-05
0.00149437
9.33597e-05
0.00200699
-0.000152885
0.00288017
-0.00077208
0.00405771
-0.00141791
0.00529897
-0.00181525
0.00643749
-0.00194694
0.00742259
-0.00186951
0.00823299
-0.00163777
0.00887941
-0.00132104
0.00939952
-0.000984558
0.00984427
-0.000688584
0.0102252
-0.000441641
0.0104965
-0.000205742
0.0106064
1.73666e-05
0.0105677
0.000188373
0.0103706
0.000342443
0.0100158
0.00047877
0.00952707
0.000576955
0.00898523
0.000582849
0.00847837
0.000492834
0.00801778
0.000385779
0.00751678
0.000351823
0.00690771
0.000364856
0.00619507
0.000353346
0.00540542
0.00031011
0.00457236
0.000243469
0.00371691
0.000175
0.00285173
0.00011794
0.00199984
6.72836e-05
0.00118644
2.71748e-05
0.000441011
8.06078e-07
-0.0002018
-1.13798e-05
-0.000707707
-1.20302e-05
-0.00105495
-5.25066e-06
-0.00125005
3.72531e-06
-0.00132313
7.50391e-06
-0.00131221
2.98954e-06
-0.00125193
-1.00435e-05
-0.00116905
-2.85282e-05
-0.00108285
-4.76363e-05
-0.00100567
-6.46235e-05
-0.00094943
-7.79605e-05
-0.000914306
-8.58701e-05
-0.000899561
-8.72793e-05
-0.000901336
-8.15157e-05
-0.000914623
-6.81305e-05
-0.000934403
-4.69061e-05
-0.000955758
-1.84458e-05
-0.000974953
1.83856e-05
-0.00098446
5.58533e-05
-0.000982611
9.81269e-05
-0.000966725
0.000141394
-0.000934485
0.000183397
-0.000884148
0.000222068
-0.000814716
0.000255517
-0.000726165
0.000282073
-0.000619634
0.000300372
-0.000497458
0.000309464
-0.000362972
0.000308892
-0.000220052
0.000298728
-7.23992e-05
0.000279476
7.70419e-05
0.000251896
0.000226472
0.000216782
0.00037533
0.000174769
0.000524104
0.000126232
0.00067395
7.13011e-05
0.000826362
9.79867e-06
0.00098273
-5.85206e-05
0.00114392
-0.000133891
0.00131041
-0.000216486
0.00148171
-0.000306211
0.00165648
-0.000402647
0.00183248
-0.000504935
0.00200669
-0.000611702
0.00217529
-0.000720826
0.00233418
-0.000830186
0.00247736
-0.000934597
-0.00103597
0.00260472
0.000274773
-0.000311415
0.000678133
-0.000386183
0.00102457
-0.000253079
0.00119786
-0.000326173
0.0010761
-0.000650325
0.000616933
-0.000958738
-0.000112822
-0.0010855
-0.000980103
-0.00107966
-0.00183035
-0.00101926
-0.00253395
-0.000934173
-0.00302446
-0.000830531
-0.00331057
-0.000698444
-0.00348979
-0.000509366
-0.00373488
-0.000196548
-0.00418163
0.000241006
-0.00480288
0.000638617
-0.00549432
0.000879817
-0.006192
0.00104012
-0.00689434
0.0011811
-0.00757696
0.00125958
-0.00814756
0.00115345
-0.00840369
0.000748967
-0.00820451
0.000186595
-0.00767707
-0.000175618
-0.00707666
-0.000235555
-0.00652571
-0.000197606
-0.00601477
-0.00020083
-0.00553002
-0.000241277
-0.00507187
-0.00028315
-0.00464107
-0.000312862
-0.00424425
-0.000329537
-0.00388187
-0.000335199
-0.00354886
-0.000332203
-0.00323757
-0.000322674
-0.00294106
-0.000308538
-0.00265467
-0.000291646
-0.00237731
-0.000273628
-0.00211417
-0.000255639
-0.00187313
-0.000238056
-0.00166272
-0.000220453
-0.00148933
-0.000201914
-0.0013554
-0.000181566
-0.00126093
-0.000159095
-0.00120389
-0.000134997
-0.00117947
-0.000110291
-0.00118066
-8.60894e-05
-0.0011991
-6.30838e-05
-0.00122601
-4.12167e-05
-0.00125307
-1.98484e-05
-0.00127371
2.19171e-06
-0.00128086
2.55435e-05
-0.00127534
5.03309e-05
-0.00125328
7.60648e-05
-0.00121344
0.00010156
-0.00115534
0.000125295
-0.00107898
0.000145707
-0.000984849
0.000161384
-0.000873955
0.000171179
-0.000747844
0.000174261
-0.000608487
0.000170106
-0.000458086
0.000158491
-0.000298725
0.000139366
-0.000132183
0.000112933
4.02673e-05
7.94453e-05
0.00021802
3.9029e-05
0.000400843
-8.05424e-06
0.000588847
-6.17722e-05
0.000781661
-0.000121513
0.000979005
-0.000187546
0.00118003
-0.000259549
0.0013833
-0.000337154
0.00158666
-0.000419853
0.00178737
-0.000506916
0.00198206
-0.000597338
0.00216689
-0.00068976
0.0023376
-0.000782419
0.00248975
-0.000872971
0.00261875
-0.000959188
0.00272054
-0.00103638
-0.00110865
0.00279322
-0.000468057
0.000156642
-0.00101574
0.000161499
-0.00131728
4.84617e-05
-0.00170308
5.96262e-05
-0.00250905
0.000155647
-0.00369376
0.000225972
-0.00501969
0.000240438
-0.00632288
0.000223528
-0.007536
0.000193857
-0.00862589
0.000155714
-0.00956066
0.000104244
-0.0102987
3.9576e-05
-0.0107849
-2.31768e-05
-0.0109994
1.79495e-05
-0.0110378
0.000279423
-0.0109824
0.000583248
-0.0108072
0.000704628
-0.0104731
0.000705951
-0.00998917
0.000697225
-0.00939752
0.000667925
-0.00877491
0.00053084
-0.00822215
0.000196203
-0.00778664
-0.000248918
-0.00740846
-0.000553799
-0.00699385
-0.000650157
-0.00651745
-0.000674007
-0.00601117
-0.000707114
-0.00551196
-0.00074049
-0.00503438
-0.00076073
-0.00458394
-0.000763299
-0.00416491
-0.000748566
-0.0037789
-0.000721216
-0.00342521
-0.000685893
-0.00310209
-0.000645792
-0.00280764
-0.000602986
-0.00254054
-0.000558745
-0.00230039
-0.000513779
-0.00208766
-0.000468372
-0.00190322
-0.00042249
-0.00174776
-0.000375914
-0.00162121
-0.000328468
-0.00152248
-0.000280298
-0.00144947
-0.000232097
-0.00139923
-0.000185245
-0.00136792
-0.000141597
-0.00135127
-0.000102735
-0.00134424
-7.01209e-05
-0.00134169
-4.37616e-05
-0.00133964
-2.18988e-05
-0.00133085
-6.59507e-06
-0.00131272
7.40607e-06
-0.00128264
2.02531e-05
-0.00123871
3.21328e-05
-0.00117972
4.25695e-05
-0.00110506
5.06342e-05
-0.0010146
5.52558e-05
-0.000908674
5.54535e-05
-0.000787933
5.04378e-05
-0.000653261
3.95888e-05
-0.000505906
2.27518e-05
-0.000347725
3.10467e-07
-0.000179121
-2.9238e-05
-1.43845e-06
-6.47485e-05
0.00018344
-0.000105433
0.000375068
-0.000152599
0.000571812
-0.000204798
0.000771837
-0.000261797
0.000973539
-0.000323214
0.00117458
-0.000388584
0.00137238
-0.000457349
0.00156408
-0.000528857
0.00174658
-0.000602356
0.00191662
-0.000676957
0.00207087
-0.000751579
0.00220599
-0.000824888
0.00231886
-0.000895282
0.00240685
-0.000960967
0.00246785
-0.00102018
0.00250288
-0.00107142
-0.00111584
0.00251007
0.000136261
2.03814e-05
0.000142805
0.000154954
5.41664e-05
0.000137101
9.98329e-05
1.39597e-05
0.000340919
-8.54388e-05
0.000715011
-0.00014812
0.00113707
-0.000181618
0.00156285
-0.000202257
0.00197829
-0.000221578
0.00238286
-0.000248864
0.00278136
-0.000294256
0.00317155
-0.000350615
0.00354305
-0.00039467
0.00394722
-0.000386221
0.00446942
-0.000242779
0.00507943
-2.67649e-05
0.00565563
0.000128433
0.0061364
0.000225184
0.00652084
0.000312782
0.0067949
0.000393868
0.00686952
0.00045622
0.00657153
0.000494189
0.00582321
0.000499402
0.00481362
0.000455791
0.0037895
0.000373969
0.0028525
0.00026299
0.00200266
0.000142721
0.00123773
2.44447e-05
0.000555893
-7.88925e-05
-4.37911e-05
-0.000163615
-0.000562318
-0.000230039
-0.00100343
-0.000280107
-0.00137308
-0.000316243
-0.00167795
-0.000340924
-0.00192463
-0.000356301
-0.00211938
-0.000363998
-0.00226801
-0.000365146
-0.00237584
-0.000360542
-0.00244753
-0.000350799
-0.00248699
-0.000336457
-0.00249741
-0.00031805
-0.00248155
-0.000296159
-0.00244209
-0.000271553
-0.00238215
-0.000245181
-0.00230561
-0.00021814
-0.0022168
-0.000191546
-0.00212051
-0.000166412
-0.00202082
-0.000143444
-0.00191967
-0.000123053
-0.00182063
-0.000105631
-0.00172123
-9.1995e-05
-0.00162024
-8.07448e-05
-0.00151562
-7.24831e-05
-0.00140536
-6.76933e-05
-0.00128787
-6.68556e-05
-0.00116219
-7.04227e-05
-0.00102806
-7.86717e-05
-0.00088617
-9.14561e-05
-0.000735332
-0.000111249
-0.000577604
-0.000134977
-0.000412225
-0.000165068
-0.000241472
-0.000199992
-6.64158e-05
-0.000239804
0.000112169
-0.000284018
0.000291904
-0.000332334
0.000471243
-0.000384138
0.000648351
-0.000438906
0.000821136
-0.000495998
0.00098733
-0.000554778
0.00114458
-0.000614603
0.00129054
-0.000674815
0.00142291
-0.000734722
0.00153953
-0.000793585
0.00163857
-0.000850616
0.0017187
-0.000905013
0.00177947
-0.000956055
0.00182179
-0.00100329
0.00184828
-0.00104667
0.00186387
-0.00108701
-0.00112481
0.00187284
-0.000197393
0.000217775
-0.000662185
0.000619745
-0.00138651
0.000861428
-0.00228051
0.000907955
-0.00322505
0.000859105
-0.00416786
0.000794688
-0.00508105
0.000731572
-0.00593389
0.000650581
-0.00668487
0.000529409
-0.00729777
0.000364029
-0.00776269
0.000170665
-0.00809629
-1.70143e-05
-0.0083453
-0.000145659
-0.00856356
-0.000167961
-0.00872812
-7.82218e-05
-0.00881945
6.45669e-05
-0.00886832
0.000177307
-0.00886705
0.000223915
-0.00877141
0.000217136
-0.00855528
0.000177745
-0.00821991
0.000120849
-0.00778671
6.09912e-05
-0.00729277
5.45401e-06
-0.00678242
-5.45564e-05
-0.0063055
-0.000102952
-0.0058899
-0.000152606
-0.00553816
-0.000209022
-0.00523894
-0.000274775
-0.00496984
-0.000347993
-0.00471526
-0.000418191
-0.00446872
-0.000476578
-0.0042311
-0.000517734
-0.00400686
-0.000540482
-0.00380027
-0.000547514
-0.00361355
-0.000543022
-0.00344679
-0.000530753
-0.00329869
-0.000513248
-0.00316726
-0.000491968
-0.00305033
-0.000467726
-0.00294571
-0.000441078
-0.0028512
-0.000412567
-0.00276453
-0.000382825
-0.0026835
-0.000352588
-0.00260604
-0.000322638
-0.00253044
-0.000293735
-0.00245542
-0.000266574
-0.00238009
-0.000241742
-0.00230382
-0.000219708
-0.00222604
-0.000200837
-0.00214623
-0.000185438
-0.00206439
-0.000173835
-0.00197891
-0.000166231
-0.00188854
-0.00016285
-0.00179229
-0.000163941
-0.00168931
-0.000169833
-0.001579
-0.000180734
-0.00146091
-0.000196761
-0.0013344
-0.000217967
-0.00120123
-0.000244422
-0.00106035
-0.000275854
-0.000913255
-0.000312165
-0.00076031
-0.000352936
-0.000602421
-0.000397693
-0.000440591
-0.000445848
-0.000276222
-0.000496702
-0.000110823
-0.000549537
5.37285e-05
-0.000603456
0.000215391
-0.00065766
0.000371967
-0.000711354
0.000521199
-0.000763834
0.000660905
-0.000814521
0.000789193
-0.000863009
0.000904715
-0.000909106
0.00100697
-0.000952868
0.00109657
-0.000994611
0.0011754
-0.00103489
0.00124657
-0.00107445
0.00131398
-0.00111408
0.00138144
-0.00115448
-0.00119646
0.0014531
-5.98421e-05
0.000277617
-4.50441e-05
0.000604947
7.39151e-06
0.000808992
-5.4396e-06
0.000920786
-8.40317e-05
0.000937697
-0.000172563
0.00088322
-0.000221556
0.000780565
-0.00022036
0.000649385
-0.000188103
0.000497151
-0.000153964
0.00032989
-0.000147473
0.000164174
-0.000198728
3.42402e-05
-0.000321946
-2.24415e-05
-0.000478375
-1.15317e-05
-0.000585765
2.91685e-05
-0.000606676
8.54776e-05
-0.000570691
0.000141322
-0.000519665
0.000172889
-0.000473965
0.000171436
-0.000455159
0.000158939
-0.000478436
0.000144125
-0.000560428
0.000142984
-0.000712553
0.000157579
-0.000947774
0.000180664
-0.00124893
0.000198207
-0.00159141
0.000189867
-0.00193589
0.000135458
-0.00223454
2.38849e-05
-0.00244778
-0.000134753
-0.00255704
-0.000308938
-0.00257189
-0.000461726
-0.00252194
-0.000567687
-0.00244142
-0.000621003
-0.002358
-0.000630936
-0.00228834
-0.000612682
-0.00223937
-0.00057972
-0.00221163
-0.00054099
-0.00220231
-0.000501284
-0.00220731
-0.000462726
-0.0022223
-0.00042609
-0.00224324
-0.000391623
-0.0022666
-0.000359466
-0.00228942
-0.000329775
-0.00230932
-0.000302734
-0.00232452
-0.000278539
-0.0023337
-0.000257391
-0.00233592
-0.000239523
-0.00233045
-0.000225171
-0.00231671
-0.000214583
-0.00229414
-0.00020801
-0.00226226
-0.000205712
-0.00222054
-0.000207954
-0.00216839
-0.000214996
-0.00210526
-0.000227075
-0.0020307
-0.00024439
-0.00194436
-0.000267079
-0.00184592
-0.000295198
-0.00173518
-0.000328701
-0.0016122
-0.000367405
-0.00147706
-0.000410996
-0.00133022
-0.000459002
-0.00117237
-0.000510785
-0.00100453
-0.000565538
-0.000828075
-0.000622299
-0.000644805
-0.000679973
-0.000456975
-0.000737368
-0.000267144
-0.000793287
-7.81962e-05
-0.000846608
0.000106843
-0.000896393
0.000284973
-0.000941965
0.000453579
-0.000983127
0.000610578
-0.00102001
0.000754667
-0.0010532
0.000885451
-0.00108365
0.00100342
-0.00111258
0.00110977
-0.00114124
0.00120609
-0.00117077
0.00129399
-0.00120199
0.00137494
-0.00123542
-0.00127147
0.00144995
0.000237163
4.04538e-05
0.000449499
0.000392612
0.000458602
0.000799889
0.000392712
0.000986676
0.000425962
0.000904447
0.000615388
0.000693794
0.000883605
0.000512349
0.00112695
0.000406042
0.00127402
0.000350078
0.00129721
0.000306705
0.00120395
0.000257427
0.00102274
0.000215451
0.000838452
0.000161851
0.000726287
0.000100633
0.000729853
2.56032e-05
0.000883182
-6.78513e-05
0.00120713
-0.000182631
0.00169328
-0.000313257
0.00229255
-0.000427838
0.00296374
-0.000512248
0.00365298
-0.000545116
0.00431338
-0.000517417
0.00490536
-0.000434396
0.00539569
-0.000309672
0.00575626
-0.000162354
0.00596243
-1.6304e-05
0.00599441
0.000103479
0.00584047
0.000177824
0.005504
0.000201714
0.00500854
0.000186522
0.00439036
0.000156451
0.00370548
0.000117193
0.00300648
7.79952e-05
0.00233176
4.37902e-05
0.00170449
1.45872e-05
0.00113566
-1.08863e-05
0.000628758
-3.40929e-05
0.000183268
-5.57938e-05
-0.000203625
-7.58335e-05
-0.000536409
-9.33052e-05
-0.000820782
-0.00010725
-0.00106304
-0.000117209
-0.00126923
-0.00012359
-0.00144458
-0.000127382
-0.00159331
-0.000129807
-0.00171863
-0.000132075
-0.00182293
-0.000135223
-0.00190778
-0.000140315
-0.00197414
-0.000148226
-0.00202252
-0.000159626
-0.00205318
-0.000175051
-0.00206619
-0.000194951
-0.00206149
-0.000219695
-0.00203899
-0.000249571
-0.0019986
-0.000284777
-0.00194028
-0.000325406
-0.00186405
-0.000371427
-0.00177008
-0.000422665
-0.00165871
-0.000478781
-0.00153045
-0.000539254
-0.00138609
-0.000603358
-0.00122672
-0.000670159
-0.00105375
-0.000738504
-0.000869029
-0.000807024
-0.000674833
-0.000874169
-0.000473932
-0.000938268
-0.000269569
-0.00099765
-6.53704e-05
-0.00105081
0.000134819
-0.00109658
0.000327255
-0.0011344
0.000508336
-0.00116421
0.000675071
-0.00118674
0.000825223
-0.00120335
0.000957438
-0.00121587
0.00107132
-0.00122646
0.00116743
-0.00123736
0.0012472
-0.00125054
0.0013127
-0.00126749
0.00136636
-0.00128907
-0.00131545
0.00141033
-0.000265047
0.0003055
-0.000757506
0.000885071
-0.00133922
0.0013816
-0.00196193
0.00160939
-0.00257894
0.00152146
-0.0031515
0.00126635
-0.00365565
0.0010165
-0.00407872
0.000829109
-0.0044195
0.000690853
-0.00468069
0.000567904
-0.00487378
0.000450509
-0.00499416
0.000335838
-0.00505453
0.000222212
-0.0050545
0.000100606
-0.00499051
-3.83843e-05
-0.00485476
-0.0002036
-0.00464069
-0.000396708
-0.00434625
-0.000607695
-0.00395896
-0.000815124
-0.00347677
-0.000994436
-0.00289509
-0.0011268
-0.00220982
-0.00120269
-0.00142154
-0.00122268
-0.000543337
-0.00118787
0.00039562
-0.00110131
0.00134794
-0.000968622
0.00225089
-0.00079947
0.00301938
-0.000590665
0.00356725
-0.000346158
0.00382993
-7.61618e-05
0.00380274
0.000183639
0.00352859
0.000391349
0.00308984
0.00051674
0.00257922
0.000554415
0.00206962
0.000524186
0.00160105
0.000457677
0.00118461
0.00038235
0.000815224
0.000313594
0.000483365
0.000256025
0.000181491
0.00020857
-9.58361e-05
0.000170077
-0.000352475
0.000139431
-0.000588669
0.000112604
-0.000803874
8.78235e-05
-0.000997244
6.35628e-05
-0.00116797
3.86465e-05
-0.00131902
1.58294e-05
-0.00144846
-1.08775e-05
-0.00155484
-4.18455e-05
-0.0016382
-7.62656e-05
-0.00169905
-0.000114195
-0.00173804
-0.000155968
-0.00175573
-0.000201999
-0.00175263
-0.000252674
-0.00172912
-0.000308289
-0.00168553
-0.000368996
-0.00162219
-0.000434766
-0.0015395
-0.000505355
-0.00143799
-0.000580293
-0.00131837
-0.000658871
-0.00118159
-0.00074014
-0.00102884
-0.000822905
-0.00086163
-0.000905715
-0.000681814
-0.000986841
-0.000491714
-0.00106427
-0.000294231
-0.00113575
-9.29294e-05
-0.00119895
0.000108001
-0.00125174
0.000303927
-0.00129251
0.000490042
-0.00132052
0.0006619
-0.00133607
0.000815692
-0.00134053
0.000948654
-0.00133631
0.00105937
-0.00132658
0.00114795
-0.00131504
0.00121607
-0.00130548
0.00126675
-0.00130122
0.00130388
-0.00130462
0.0013315
-0.00131669
-0.00133706
0.00135312
1.65476e-05
0.000288952
0.000364674
0.000536945
0.00102339
0.000722879
0.00174374
0.000889043
0.00229907
0.000966134
0.00262091
0.000944515
0.00276912
0.000868288
0.00283533
0.000762901
0.00287965
0.000646525
0.00291908
0.000528482
0.00296105
0.000408538
0.00301272
0.000284166
0.00308182
0.000153109
0.0031656
1.68274e-05
0.00324607
-0.000118851
0.00329528
-0.000252811
0.00328516
-0.000386585
0.00320055
-0.000523087
0.00304854
-0.000663114
0.00285658
-0.000802478
0.00266173
-0.000931953
0.00249834
-0.00103929
0.00238935
-0.00111369
0.002351
-0.00114953
0.00237115
-0.00112146
0.00242771
-0.00102518
0.00248399
-0.00085575
0.00250436
-0.000611039
0.00245783
-0.000299631
0.00232922
5.24568e-05
0.00211379
0.000399068
0.00182131
0.000683824
0.00147537
0.000862679
0.00110583
0.000923955
0.000740364
0.000889657
0.000399374
0.000798666
9.48181e-05
0.000686907
-0.000168706
0.000577118
-0.000392097
0.000479416
-0.000579781
0.000396254
-0.000736454
0.00032675
-0.000866112
0.000269088
-0.000975143
0.000221634
-0.00106784
0.000180518
-0.00114481
0.00014053
-0.00120889
0.000102731
-0.00125642
6.33574e-05
-0.00129026
2.29686e-05
-0.00131477
-1.73377e-05
-0.0013311
-5.99379e-05
-0.00133886
-0.000106438
-0.00133706
-0.000157767
-0.00132444
-0.000214616