/*--------------------------------*- C++ -*----------------------------------*\
| =========                 |                                                 |
| \\      /  F ield         | OpenFOAM: The Open Source CFD Toolbox           |
|  \\    /   O peration     | Version:  2012                                  |
|   \\  /    A nd           | Website:  www.openfoam.com                      |
|    \\/     M anipulation  |                                                 |
\*---------------------------------------------------------------------------*/
FoamFile
{
    version     2.0;
    format      ascii;
    class       surfaceScalarField;
    location    "0.77";
    object      phi;
}
// * * * * * * * * * * * * * * * * * * * * * * * * * * * * * * * * * * * * * //

dimensions      [0 3 -1 0 0 0 0];
oriented        oriented;


internalField   nonuniform List<scalar> 
84340
(
-0.000362075
0.000503502
-0.000141426
-0.00097
0.000531566
7.63585e-05
-0.00172066
1.10221e-05
0.00073964
-0.00269285
-0.000454517
0.0014267
-0.00372738
-0.000551304
0.00158584
-0.00438379
-0.000340503
0.000996911
-0.00437424
7.23679e-06
-1.67843e-05
-0.00387894
0.000329424
-0.000824724
-0.003317
0.000539206
-0.00110115
-0.0029512
0.000628415
-0.000994217
-0.00281925
0.000621048
-0.000752996
-0.0028582
0.000536393
-0.000497444
-0.00300333
0.000399787
-0.000254656
-0.00322318
0.000247409
-2.75538e-05
-0.00348291
8.65665e-05
0.000173156
-0.00377196
-3.73449e-05
0.000326393
-0.00405717
-0.000127154
0.00041237
-0.00429325
-0.000179109
0.000415186
-0.0044343
-0.000188828
0.000329883
-0.0044464
-0.000160509
0.000172604
-0.00431817
-0.000110574
-1.76545e-05
-0.00406701
-6.14813e-05
-0.00018968
-0.00374186
-3.13983e-05
-0.000293753
-0.00341908
-2.73286e-05
-0.000295445
-0.003185
-4.37567e-05
-0.00019033
-0.00308727
-6.78493e-05
-2.98779e-05
-0.00311755
-8.57193e-05
0.000115994
-0.00321896
-8.92488e-05
0.000190664
-0.00331609
-7.93638e-05
0.000176496
-0.00335292
-6.31387e-05
9.99706e-05
-0.00330763
-4.60783e-05
7.82134e-07
-0.0031865
-3.14458e-05
-8.96855e-05
-0.00301016
-2.07673e-05
-0.000155573
-0.00280387
-1.25044e-05
-0.000193779
-0.00259034
-4.58101e-06
-0.000208952
-0.0023839
2.21494e-06
-0.000208652
-0.00219239
8.6393e-06
-0.00020015
-0.00201879
1.51915e-05
-0.000188792
-0.00186296
2.19832e-05
-0.000177813
-0.00172311
2.89421e-05
-0.000168798
-0.0015971
3.60047e-05
-0.000162008
-0.00148304
4.37762e-05
-0.000157836
-0.00137767
5.08844e-05
-0.00015626
-0.00127889
5.84276e-05
-0.000157208
-0.00118888
6.67225e-05
-0.000156729
-0.00110699
7.46308e-05
-0.000156518
-0.00103192
8.2911e-05
-0.000157986
-0.000963897
9.14911e-05
-0.000159511
-0.000903415
0.000100088
-0.00016057
-0.000850801
0.000108192
-0.000160806
-0.000806218
0.000115355
-0.000159937
-0.000769567
0.000121078
-0.000157728
-0.000740427
0.000124825
-0.000153965
-0.000718048
0.00012605
-0.000148429
-0.00070143
0.000124261
-0.00014088
-0.000689405
0.000119011
-0.000131035
-0.000680766
0.000109935
-0.000118574
-0.000674337
9.67236e-05
-0.000103153
-0.000669127
7.92619e-05
-8.44722e-05
-0.000664321
5.7294e-05
-6.21003e-05
-0.000658894
3.06849e-05
-3.61111e-05
-0.000652937
-3.13416e-07
-5.64427e-06
-0.000645582
-3.62233e-05
2.88687e-05
-0.000636067
-7.71027e-05
6.7587e-05
-0.000623555
-0.0001231
0.000110588
-0.00060699
-0.000174439
0.000157873
-0.000585083
-0.000231319
0.000209413
-0.000556364
-0.000293857
0.000265138
-0.000519272
-0.00036201
0.000324918
-0.000472303
-0.000435498
0.000388528
-0.000414161
-0.000513753
0.000455611
-0.000343926
-0.000595885
0.00052565
-0.000261171
-0.000680696
0.000597942
-0.000166067
-0.000766733
0.000671629
-5.93742e-05
-0.000852395
0.000745703
5.75853e-05
-0.000936094
0.000819135
0.000183099
-0.00101651
0.000890999
0.000315211
-0.00109287
0.000960756
0.000452325
-0.00116548
0.00102837
-0.00123909
0.00109222
0.000599198
0.00127551
-0.000772012
0.00298683
-0.00117975
0.00399931
-0.00100146
0.00428208
-0.00073728
0.00426669
-0.000535919
0.00433649
-0.000410303
0.00466949
-0.000325759
0.00521124
-0.000212326
0.00578822
-3.77804e-05
0.00621842
0.000198222
0.00639693
0.000442535
0.00632172
0.000611599
0.00607084
0.000650674
0.00574644
0.000571803
0.00538268
0.000450333
0.00500638
0.000338949
0.00462625
0.000252977
0.00424133
0.000205807
0.00385797
0.000194534
0.00348996
0.000207508
0.00314764
0.000231747
0.00282914
0.000257011
0.00251966
0.000278082
0.00219836
0.000293969
0.00184804
0.00030657
0.00146193
0.00031826
0.00104704
0.000329168
0.00062218
0.000335611
0.000210314
0.000332502
-0.000168075
0.000315251
-0.000497616
0.000283462
-0.00076954
0.000240479
-0.000981723
0.000191415
-0.00113559
0.000141363
-0.00123468
9.45065e-05
-0.00128637
5.39081e-05
-0.00129496
1.72234e-05
-0.00126849
-1.12747e-05
-0.00121465
-3.1851e-05
-0.00114142
-4.42902e-05
-0.0010576
-4.78163e-05
-0.000969273
-4.45523e-05
-0.000881811
-3.65776e-05
-0.000801599
-2.17847e-05
-0.000732589
-2.28833e-06
-0.000677496
1.95379e-05
-0.000637023
4.24375e-05
-0.000610717
6.51855e-05
-0.000597222
8.65934e-05
-0.000594533
0.000105503
-0.000600091
0.000120913
-0.000611205
0.000132192
-0.000625481
0.0001391
-0.000641206
0.000141776
-0.000657224
0.000140279
-0.000672979
0.000134766
-0.000688319
0.000125274
-0.000703378
0.000111783
-0.000718068
9.39517e-05
-0.000732473
7.16991e-05
-0.000746673
4.48847e-05
-0.000760229
1.32429e-05
-0.000771107
-2.53455e-05
-0.000778825
-6.93851e-05
-0.000781778
-0.000120147
-0.00077796
-0.000178256
-0.000765167
-0.000244111
-0.000741188
-0.000317837
-0.000704002
-0.000399195
-0.000651978
-0.000487522
-0.000584037
-0.000581693
-0.000499784
-0.000680138
-0.000399582
-0.000780899
-0.00028458
-0.000881734
-0.000156701
-0.000980274
-1.85795e-05
-0.00107422
0.000126476
-0.00116157
0.000274622
-0.00124101
0.000422117
-0.00131298
-0.00138216
0.000565188
-0.000801668
2.9656e-05
-0.00201495
3.3532e-05
-0.00309842
8.20033e-05
-0.0038139
-2.17913e-05
-0.0040469
-0.000302921
-0.00390967
-0.000547535
-0.00370139
-0.000534035
-0.0037005
-0.00021322
-0.00400718
0.0002689
-0.00454492
0.000735966
-0.00519016
0.00108778
-0.00585087
0.00127231
-0.00646795
0.00126775
-0.00699443
0.00109828
-0.00736614
0.000822043
-0.00754677
0.00051958
-0.0075419
0.000248102
-0.00738252
4.64306e-05
-0.00708908
-9.89053e-05
-0.0066674
-0.000214174
-0.0061294
-0.000306252
-0.00549748
-0.000374915
-0.00479959
-0.0004198
-0.0040639
-0.000441725
-0.00331529
-0.000442038
-0.0025742
-0.000422827
-0.00185774
-0.000387292
-0.00118225
-0.000339881
-0.000563882
-0.000285867
-1.82256e-05
-0.000230406
0.000442966
-0.00017773
0.000814068
-0.000130623
0.00109586
-9.03794e-05
0.00129433
-5.71013e-05
0.00141875
-2.99137e-05
0.00147988
-7.22764e-06
0.00148439
1.27149e-05
0.00144134
3.17796e-05
0.00135818
5.13003e-05
0.0012423
7.15933e-05
0.00110228
9.22096e-05
0.000946261
0.000111462
0.000782634
0.00012705
0.000623778
0.000137071
0.000480721
0.000140769
0.000359811
0.000140448
0.000261137
0.000141112
0.000178715
0.000147607
0.000103931
0.000161378
2.97028e-05
0.000179731
-4.74799e-05
0.000198095
-0.000127916
0.000212627
-0.00021005
0.000221235
-0.00029159
0.000223316
-0.000370607
0.000219295
-0.000445629
0.000209788
-0.000515758
0.000195403
-0.00058051
0.000176535
-0.000639842
0.000153284
-0.000693585
0.000125443
-0.000741229
9.25292e-05
-0.000781713
5.3726e-05
-0.000814852
7.79409e-06
-0.000839265
-4.49728e-05
-0.000852505
-0.000106907
-0.000852451
-0.000178311
-0.000837078
-0.000259485
-0.000804609
-0.000350306
-0.000753695
-0.000450109
-0.000683569
-0.000557648
-0.000594161
-0.000671102
-0.000486172
-0.000788127
-0.000361106
-0.000905964
-0.00022125
-0.00102159
-6.96014e-05
-0.00113192
9.01989e-05
-0.00123402
0.000253948
-0.00132532
0.000416993
-0.00140406
0.000574124
-0.00147011
-0.0015268
0.00071876
-0.000284768
0.000314424
-0.00065563
0.000404394
-0.000729965
0.000156338
-0.000515124
-0.000236632
-0.000175918
-0.000642127
0.000178162
-0.000901615
0.000520683
-0.000876557
0.000895077
-0.000587615
0.00137614
-0.000212161
0.00202611
8.59989e-05
0.00284684
0.000267037
0.00375219
0.000366961
0.00459766
0.000422284
0.00525039
0.000445558
0.00563737
0.000435065
0.00575553
0.000401417
0.00562521
0.00037842
0.00528795
0.000383685
0.00480828
0.00038077
0.00425184
0.000342269
0.00365877
0.000286811
0.00307078
0.000213081
0.00252283
0.000128149
0.00203939
4.1714e-05
0.00163402
-3.66648e-05
0.00131244
-0.000101248
0.00107609
-0.000150941
0.000923443
-0.000187238
0.000849445
-0.000211869
0.000844837
-0.000225797
0.000896735
-0.000229629
0.000989872
-0.00022376
0.00110791
-0.000208414
0.00123523
-0.000184428
0.00136019
-0.000154872
0.00147143
-0.000118464
0.00155955
-7.54107e-05
0.0016176
-2.62682e-05
0.00163512
3.37828e-05
0.00161196
9.47489e-05
0.00154579
0.000158382
0.00143588
0.000221369
0.00128394
0.000278996
0.00109544
0.000325566
0.000879731
0.000356482
0.000649777
0.000370402
0.0004208
0.000370089
0.00020759
0.000360817
2.13831e-05
0.000347585
-0.000132477
0.000333591
-0.000254676
0.000320295
-0.000350068
0.000308019
-0.000425123
0.00029629
-0.000486202
0.000284394
-0.00053812
0.000271213
-0.000584378
0.000256046
-0.000627179
0.000238205
-0.000667646
0.000217001
-0.000705995
0.000191633
-0.000741651
0.000161099
-0.000773314
0.000124192
-0.000799146
7.95587e-05
-0.000817083
2.57301e-05
-0.000823932
-3.81233e-05
-0.000817517
-0.000113322
-0.000795517
-0.00020031
-0.000755954
-0.000299048
-0.000697382
-0.000408877
-0.00061902
-0.000528471
-0.000520848
-0.000655819
-0.000403687
-0.000788262
-0.000269235
-0.000922579
-0.000120039
-0.00105516
4.05587e-05
-0.00118219
0.000208575
-0.00129994
0.000379615
-0.00140506
0.000549024
-0.00149473
0.000711952
-0.00156699
0.00086323
-0.00162139
-0.00166078
0.000997218
0.00044514
-0.000130716
0.00102474
-0.000175203
0.00135882
-0.000177743
0.00129324
-0.00017105
0.00079257
-0.000141461
-1.43406e-05
-9.47041e-05
-0.00085202
-3.88778e-05
-0.00146171
2.20731e-05
-0.00176241
8.85386e-05
-0.00183639
0.000159978
-0.00180477
0.000235426
-0.00175357
0.000315759
-0.00173461
0.000403325
-0.00178274
0.000493683
-0.00192015
0.000572479
-0.00215504
0.000636305
-0.00248075
0.000704134
-0.00286597
0.0007689
-0.0032631
0.000777902
-0.00362429
0.000703455
-0.00388988
0.000552403
-0.00401624
0.000339446
-0.00398164
9.35502e-05
-0.00379555
-0.000144378
-0.00349491
-0.00033731
-0.00312726
-0.000468897
-0.00273299
-0.000545209
-0.00233704
-0.000583184
-0.0019509
-0.000598011
-0.00157864
-0.000598057
-0.00122227
-0.000586002
-0.000884302
-0.000561729
-0.000567796
-0.00052492
-0.00027596
-0.000476264
-1.32059e-05
-0.000417626
0.000219488
-0.000351158
0.00042269
-0.000278612
0.000597986
-0.000201564
0.000751843
-0.000120074
0.0008803
-3.37082e-05
0.000982516
5.61669e-05
0.00105569
0.000148194
0.00109525
0.000239433
0.00109529
0.000325533
0.00105063
0.000401141
0.000960258
0.000460771
0.000830153
0.000500194
0.000672992
0.000517978
0.000504214
0.000516362
0.000337246
0.000500559
0.000180867
0.000476675
3.9327e-05
0.000449559
-8.63101e-05
0.000421927
-0.000196399
0.000394483
-0.00029237
0.000367185
-0.000375604
0.00033928
-0.000447316
0.000309917
-0.000508384
0.00027807
-0.000559199
0.000242448
-0.000599603
0.000201503
-0.000628902
0.000153491
-0.000645943
9.65997e-05
-0.000648895
2.86822e-05
-0.000636834
-5.01843e-05
-0.000608045
-0.000142111
-0.000561052
-0.000247304
-0.000494866
-0.000365234
-0.000409016
-0.000494727
-0.000303682
-0.000633804
-0.000179822
-0.00077968
-3.92887e-05
-0.000928796
0.000115113
-0.00107698
0.000279655
-0.0012197
0.000449957
-0.00135249
0.000621265
-0.00147125
0.000788793
-0.00157258
0.000948075
-0.00165401
0.00109503
-0.00171394
0.00122562
-0.00175197
-0.00177137
0.0013362
-1.97012e-05
-0.000111014
-4.35939e-05
-0.00015131
-0.000100093
-0.000121244
-0.000174428
-9.67146e-05
-0.000211449
-0.00010444
-0.000199756
-0.000106398
-0.000183363
-5.52701e-05
-0.000212536
5.12459e-05
-0.000318564
0.000194566
-0.000510248
0.000351663
-0.000776052
0.000501229
-0.0010952
0.000634907
-0.00143555
0.000743679
-0.00175909
0.00081722
-0.00203692
0.000850306
-0.00224899
0.000848373
-0.00236637
0.000821521
-0.0023628
0.000765326
-0.00224493
0.000660032
-0.00203591
0.000494436
-0.00176838
0.000284874
-0.00147991
5.09744e-05
-0.00121701
-0.000169345
-0.00101906
-0.000342328
-0.000897745
-0.00045863
-0.000850435
-0.000516207
-0.000863599
-0.000532044
-0.000919206
-0.000527577
-0.000998332
-0.000518886
-0.00108272
-0.000513664
-0.00115656
-0.000512171
-0.00120906
-0.000509222
-0.00123708
-0.000496899
-0.00124563
-0.000467712
-0.00124416
-0.000419105
-0.00124229
-0.000353018
-0.00125223
-0.000268673
-0.00126831
-0.000185491
-0.00127966
-0.00010872
-0.00128345
-2.99221e-05
-0.00127585
4.85743e-05
-0.00125235
0.000124694
-0.00120983
0.00019691
-0.00114759
0.000263289
-0.00106785
0.000321408
-0.000975836
0.000368752
-0.000879072
0.00040343
-0.000785985
0.000424891
-0.000703814
0.000434191
-0.000636848
0.000433592
-0.000585908
0.000425734
-0.000549229
0.00041288
-0.000523849
0.000396548
-0.000506942
0.000377575
-0.000495975
0.000356218
-0.000488993
0.000332297
-0.000484283
0.000305207
-0.000480136
0.000273923
-0.000474712
0.000237024
-0.000465978
0.000192769
-0.000451711
0.000139224
-0.000429522
7.44115e-05
-0.000397354
-3.4859e-06
-0.000352724
-9.48132e-05
-0.000293631
-0.000201203
-0.000218668
-0.000322266
-0.000126864
-0.000457038
-1.79565e-05
-0.000603635
0.000107429
-0.00075919
0.000247602
-0.000919854
0.000399724
-0.00108092
0.00055982
-0.00123708
0.000723043
-0.00138292
0.000884045
-0.00151349
0.00103765
-0.00162485
0.00117941
-0.00171435
0.00130599
-0.00178059
0.00141516
-0.00182311
0.00150523
-0.00184204
-0.00184126
0.00157513
-0.000300774
0.00018976
-0.000668438
0.000216353
-0.000834759
4.50771e-05
-0.000815216
-0.000116257
-0.000703973
-0.000215683
-0.000576032
-0.000234338
-0.000477902
-0.0001534
-0.000432801
6.14499e-06
-0.000441543
0.000203308
-0.000488207
0.000398327
-0.000549438
0.00056246
-0.000592578
0.000678046
-0.000584312
0.000735414
-0.000499682
0.000732591
-0.000327039
0.000677663
-6.85532e-05
0.000589887
0.000263467
0.000489501
0.00064087
0.000387923
0.00100767
0.000293234
0.00129478
0.000207324
0.00144626
0.000133395
0.00142831
6.89249e-05
0.00122968
2.92896e-05
0.00088156
5.78744e-06
0.000435396
-1.24658e-05
-4.68764e-05
-3.39345e-05
-0.000515915
-6.30063e-05
-0.000941543
-0.000101949
-0.0013054
-0.000155029
-0.00159001
-0.000229049
-0.00177619
-0.000325995
-0.00185302
-0.000432391
-0.00183173
-0.000518187
-0.00174508
-0.000554369
-0.00163105
-0.000533126
-0.00151634
-0.000467729
-0.00140691
-0.000378101
-0.0013142
-0.000278202
-0.00124523
-0.000177697
-0.00119595
-7.92029e-05
-0.00116015
1.27757e-05
-0.00113137
9.59194e-05
-0.00110309
0.000168632
-0.00106972
0.000229912
-0.0010276
0.000279294
-0.000975672
0.000316822
-0.000915308
0.000343066
-0.00084952
0.000359103
-0.000781709
0.000366379
-0.000714603
0.000366487
-0.000649807
0.000360938
-0.000587961
0.000351034
-0.000529215
0.000337802
-0.000473607
0.000321968
-0.000421276
0.000303887
-0.000372392
0.000283414
-0.000326968
0.000259782
-0.000284606
0.000231561
-0.000244313
0.000196732
-0.000204436
0.000152891
-0.000162744
9.75315e-05
-0.00011658
2.82471e-05
-6.34288e-05
-5.66377e-05
-1.49326e-07
-0.000158093
7.5198e-05
-0.00027655
0.000164155
-0.000411223
0.000267441
-0.000560325
0.000384754
-0.000720948
0.000514568
-0.000889004
0.000653978
-0.00105926
0.000798674
-0.00122561
0.000943187
-0.00138159
0.00108147
-0.00152121
0.00120777
-0.0016398
0.00131757
-0.00173464
0.00140824
-0.00180501
0.00147918
-0.00185154
0.0015314
-0.00187533
0.00156667
-0.00187731
-0.0018604
0.00158581
0.000153322
3.64378e-05
0.000351728
1.79474e-05
0.000439162
-4.23566e-05
0.000404452
-8.15471e-05
0.000275734
-8.69656e-05
8.37888e-05
-4.23932e-05
-0.000102363
3.27519e-05
-0.000208643
0.000112425
-0.000186839
0.000181504
-2.49192e-05
0.000236407
0.000256914
0.000280626
0.0006169
0.000318061
0.00100686
0.000345452
0.00138279
0.000356666
0.00171635
0.0003441
0.00200448
0.000301761
0.00226705
0.000226929
0.00253159
0.000123376
0.00282557
-7.38387e-07
0.00316234
-0.000129454
0.00354189
-0.000246148
0.00394712
-0.000336313
0.00436912
-0.000392706
0.00478914
-0.000414232
0.00518043
-0.000403761
0.00551155
-0.000365048
0.00575186
-0.000303316
0.0058761
-0.000226187
0.00586699
-0.000145925
0.00571679
-7.88486e-05
0.00542668
-3.58881e-05
0.00500666
-1.23675e-05
0.0044752
1.32791e-05
0.0038582
6.2628e-05
0.0031877
0.000137375
0.00249283
0.00022714
0.00181112
0.000303609
0.00117856
0.000354356
0.00062336
0.000377501
0.00016591
0.000378246
-0.000186798
0.000365484
-0.00043892
0.000348041
-0.000602367
0.000332079
-0.000692883
0.000320428
-0.000726764
0.000313176
-0.000718829
0.000308887
-0.000681467
0.000305704
-0.000624403
0.000302039
-0.000554872
0.000296849
-0.000478044
0.000289659
-0.000397583
0.000280477
-0.000316216
0.000269666
-0.0002362
0.000257786
-0.0001596
0.000245368
-8.83217e-05
0.000232609
-2.3925e-05
0.000219017
3.27255e-05
0.000203132
8.18259e-05
0.000182461
0.000124838
0.00015372
0.000164408
0.000113321
0.000203394
5.85457e-05
0.000245687
-1.40461e-05
0.000296275
-0.000107225
0.000357139
-0.000218957
0.00043016
-0.000349571
0.000516198
-0.000497261
0.000614896
-0.000659023
0.000724506
-0.000830557
0.000841717
-0.00100621
0.000961613
-0.00117916
0.00107792
-0.00134192
0.00118371
-0.00148737
0.00127244
-0.00160994
0.00133934
-0.00170669
0.00138235
-0.00177765
0.0014025
-0.00182516
0.00140335
-0.00185239
0.00138979
-0.00186177
0.00136677
-0.00185429
-0.00183087
0.00133724
0.000476369
-0.000439931
0.00110974
-0.000615421
0.00144094
-0.000373558
0.00139342
-3.40302e-05
0.00105203
0.000254427
0.00059235
0.000417286
0.000238119
0.000386982
0.000174633
0.000175912
0.000463825
-0.000107688
0.00103536
-0.000335125
0.00176539
-0.000449405
0.00254549
-0.000462037
0.00328962
-0.000398679
0.00392831
-0.000282033
0.00441135
-0.000138934
0.00471605
-2.94363e-06
0.00484802
9.49655e-05
0.0048328
0.000138597
0.00470291
0.000129152
0.00449169
8.1766e-05
0.0042258
1.97373e-05
0.00392316
-3.36739e-05
0.00359292
-6.2463e-05
0.00325624
-7.75499e-05
0.0029295
-7.70224e-05
0.00262972
-6.52662e-05
0.00237418
-4.7777e-05
0.00217652
-2.85301e-05
0.00204202
-1.14198e-05
0.00196219
9.74016e-07
0.00191774
8.5647e-06
0.00188124
2.41292e-05
0.00182891
6.56119e-05
0.00176784
0.000123692
0.00170564
0.000199575
0.00164817
0.000284615
0.00160108
0.000350696
0.00155601
0.000399427
0.00150331
0.000430205
0.00143664
0.000444919
0.00135441
0.000447714
0.00125923
0.000443217
0.0011564
0.000434905
0.00105251
0.00042432
0.00095408
0.000411606
0.00086655
0.000396416
0.000793692
0.000378562
0.000737402
0.000358329
0.000697732
0.000336518
0.00067306
0.00031433
0.000660364
0.000293173
0.000655626
0.000274405
0.000654389
0.000259022
0.000652476
0.00024728
0.00064676
0.000238324
0.000635814
0.000229963
0.00062022
0.000218726
0.000602424
0.000200257
0.000586173
0.00016997
0.000575719
0.000123774
0.000575512
5.87525e-05
0.000588717
-2.72503e-05
0.000616206
-0.000134714
0.000659665
-0.000262416
0.000718741
-0.000408647
0.000791884
-0.000570404
0.000876236
-0.000743375
0.000967465
-0.000921787
0.0010597
-0.00109844
0.00114573
-0.00126519
0.00121777
-0.00141396
0.00126866
-0.00153827
0.00129341
-0.00163469
0.00129046
-0.00170375
0.00126222
-0.00174941
0.00121436
-0.0017773
0.00115431
-0.00179234
0.00108949
-0.00179695
0.0010262
-0.001791
-0.0017742
0.000969532
-0.000606567
0.000166636
-0.00147056
0.000248574
-0.00220026
0.000356138
-0.00282807
0.000593783
-0.00339429
0.000820649
-0.00387057
0.000893567
-0.00421022
0.000726625
-0.00437942
0.000345116
-0.00436774
-0.000119369
-0.00418469
-0.000518179
-0.00385422
-0.000779872
-0.00340875
-0.000907502
-0.00288599
-0.000921443
-0.00232537
-0.000842657
-0.00176629
-0.000698014
-0.00125045
-0.000518784
-0.000811231
-0.00034425
-0.000465052
-0.000207582
-0.000228601
-0.000107299
-0.000100772
-4.60629e-05
-6.44459e-05
-1.65886e-05
-7.38677e-05
-2.42519e-05
-0.000105556
-3.07745e-05
-0.000158183
-2.49229e-05
-0.000229186
-6.0189e-06
-0.000310115
1.56625e-05
-0.000387057
2.91649e-05
-0.000443544
2.79575e-05
-0.000465053
1.00895e-05
-0.000441718
-2.23609e-05
-0.00036984
-6.33133e-05
-0.000246682
-9.90291e-05
-7.24891e-05
-0.000108581
0.000125968
-7.47654e-05
0.000322986
2.55769e-06
0.000503668
0.000103934
0.000650292
0.000204071
0.000760861
0.000288858
0.000846398
0.000344667
0.000916366
0.000374951
0.000977781
0.000386299
0.00103419
0.000386812
0.00108229
0.000386797
0.00112282
0.0003838
0.00115657
0.000377852
0.00118386
0.000369124
0.00120444
0.000357983
0.00121751
0.000345264
0.00122178
0.000332246
0.00121567
0.000320442
0.00119758
0.000311262
0.00116639
0.000305595
0.00112202
0.000303387
0.00106599
0.000303316
0.00100162
0.000302695
0.000933891
0.000297689
0.000868781
0.000283836
0.000812304
0.000256734
0.000769593
0.000212682
0.000744264
0.000149103
0.000738314
6.47025e-05
0.000751847
-4.07829e-05
0.000783556
-0.000166424
0.000831586
-0.000310446
0.00089301
-0.00047007
0.000963934
-0.000641327
0.00103934
-0.000818778
0.00111294
-0.000995395
0.0011774
-0.0011629
0.00122498
-0.00131277
0.00124884
-0.00143782
0.00124459
-0.00153402
0.00121164
-0.00160174
0.00115357
-0.00164568
0.00107741
-0.00167325
0.000991805
-0.00169169
0.000905077
-0.00170561
0.000824072
-0.00171595
0.000754264
-0.00172119
-0.00172051
0.000700575
-0.000117519
0.000284155
-0.000372694
0.000503748
-0.000549875
0.000533319
-0.000497276
0.000541183
-0.000234164
0.000557537
0.000116827
0.000542575
0.000371656
0.000471796
0.000376291
0.000340481
9.49193e-05
0.000162003
-0.000388674
-3.45859e-05
-0.000949048
-0.000219498
-0.00147981
-0.000376736
-0.00189786
-0.000503394
-0.0021364
-0.000604121
-0.00214808
-0.000686329
-0.00190871
-0.000758159
-0.00142799
-0.000824965
-0.000744187
-0.000891388
0.000111513
-0.000962999
0.00108197
-0.00101652
0.00213861
-0.00107323
0.00322795
-0.00111359
0.00431369
-0.00111652
0.00535023
-0.00106146
0.00627707
-0.000932861
0.00704259
-0.000749861
0.00760855
-0.000536793
0.00795522
-0.000318711
0.00807706
-0.000111757
0.00797773
7.69743e-05
0.00766779
0.000246627
0.0071679
0.000400855
0.00651473
0.000544587
0.0057606
0.000679364
0.00496426
0.000798905
0.0041809
0.000887293
0.00345621
0.000928763
0.00282688
0.000918181
0.00231326
0.000858293
0.00192463
0.000763581
0.00165356
0.000657372
0.00148277
0.000557598
0.0013932
0.000476366
0.0013657
0.000411295
0.00137247
0.000371082
0.00138991
0.000351693
0.00140221
0.000345682
0.00139956
0.000347912
0.00137687
0.00035493
0.00133283
0.000364481
0.00126919
0.000374906
0.00119019
0.000384592
0.001102
0.000391582
0.00101189
0.000393422
0.000927354
0.000387233
0.00085508
0.000369963
0.000800184
0.000338731
0.000765771
0.000291146
0.000752922
0.000225531
0.000761066
0.000140959
0.000788877
3.68911e-05
0.000832289
-8.41954e-05
0.000888725
-0.00022286
0.000954499
-0.000376219
0.00102538
-0.000540953
0.00109639
-0.000712336
0.00116164
-0.000884033
0.00121455
-0.0010483
0.00124846
-0.00119682
0.00125793
-0.00132224
0.00124015
-0.00142004
0.00119606
-0.00148993
0.00113051
-0.00153619
0.00105114
-0.00156631
0.000966361
-0.00158846
0.000883435
-0.00160877
0.000807583
-0.00162976
0.000742367
-0.00165073
0.000690743
-0.00166957
-0.00168473
0.00065496
0.000518388
-0.000234233
0.00126633
-0.000244193
0.00204748
-0.000247831
0.00293975
-0.000351082
0.00394096
-0.000443682
0.0049842
-0.000500657
0.0059446
-0.000488604
0.00666358
-0.000378504
0.00702522
-0.000199633
0.00703417
-4.35389e-05
0.00679816
1.65176e-05
0.00643473
-1.33111e-05
0.00602394
-9.2599e-05
0.00560576
-0.000185943
0.00519897
-0.000279538
0.00481431
-0.000373504
0.00444977
-0.000460426
0.00411296
-0.000554572
0.00380758
-0.000657623
0.00355926
-0.000768201
0.00336494
-0.000878901
0.0032199
-0.000968556
0.0031088
-0.00100542
0.00300997
-0.000962618
0.00291434
-0.000837232
0.00282353
-0.000659054
0.00275285
-0.000466117
0.00270187
-0.000267729
0.00266539
-7.5269e-05
0.0026423
0.000100064
0.00262907
0.000259853
0.00261628
0.000413646
0.00259367
0.000567202
0.00259899
0.000674037
0.00265964
0.000738255
0.00278008
0.000766858
0.00293752
0.000771317
0.00309355
0.000762153
0.00320571
0.000746136
0.00324236
0.000726927
0.00319314
0.000706595
0.00306399
0.000686744
0.00287258
0.000667781
0.00263398
0.000649895
0.00237211
0.000632954
0.00210721
0.000616588
0.00185236
0.000600536
0.00161548
0.000584794
0.00140101
0.000569395
0.00121136
0.000554132
0.00104792
0.000538348
0.000911671
0.00052084
0.000803369
0.000499884
0.00072343
0.000473361
0.000671698
0.000438965
0.000647231
0.000394431
0.000648201
0.000337762
0.000671948
0.000267399
0.000715145
0.000182335
0.000774055
8.20492e-05
0.000844095
-3.3149e-05
0.000922554
-0.000162654
0.00100466
-0.000304968
0.00108607
-0.000457631
0.00116205
-0.000616932
0.00122742
-0.000777701
0.00127676
-0.000933377
0.00130509
-0.00107663
0.00130892
-0.00120064
0.00128749
-0.00130082
0.00124363
-0.00137617
0.00118347
-0.00142978
0.00111505
-0.00146777
0.00104606
-0.00149732
0.000981976
-0.00152438
0.000925428
-0.00155222
0.000876975
-0.00158131
0.000836584
-0.00161034
0.000804611
-0.0016376
-0.00166135
0.000781229
-0.000544497
0.000310264
-0.00108037
0.000291681
-0.00139057
6.23665e-05
-0.00168833
-5.3325e-05
-0.00208869
-4.33134e-05
-0.00263028
4.09295e-05
-0.00329262
0.000173735
-0.00402267
0.000351542
-0.00472807
0.00050577
-0.00531371
0.000542099
-0.00573372
0.000436533
-0.00599678
0.000249744
-0.00614222
5.28416e-05
-0.00620195
-0.000126209
-0.00620454
-0.000276952
-0.00617066
-0.000407383
-0.00610301
-0.000528078
-0.00601103
-0.000646543
-0.00590048
-0.000768179
-0.0057751
-0.000893578
-0.0056397
-0.0010143
-0.0054982
-0.00111006
-0.00535159
-0.00115204
-0.00519928
-0.00111492
-0.00504712
-0.000989397
-0.0049232
-0.000782978
-0.0048533
-0.000536014
-0.00482683
-0.000294203
-0.00481477
-8.73212e-05
-0.00478533
7.06226e-05
-0.00469143
0.000165947
-0.0045136
0.000235817
-0.0042369
0.000290503
-0.00389368
0.00033082
-0.00351425
0.000358827
-0.00312513
0.000377732
-0.00274475
0.000390937
-0.00238364
0.000401042
-0.00204673
0.000409229
-0.00173622
0.000416419
-0.00145276
0.000423135
-0.00119647
0.000430448
-0.000967303
0.000438618
-0.000764693
0.000447285
-0.000587535
0.000455796
-0.00043437
0.000463423
-0.000303287
0.000469453
-0.000191672
0.000473179
-9.61206e-05
0.000473843
-1.25599e-05
0.000470571
6.34508e-05
0.000462337
0.000136317
0.000447974
0.000209996
0.000426205
0.000287638
0.000395719
0.000371349
0.000355253
0.000462094
0.000303686
0.000559731
0.000240125
0.000663192
0.000163939
0.000770707
7.48197e-05
0.000879223
-2.64668e-05
0.00098619
-0.000140116
0.00108837
-0.000264831
0.00118222
-0.00039882
0.00126396
-0.000539368
0.00132963
-0.00068261
0.00137544
-0.000823506
0.00139829
-0.000956225
0.00139674
-0.00107508
0.00137199
-0.0011759
0.00132841
-0.00125724
0.0012731
-0.00132086
0.00121424
-0.00137092
0.00115893
-0.00141247
0.00111143
-0.00144981
0.00107257
-0.00148552
0.00104071
-0.00152036
0.00101329
-0.00155389
0.000988276
-0.00158532
0.000964707
-0.00161403
-0.00163912
0.000942477
0.00066314
-0.000352876
0.00171319
-0.000758366
0.00265034
-0.000874788
0.00337134
-0.000774322
0.00389257
-0.00056454
0.00425537
-0.000321878
0.0045267
-9.75939e-05
0.0048099
6.83395e-05
0.00518311
0.000132564
0.00563321
9.19946e-05
0.00607274
-2.99022e-06
0.00642945
-0.000106965
0.00666818
-0.000185889
0.00676894
-0.000226975
0.00672697
-0.000234981
0.0065348
-0.000215216
0.00617867
-0.000171943
0.00564979
-0.000117661
0.0049617
-8.00873e-05
0.00416045
-9.23293e-05
0.00331636
-0.000170212
0.0025034
-0.000297098
0.00178011
-0.000428748
0.00117759
-0.000512402
0.000696041
-0.000507847
0.00031427
-0.000401206
-1.00347e-05
-0.00021171
-0.00031446
1.02227e-05
-0.000620316
0.000218535
-0.000931608
0.000381915
-0.00125685
0.000491189
-0.00157242
0.000551393
-0.0018544
0.000572477
-0.00208812
0.000564541
-0.00226527
0.000535977
-0.00238082
0.000493287
-0.00243177
0.000441881
-0.00241738
0.000386652
-0.00234068
0.000332533
-0.00220894
0.000284671
-0.00203365
0.00024785
-0.00182857
0.000225366
-0.00160796
0.000218014
-0.00138473
0.000224052
-0.00116867
0.000239733
-0.00096564
0.000260395
-0.000777856
0.000281669
-0.000604777
0.0003001
-0.000444192
0.000313259
-0.000293125
0.000319504
-0.000148497
0.00031771
-7.57916e-06
0.000307056
0.000131728
0.000286898
0.00027073
0.000256718
0.000409877
0.000216106
0.000548824
0.00016474
0.000686636
0.000102312
0.000821301
2.92742e-05
0.000950667
-5.45457e-05
0.00107258
-0.000148377
0.00118394
-0.000251484
0.00128173
-0.00036262
0.00136286
-0.000479943
0.00142436
-0.000600868
0.00146373
-0.000721985
0.00147944
-0.000839213
0.00147159
-0.000948378
0.00144267
-0.00104616
0.00139782
-0.00113104
0.00134424
-0.00120366
0.00128964
-0.00126626
0.00124029
-0.00132157
0.00119959
-0.00137176
0.0011677
-0.00141793
0.00114243
-0.00146025
0.00112056
-0.00149849
0.00109918
-0.00153251
0.00107641
-0.00156255
0.00105156
-0.00158917
-0.00161264
0.00102508
-0.000290944
-6.19325e-05
-0.000858682
-0.000190628
-0.00154477
-0.000188696
-0.00216419
-0.000154906
-0.00256992
-0.000158812
-0.00278554
-0.000106253
-0.00293863
5.54913e-05
-0.00316235
0.000292064
-0.00352659
0.000496803
-0.00402455
0.000589956
-0.00456737
0.000539826
-0.00504582
0.000371489
-0.00536787
0.000136161
-0.00548157
-0.000113279
-0.00538537
-0.00033118
-0.00512091
-0.000479681
-0.0047518
-0.000541048
-0.0043479
-0.000521564
-0.00397474
-0.000453251
-0.00368575
-0.000381312
-0.00351262
-0.000343347
-0.00345708
-0.000352634
-0.0034943
-0.000391534
-0.00357311
-0.000433585
-0.00362428
-0.00045668
-0.00357816
-0.000447325
-0.00338767
-0.000402202
-0.00305058
-0.000326864
-0.00260553
-0.000226515
-0.00211257
-0.000111049
-0.00162146
7.652e-08
-0.00116977
9.97071e-05
-0.000780351
0.000183055
-0.000463608
0.000247798
-0.00022133
0.0002937
-4.98986e-05
0.000321855
5.78366e-05
0.000334146
0.000111405
0.000333084
0.000122058
0.00032188
0.000102249
0.000304481
6.48827e-05
0.000285216
2.22269e-05
0.000268022
-1.5326e-05
0.000255567
-4.00581e-05
0.000248784
-4.72964e-05
0.000246971
-3.52024e-05
0.000248302
-3.96501e-06
0.000250431