/*--------------------------------*- C++ -*----------------------------------*\
| =========                 |                                                 |
| \\      /  F ield         | OpenFOAM: The Open Source CFD Toolbox           |
|  \\    /   O peration     | Version:  2012                                  |
|   \\  /    A nd           | Website:  www.openfoam.com                      |
|    \\/     M anipulation  |                                                 |
\*---------------------------------------------------------------------------*/
FoamFile
{
    version     2.0;
    format      ascii;
    class       volScalarField;
    location    "0.72";
    object      p;
}
// * * * * * * * * * * * * * * * * * * * * * * * * * * * * * * * * * * * * * //

dimensions      [0 2 -2 0 0 0 0];


internalField   nonuniform List<scalar> 
42400
(
247.667
325.647
482.234
733.514
1088.98
1503.06
1938.35
2362.61
2751.81
3091.87
3376.27
3602.94
3771.01
3876.47
3911.84
3873.26
3768.23
3619.57
3464.64
3338.42
3247.52
3169.77
3080.58
2965.41
2820.27
2643.18
2429.31
2179.8
1910.95
1646.18
1403.69
1192.5
1014.44
867.135
746.167
646.532
563.509
493.082
432.116
378.337
330.181
286.629
247.039
211.014
178.312
148.782
122.325
98.8674
78.3395
60.6677
45.709
33.0108
22.5454
13.8488
6.55796
0.099291
-5.85879
-11.5197
-17.0198
-22.4081
-27.6308
-32.5561
-36.7826
-40.3702
-43.0907
-44.6889
-45.033
-44.1203
-42.0636
-39.0724
-35.4314
-31.4705
-27.5273
-23.9061
-20.8393
-18.4601
-16.7972
-15.803
-15.379
-15.4615
4701.21
4421.48
4107.9
3781.49
3379.91
2898.58
2314.98
1653.48
982.909
371.042
-150.295
-581.337
-930.013
-1200.19
-1394.27
-1517.05
-1576.18
-1579.54
-1534.14
-1452.99
-1362.1
-1289.12
-1243.17
-1209.59
-1170.41
-1113.78
-1036.4
-943.754
-843.528
-743.917
-650.706
-565.768
-488.406
-417.463
-352.389
-293.225
-240.282
-193.876
-154.179
-121.131
-94.4171
-73.4903
-57.6372
-46.0609
-37.9598
-32.5833
-29.2618
-27.4161
-26.5585
-26.2918
-26.311
-26.4044
-26.4346
-26.3651
-26.4023
-26.4723
-26.6587
-27.0673
-27.7539
-28.7257
-29.9501
-31.3531
-33.0375
-34.5627
-35.7363
-36.4789
-36.7328
-36.4707
-35.7075
-34.5052
-32.9625
-31.2007
-29.3538
-27.5581
-25.9382
-24.5918
-23.5781
-22.9166
-22.6027
-22.5141
-16635.6
-15776.2
-14707.4
-13638.8
-12573.7
-11632.9
-10811.7
-10079.1
-9396.89
-8738.97
-8103.61
-7501.11
-6939.45
-6419.27
-5935.45
-5478.21
-5036.03
-4597.66
-4156.45
-3721.79
-3315.39
-2948.86
-2619.66
-2323.44
-2055.28
-1810.17
-1592.31
-1409.59
-1262.95
-1142.97
-1038.22
-941.752
-851.025
-765.407
-684.584
-608.315
-536.568
-469.634
-408.101
-352.662
-303.835
-261.734
-226.003
-195.934
-170.676
-149.411
-131.447
-116.233
-103.33
-92.3791
-83.0808
-75.178
-68.4547
-62.735
-57.8819
-53.7821
-50.3523
-47.5289
-45.2569
-43.4816
-42.1465
-41.1905
-40.5444
-40.1158
-39.8247
-39.6036
-39.3902
-39.1285
-38.7737
-38.2955
-37.6783
-36.9211
-36.0375
-35.0561
-34.0209
-32.9883
-32.0192
-31.1692
-30.4867
-29.913
1017.07
911.162
706.824
384.618
-39.4793
-487.502
-906.844
-1277.3
-1601.26
-1884.21
-2124.1
-2315.84
-2457.6
-2551.11
-2597.97
-2595.8
-2538.01
-2420.24
-2254.43
-2078.69
-1932.28
-1816.47
-1707.83
-1596.24
-1487.94
-1387.97
-1291.96
-1193.72
-1092.26
-992.096
-899.073
-817.793
-749.966
-694.519
-648.592
-608.587
-570.892
-532.415
-491.166
-446.67
-399.981
-353.171
-308.514
-267.759
-231.825
-200.897
-174.699
-152.739
-134.468
-119.35
-106.893
-96.6551
-88.2558
-81.3698
-75.7242
-71.0931
-67.2894
-64.1598
-61.5781
-59.4404
-57.6595
-56.1616
-54.883
-53.7671
-52.7612
-51.8189
-50.9015
-49.9787
-49.0287
-48.0381
-47.001
-45.9167
-44.7872
-43.6172
-42.4169
-41.2071
-40.0196
-38.8934
-37.8681
-36.9215
5006.19
4986.63
4993.82
5021.48
5039.73
5019.48
4941.29
4803.76
4617.51
4396.34
4152.44
3894.3
3626.44
3351.23
3073.13
2802.67
2552.95
2331.7
2135.86
1945.14
1734.26
1497.41
1250.48
1012.75
797.323
611.49
457.606
335.313
240.298
166.999
108.977
61.0159
20.0145
-15.3927
-45.4344
-69.8164
-88.2515
-100.77
-107.942
-110.827
-110.944
-109.616
-107.794
-105.943
-104.141
-102.302
-100.343
-98.2442
-96.0403
-93.7863
-91.5343
-89.3243
-87.1835
-85.129
-83.1692
-81.3043
-79.5271
-77.8235
-76.1749
-74.5613
-72.9638
-71.3668
-69.7592
-68.1352
-66.494
-64.8401
-63.1824
-61.5318
-59.8981
-58.287
-56.6981
-55.1256
-53.5618
-52.0016
-50.4465
-48.907
-47.4019
-45.9553
-44.5932
-43.3055
2502.31
2435.63
2380.15
2363.65
2372.52
2434.49
2559.3
2743.13
2959.82
3164.21
3311.25
3376.17
3355.31
3253.19
3079.23
2855.18
2616.63
2404.49
2244.96
2124.05
1991.53
1808.18
1573.75
1309.34
1035.8
768.118
516.548
288.292
90.5231
-71.5506
-194.181
-275.663
-317.068
-322.335
-297.836
-251.698
-193.127
-131.559
-75.4526
-30.9675
-1.16186
13.9704
16.6878
10.3436
-1.55123
-16.1236
-31.2632
-45.5928
-58.3118
-69.0281
-77.6337
-84.2097
-88.952
-92.1151
-93.968
-94.7646
-94.7272
-94.0401
-92.8511
-91.2767
-89.4092
-87.3228
-85.0785
-82.7281
-80.3161
-77.8819
-75.4593
-73.0755
-70.7499
-68.4923
-66.3045
-64.1819
-62.1166
-60.1012
-58.1318
-56.2106
-54.3463
-52.5538
-50.8494
-49.2354
3720.13
3586.08
3406.02
3160.09
2842.44
2473.79
2071.02
1646.76
1214.06
788.111
381.833
6.94227
-321.047
-579.195
-744.901
-809.354
-785.447
-706.754
-611.023
-521.281
-442.99
-374.076
-312.915
-259.841
-213.992
-171.371
-127.573
-80.361
-30.0744
20.9414
69.7412
113.848
151.682
182.221
204.332
216.397
216.686
204.147
179.287
144.62
104.373
63.4006
25.6888
-6.54001
-32.7963
-53.7388
-70.4604
-83.962
-94.9347
-103.77
-110.67
-115.764
-119.185
-121.097
-121.698
-121.199
-119.812
-117.731
-115.128
-112.148
-108.909
-105.506
-102.012
-98.4845
-94.968
-91.5001
-88.1118
-84.8277
-81.6646
-78.6302
-75.7242
-72.9401
-70.269
-67.7023
-65.2349
-62.8665
-60.6015
-58.4477
-56.4119
-54.5009
-7599.99
-7245.02
-6752.35
-6140.51
-5386.92
-4573.64
-3747.91
-2935.97
-2144.62
-1376.4
-641.965
36.9349
637.379
1148.66
1573.01
1911.73
2159.44
2310.33
2355.54
2280.09
2080.15
1788.03
1459.59
1141.55
861.989
636.066
465.866
340.912
243.263
156.753
73.7905
-5.69878
-78.4868
-141.396
-193.098
-233.945
-265.216
-288.335
-304.55
-314.894
-319.993
-319.796
-314.394
-304.596
-291.715
-277.231
-262.493
-248.527
-235.894
-224.712
-214.792
-205.798
-197.382
-189.258
-181.246
-173.264
-165.316
-157.459
-149.782
-142.372
-135.3
-128.607
-122.308
-116.396
-110.857
-105.673
-100.827
-96.3012
-92.0741
-88.1207
-84.4132
-80.9243
-77.6301
-74.5118
-71.5572
-68.7595
-66.1159
-63.6254
-61.2845
-59.1024
6188.57
6089.9
6032.65
6006.05
5898.45
5670.81
5350.99
4997.62
4645.04
4307.53
3983.82
3646.21
3257.49
2814.79
2361.07
1945.04
1581.36
1242.87
879.352
455.886
-5.18444
-428.936
-762.248
-1015.17
-1209.12
-1338.84
-1383.1
-1333.39
-1213.38
-1065.42
-924.617
-809.406
-725.782
-672.232
-642.553
-627.745
-618.726
-608.203
-591.441
-566.319
-533.068
-493.706
-451.553
-410.421
-373.363
-342.213
-317.475
-298.557
-284.198
-272.912
-263.319
-254.327
-245.192
-235.5
-225.108
-214.086
-202.644
-191.075
-179.688
-168.754
-158.464
-148.921
-140.147
-132.11
-124.754
-118.017
-111.838
-106.161
-100.933
-96.1054
-91.6336
-87.4785
-83.6072
-79.9933
-76.6157
-73.4578
-70.5064
-67.7494
-65.1736
-62.7899
3882.29
3682.52
3391.02
2954.08
2330.63
1638.57
960.287
311.801
-345.72
-1047.23
-1782.26
-2502.98
-3080.11
-3349.15
-3281.01
-3003.08
-2651.8
-2295.96
-1935.3
-1522.07
-1033.7
-560.909
-266.148
-208.698
-309.25
-464.962
-608.405
-706.218
-754.219
-762.619
-743.356
-706.977
-662.734
-618.524
-579.985
-549.708
-527.462
-511.178
-498.2
-486.127
-473.251
-458.702
-442.367
-424.725
-406.506
-388.416
-370.976
-354.455
-338.887
-324.132
-309.948
-296.062
-282.227
-268.274
-254.136
-239.859
-225.594
-211.556
-197.987
-185.1
-173.049
-161.911
-151.697
-142.37
-133.87
-126.126
-119.07
-112.634
-106.751
-101.361
-96.4076
-91.8414
-87.6204
-83.7097
-80.0805
-76.7089
-73.5751
-70.6606
-67.948
-65.4508
-11535.3
-11195.3
-10854.2
-10558.6
-10273.1
-9876.75
-9255.6
-8333.37
-6991.82
-5138.74
-3116.97
-1644.82
-997.532
-873.236
-1024.6
-1391.5
-1896.56
-2429.35
-2901.55
-3296.94
-3660.5
-4004.5
-4242.01
-4262.62
-4037.25
-3628.92
-3143.62
-2679.75
-2286.67
-1967.84
-1710.63
-1502.76
-1334.92
-1199.28
-1088.63
-996.485
-917.537
-847.882
-784.913
-727.038
-673.393
-623.594
-577.533
-535.206
-496.582
-461.534
-429.824
-401.132
-375.107
-351.397
-329.672
-309.631
-291.003
-273.55
-257.081
-241.459
-226.609
-212.51
-199.183
-186.659
-174.969
-164.121
-154.101
-144.876
-136.4
-128.623
-121.491
-114.948
-108.943
-103.424
-98.3452
-93.6642
-89.3435
-85.3505
-81.6565
-78.2367
-75.069
-72.1323
-69.4089
-66.9077
6657.15
6461.65
6187.78
5810.61
5253.58
4626.24
3983.66
3360.47
2770.4
2232.19
1761.57
1326.83
884.91
424.854
-49.0598
-520.684
-957.333
-1331.37
-1641.21
-1903.83
-2140.34
-2352.05
-2495.88
-2521.06
-2445.4
-2327.28
-2194.79
-2045.56
-1880.91
-1708.3
-1534.87
-1368.71
-1219.18
-1092.2
-987.083
-898.774
-821.821
-752.654
-689.692
-632.479
-580.898
-534.778
-493.795
-457.503
-425.391
-396.922
-371.576
-348.871
-328.38
-309.74
-292.646
-276.834
-262.084
-248.208
-235.056
-222.515
-210.512
-199.012
-188.005
-177.504
-167.53
-158.102
-149.233
-140.929
-133.183
-125.981
-119.302
-113.121
-107.408
-102.131
-97.2589
-92.7605
-88.6064
-84.7687
-81.2222
-77.9434
-74.911
-72.1041
-69.5062
-67.1174
-1723.87
-1601.72
-1417.77
-1217.8
-1051.08
-939.131
-842.576
-718.617
-550.288
-343.667
-106.608
153.592
420.985
674.002
892.775
1059.86
1158.3
1171.33
1084.91
893.083
600.831
226.305
-181.943
-530.457
-729.783
-784.725
-783.839
-802.209
-850.651
-902.092
-922.221
-894.418
-830.881
-756.571
-686.924
-624.53
-567.656
-515.521
-468.596
-427.597
-392.849
-364.138
-340.822
-322.002
-306.692
-293.933
-282.88
-272.853
-263.35
-254.045
-244.753
-235.394
-225.959
-216.482
-207.018
-197.627
-188.372
-179.31
-170.492
-161.962
-153.757
-145.91
-138.443
-131.376
-124.717
-118.468
-112.627
-107.183
-102.123
-97.4295
-93.0817
-89.0586
-85.3383
-81.8992
-78.7203
-75.7817
-73.0645
-70.5499
-68.2235
-66.0782
-13124.1
-12890.7
-12640.3
-12357.5
-11965
-11417.6
-10722.7
-9946.44
-9159.72
-8402.13
-7685.1
-7005.75
-6356.25
-5730.1
-5123.94
-4538.58
-3980.08
-3462.53
-3003.35
-2617.07
-2308.56
-2068.72
-1878.36
-1717.83
-1572.63
-1432.31
-1287.86
-1131.34
-957.159
-764.382
-567.182
-391.362
-263.652
-192.732
-166.611
-165.905
-175.877
-188.87
-201.554
-212.478
-221.025
-227.031
-230.602
-231.993
-231.511
-229.457
-226.091
-221.628
-216.28
-210.193
-203.566
-196.566
-189.341
-182.012
-174.677
-167.41
-160.268
-153.294
-146.521
-139.973
-133.672
-127.63
-121.862
-116.377
-111.18
-106.275
-101.662
-97.337
-93.2948
-89.5258
-86.019
-82.7613
-79.7385
-76.9356
-74.3377
-71.9302
-69.6987
-67.6285
-65.7086
-63.9285
7783.88
7578.4
7222.07
6699.15
6063.41
5419.08
4770.76
4072.17
3297.42
2468.64
1630.32
825.854
92.3451
-536.446
-1031.63
-1372.35
-1554.19
-1593.19
-1527.11
-1404.94
-1268.71
-1142.5
-1031
-928.42
-827.303
-723.298
-615.869
-509.57
-413.767
-341.116
-302.15
-299.576
-322.247
-353.211
-379.377
-394.774
-398.518
-392.158
-378.197
-359.296
-337.815
-315.571
-293.818
-273.32
-254.465
-237.355
-221.896
-207.897
-195.16
-183.539
-172.955
-163.363
-154.712
-146.937
-139.942
-133.623
-127.87
-122.588
-117.692
-113.119
-108.818
-104.754
-100.904
-97.2515
-93.7859
-90.5015
-87.3944
-84.4616
-81.7001
-79.106
-76.6746
-74.3998
-72.2742
-70.2901
-68.4389
-66.712
-65.1006
-63.5956
-62.1908
-60.8754
4703.91
4570.38
4400.84
4275
4182.74
4134.74
4107.85
4090.06
4072.15
4045.66
4003.38
3941.1
3857.24
3747.79
3605.14
3419.2
3181.61
2886.93
2547.98
2190.57
1845.46
1537.68
1276.4
1055.62
862.062
682.015
505.021
324.771
139.386
-46.3727
-222.855
-380.965
-512.681
-612.73
-679.542
-714.186
-719.394
-699.328
-659.072
-604.094
-539.845
-471.398
-403.235
-339.087
-281.805
-233.19
-193.866
-163.37
-140.504
-123.77
-111.716
-103.106
-96.962
-92.5371
-89.2786
-86.7882
-84.7863
-83.0842
-81.5578
-80.1286
-78.7488
-77.3914
-76.0429
-74.6986
-73.3595
-72.0305
-70.718
-69.4296
-68.1722
-66.9522
-65.7741
-64.6414
-63.5557
-62.5176
-61.5266
-60.5815
-59.6804
-58.8207
-58.0019
-57.2164
-8075.71
-7769.51
-7444.42
-7174.25
-6974.02
-6856.44
-6738.49
-6547.32
-6270.11
-5923.12
-5526.04
-5095.81
-4647.66
-4195.17
-3750.24
-3323.53
-2924.71
-2560.18
-2231.77
-1937.28
-1672.19
-1431.76
-1209.45
-1002.58
-810.017
-633.247
-475.727
-341.054
-231.233
-146.06
-83.797
-41.3114
-14.2177
2.16584
11.9545
18.0537
22.2267
25.7748
29.4113
33.4566
37.8196
42.5584
45.9708
46.2061
42.2262
34.2608
23.7079
12.3977
1.79991
-7.31623
-14.8542
-20.9876
-25.9945
-30.1548
-33.6898
-36.7554
-39.4535
-41.8473
-43.9747
-45.8582
-47.5127
-48.9496
-50.18
-51.2162
-52.0724
-52.7643
-53.3088
-53.7232
-54.0246
-54.2289
-54.3505
-54.4022
-54.3949
-54.3376
-54.2382
-54.1031
-53.9376
-53.746
-53.5339
-53.2989
1762.34
1660.22
1640.04
1710.36
1737.96
1593.91
1276.3
902.038
564.453
273.738
14.5595
-215.785
-408.189
-551.578
-644.464
-696.596
-719.071
-717.625
-694.422
-650.273
-584.033
-492.543
-373.657
-231.679
-81.2224
55.7276
159.795
222.799
248.315
246.043
225.995
195.399
159.116
121.673
87.3146
59.3207
39.6821
29.1974
27.8405
34.4225
48.0681
65.1419
82.0309
95.2866
102.59
103.55
99.3703
91.8379
82.3948
71.8421
60.7463
49.5439
38.9835
29.2221
20.2901
12.1826
4.86305
-1.72181
-7.63083
-12.9224
-17.6514
-21.8685
-25.6198
-28.9482
-31.8933
-34.4924
-36.7802
-38.7892
-40.5491
-42.0871
-43.4274
-44.592
-45.5999
-46.4683
-47.212
-47.8445
-48.3774
-48.8213
-49.1871
-49.4789
7045.97
7085.44
7239.97
7420.69
7441.87
7117.66
6615.21
6147.07
5712.82
5262.52
4809.78
4381.97
4015.44
3733.93
3486.2
3179.79
2797.14
2397.99
2028.75
1698.8
1408.1
1158.08
949.726
780.934
644.868
532.007
434.939
351.423
282.878
230.818
194.446
169.872
151.772
135.957
120.343
104.466
89.5028
77.4449
70.1361
69.4037
75.0389
85.8818
99.3959
112.214
121.342
125.157
123.569
118.185
110.298
100.619
90.4729
80.4257
70.3861
60.5532
51.0842
42.0701
33.5637
25.5932
18.1698
11.2929
4.95308
-0.865818
-6.18494
-11.0292
-15.4262
-19.4052
-22.9961
-26.2287
-29.1321
-31.7343
-34.0614
-36.1379
-37.9865
-39.628
-41.0816
-42.3648
-43.4937
-44.483
-45.3473
-46.0958
3568.46
3387.12
3180.55
2951.84
2645.91
2376.88
2191.92
2007.24
1698.04
1236.22
665.429
-24.669
-859.241
-1622.56
-2008.59
-2108.85
-2192.53
-2257.89
-2220.13
-2083.76
-1849.28
-1511.77
-1098.52
-663.775
-266.626
51.9502
278.085
419.504
494.561
523.401
523.031
506.22
481.642
454.117
425.825
397.841
370.353
343.219
316.73
291.54
268.216
247.085
228.208
211.392
196.219
182.226
169.139
156.103
142.972
130.181
117.792
105.832
94.3172
83.2693
72.7161
62.6831
53.1884
44.2417
35.8453
27.995
20.6819
13.8933
7.6131
1.82264
-3.49919
-8.37537
-12.8303
-16.8892
-20.5778
-23.9218
-26.9463
-29.6759
-32.1339
-34.3426
-36.3228
-38.0942
-39.6748
-41.082
-42.3319
-43.4382
12230.6
12074.9
11853.3
11494.2
10985.8
10393.3
9764.45
9134.99
8529.68
7957.85
7415.38
6889.64
6366.71
5835.81
5292.86
4739.6
4181.65
3624.49
3072.75
2532.85
2009.87
1508.28
1035.43
602.285
222.691
-89.2006
-323.137
-479.277
-570.919
-614.402
-623.406
-608.368
-577.54
-537.677
-494.07
-450.513
-409.433
-372.163
-339.239
-310.672
-286.16
-265.219
-247.261
-231.629
-217.614
-204.496
-191.606
-178.4
-164.557
-150.018
-134.947
-119.608
-104.72
-90.8198
-78.2817
-67.3174
-57.947
-49.9564
-43.1915
-37.4573
-32.5293
-28.2373
-24.4543
-21.0964
-18.1111
-15.4614
-13.1222
-11.0723
-9.2905
-7.75421
-6.43963
-5.3229
-4.38148
-3.59486
-2.94527
-2.41756
-1.99931
-1.68093
-1.45415
-1.3014
-11914.8
-11709.2
-11413.6
-10989.1
-10421.1
-9734.66
-8949.92
-8090.97
-7185.18
-6264.15
-5362.13
-4511.47
-3737.95
-3057.4
-2477.43
-1998.59
-1616.06
-1322.28
-1107.69
-963.433
-881.875
-854.565
-868.656
-904.338
-935.406
-935.61
-890.238
-804.944
-698.319
-590.561
-495.06
-416.506
-354.451
-306.456
-269.621
-241.284
-219.307
-202.125
-188.649
-178.11
-169.917
-163.563
-158.558
-154.392
-150.527
-146.421
-141.561
-135.524
-128.049
-119.081
-108.78
-97.521
-85.8149
-74.2001
-63.1523
-53.02
-43.9947
-36.1178
-29.3279
-23.5063
-18.5141
-14.2178
-10.5092
-7.30689
-4.6035
-2.30405
-0.379106
1.19783
2.4574
3.43349
4.16229
4.68059
5.02269
5.21873
5.29425
5.27026
5.16319
4.98379
4.74493
4.45841
-2710.66
-2599.34
-2467.22
-2350.02
-2247.03
-2167.47
-2090.13
-1990.5
-1858.14
-1703.09
-1547.13
-1408.21
-1294.18
-1204.85
-1135.67
-1080.15
-1031.41
-983.047
-929.701
-867.679
-795.666
-714.757
-627.497
-536.596
-444.708
-354.309
-271.314
-202.398
-151.361
-119.253
-102.698
-96.8204
-97.4834
-101.796
-107.837
-114.306
-120.344
-125.437
-129.317
-131.833
-132.852
-132.238
-129.908
-125.903
-120.43
-113.808
-106.368
-98.3535
-89.9126
-81.0606
-71.6564
-62.1709
-52.7666
-43.6296
-34.9763
-26.987
-19.7871
-13.4352
-7.92638
-3.21122
0.785325
4.14684
6.94875
9.25706
11.1738
12.6844
13.8223
14.6189
15.1041
15.3158
15.2972
15.0903
14.7345
14.264
13.7071
13.087
12.4209
11.7181
10.9961
10.2577
12991.9
12862.3
12678.9
12361.6
11862.6
11196.5
10378.4
9446.5
8468.52
7520.39
6656.62
5895.22
5227.62
4634.84
4097.88
3601.78
3137.11
2700.23
2292.39
1917.45
1579.25
1280.3
1020.43
797.586
609.341
452.394
321.881
212.106
118.324
38.2959
-27.8404
-79.5331
-117.299
-142.564
-157.024
-162.459
-160.7
-153.55
-142.621
-129.255
-114.536
-99.2019
-83.8877
-69.2011
-55.6871
-43.7503
-33.5821
-25.1615
-18.2322
-12.2478
-7.10258
-2.21251
2.46208
6.85821
10.9317
14.6395
17.9434
20.8151
23.2424
25.2337
26.8147
28.0203
28.8881
29.4519
29.7395
29.7683
29.5539
29.1167
28.4867
27.6406
26.6585
25.5702
24.4049
23.1895
21.947
20.6957
19.4491
18.2114
17.0029
15.8147
-6140.18
-5403.23
-4352.02
-3170.14
-1913.12
-673.765
518
1567.87
2383.95
2928.03
3213.27
3286.82
3211.35
3050.23
2857.56
2670.99
2509.13
2375.28
2264
2165.31
2066.04
1951.55
1810.3
1639.31
1445.96
1246.79
1058.17
892.48
756.467
651.137
571.01
506.997
450.844
398.05
347.61
300.277
257.318
219.429
186.873
159.445
136.639
117.673
101.795
88.4453
77.3139
68.3286
61.5681
56.9566
54.3052
53.1129
52.816
53.0857
53.6483
54.2904
54.8662
55.269
55.4349
55.3356
54.9711
54.3605
53.5323
52.5164
51.3379
50.0142
48.5557
46.969
45.2609
43.4405
41.5216
39.5758
37.5828
35.5709
33.5647
31.5839
29.6446
27.7593
25.9363
24.1739
22.4936
20.8718
4618.33
4334.42
3899.16
3259.85
2366.51
1371.82
426.597
-379.344
-1041.16
-1593.6
-2060.13
-2440.43
-2716.15
-2860.86
-2859.26
-2733.12
-2540.83
-2335.33
-2129.93
-1908.83
-1649.8
-1338.63
-991.002
-651.733
-362.455
-139.347
26.4749
148.814
236.756
295.698
330.455
346.289
348.504
341.765
329.753
315.337
299.835
284.254
269.103
254.615
240.875
227.883
215.6
203.972
192.951
182.466
172.395
162.779
153.64
144.905
136.676
129.011
122.038
115.69
109.872
104.499
99.4939
94.7943
90.3507
86.1234
82.0803
78.194
74.4407
70.7992
67.2525
63.7876
60.3973
57.0795
53.8378
50.6842
47.624
44.665
41.8145
39.0785
36.4621
33.9685
31.5992
29.346
27.2283
25.2046
-10319.6
-9713.76
-8998.65
-8311.76
-7607.01
-6874.46
-6063.12
-5178.76
-4276.4
-3418.78
-2648.49
-1969.67
-1347.77
-731.065
-107.234
431.308
727.74
719.748
511.028
253.841
25.5318
-158.398
-291.731
-371.305
-397.712
-377.79
-324.281
-251.199
-170.659
-90.8993
-16.5584
50.0669
108
157.012
197.244
228.809
252.468
269.024
279.332
284.274
284.733
281.555
275.525
267.347
257.634
246.901
235.566
223.955
212.31
200.852
189.817
179.326
169.303
159.749
150.67
142.067
133.934
126.264
119.019
112.166
105.678
99.5286
93.6902
88.1387
82.8526
77.8133
73.0061
68.4203
64.0481
59.8826
55.9188
52.1523
48.5793
45.1959
41.9986
38.9834
36.1467
33.4765
30.9868
28.6162
1959.01
1965.3
1998.81
2062.4
2169.06
2386.28
2732.46
3107.65
3360.61
3410.61
3262.61
2954.19
2521.05
1989.07
1393.17
784.288
199.119
-354.151
-811.062
-1038.55
-1013.65
-863.838
-692.012
-520.43
-352.212
-194.309
-52.2307
71.5337
176.4
262.814
331.634
383.998
421.627
445.968
459.6
464.553
462.553
455.063
443.344
428.485
411.436
393.003
373.841
354.451
335.197
316.333
298.032
280.409
263.542
247.482
232.258
217.879
204.333
191.594
179.629
168.402
157.872
147.983
138.705
129.999
121.821
114.129
106.887
100.059
93.6148
87.5279
81.7755
76.3379
71.1983
66.3417
61.755
57.4264
53.3454
49.5023
45.8887
42.4964
39.3194
36.3461
33.584
30.951
9899.81
9519.41
9015.55
8373.06
7552.31
6825.45
6322.21
5939.58
5562.79
5219.25
4966.07
4828.73
4805.21
4847
4885.02
4886.38
4865.94
4845.46
4795.25
4636.78
4332.81
3935.87
3524.82
3142.36
2795.96
2482.33
2198.56
1943.18
1715.06
1513.1
1336.32
1183.91
1053.86
943.607
849.398
768.236
697.787
636.284
582.345
534.841
492.818
455.468
422.096
392.105
364.987
340.32
317.757
297.023
277.894
260.187
243.749
228.451
214.182
200.848
188.369
176.672
165.697
155.388
145.694
136.573
127.982
119.885
112.249
105.041
98.2353
91.8055
85.7297
79.9878
74.5621
69.4364
64.5962
60.0285
55.7218
51.6658
47.8516
44.271
40.9186
37.7877
34.8821
32.1043
6395.98
6501.32
6693.38
6919.73
7122.7
7199.31
7118.75
6906.04
6611.99
6270.11
5892.82
5488.21
5065
4632.57
4203.05
3793.31
3419.74
3096.52
2826.55
2598.53
2392.41
2190.47
1984.8
1775.88
1569.61
1373.72
1194.87
1037.9
905.933
800.111
719.886
661.089
618.772
587.05
560.168
534.125
507.518
480.819
454.934
430.335
407.04
384.914
363.857
343.823
324.784
306.704
289.541
273.247
257.78
243.101
229.176
215.974
203.464
191.617
180.404
169.796
159.762
150.274
141.299
132.81
124.778
117.174
109.972
103.149
96.6809
90.547
84.7283
79.2071
73.9677
68.996
64.2795
59.8073
55.5706
51.5619
47.7758
44.2076
40.8561
37.7228
34.8181
32.0429
-7151.02
-6781.54
-6334.8
-5914.38
-5463.63
-5020.95
-4576.38
-4134.51
-3706.7
-3302.14
-2925.39
-2575.68
-2244.22
-1921.93
-1601.28
-1281.14
-967.442
-669.496
-395.417
-151.522
55.6218
219.727
336.784
406.843
435.586
432.963
410.032
376.787
342.027
312.67
293.802
289.585
299.312
318.111
338.272
352.352
356.723
352.261
341.986
328.699
314.196
299.437
284.935
270.982
257.711
245.142
233.237
221.934
211.172
200.9
191.077
181.673
172.662
164.021
155.733
147.779
140.145
132.819
125.787
119.041
112.569
106.364
100.416
94.7152
89.2524
84.0177
79.0015
74.1938
69.5855
65.1678
60.9333
56.8761
52.9919
49.279
45.7378
42.3705
39.1828
36.1873
33.4104
30.7762
-1628.46
-1713.94
-1833.26
-1955.5
-2058.85
-2112.98
-2118.17
-2084.26
-2016.07
-1913.22
-1777.52
-1616.36
-1439.09
-1253.49
-1068.38
-900.728
-777.034
-720.541
-734.096
-796.999
-876.103
-939.503
-966.781
-952.497
-903.66
-833.28
-754.605
-675.178
-597.578
-521.517
-445.635
-367.596
-287.154
-207.33
-133.277
-68.34
-13.9515
29.9742
64.7795
91.6879
111.93
126.708
137.079
143.936
148.008
149.887
150.048
148.873
146.67
143.68
140.1
136.083
131.755
127.213
122.537
117.788
113.017
108.262
103.553
98.9154
94.3661
89.9186
85.5817
81.3604
77.2566
73.2693
69.3954
65.6304
61.9689
58.4055
54.9357
51.5562
48.266
45.0669
41.9637
38.9647
36.0817
33.3348
30.7573
28.2929
4227.94
4173.69
4106.31
3979.22
3772.25
3482.97
3134.66
2741.63
2299.37
1791.07
1199.54
524.919
-205.107
-943.316
-1637.62
-2239.79
-2710.12
-3019.3
-3151.83
-3113.32
-2934.22
-2663.65
-2354.63
-2048.99
-1771.92
-1532.07
-1327.41
-1151.55
-998.468
-863.288
-740.529
-623.972
-509.865
-399.459
-297.339
-209.136
-137.45
-81.419
-38.8257
-6.7005
17.6426
36.2347
50.525
61.5201
69.9202
76.2322
80.8475
84.08
86.1874
87.3811
87.8328
87.6805
87.0338
85.9794
84.5866
82.9123
81.0049
78.9076
76.6594
74.2962
71.8501
69.3488
66.8151
64.2668
61.7167
59.1727
56.6387
54.1152
51.6003
49.0913
46.5856
44.0821
41.5822
39.0902
36.614
34.165
31.7582
29.4146
27.1702
25.0108
-10757.4
-10080.2
-9245.78
-8386.43
-7472.07
-6550.95
-5587.6
-4547.41
-3413.41
-2206.56
-1000.16
96.4922
993.688
1657.75
2098.9
2346.42
2440.07
2425.64
2344.35
2223.16
2075.61
1909.44
1735.3
1567.96
1419.87
1295.28
1188.08
1087.46
984.509
876.314
765.66
658.144
558.547
469.487
391.794
325.455
270.05
224.593
187.524
157.089
131.967
111.403
94.8236
81.7384
71.691
64.2242
58.8936
55.2808
53.0013
51.7115
51.1138
50.9582
51.0419
51.2073
51.3378
51.3535
51.2056
50.871
50.3477
49.649
48.7977
47.8209
46.7453
45.5947
44.3878
43.1369
41.8476
40.5195
39.1475
37.7245
36.243
34.698
33.089
31.4204
29.7024
27.9498
26.1809
24.4166
22.687
21.0041
10271.1
9928.72
9430
8690.43
7648.63
6416.67
5091.1
3793.44
2680.49
1926.9
1643.41
1768.16
2065.22
2303.78
2422.15
2472.3
2475.85
2403.69
2240.9
2013.68
1763.4
1528.78
1332.73
1181.44
1068.24
979.255
901.422
825.702
748.468
669.311
588.499
506.832
425.977
348.266
276.015
211.337
155.7
109.634
72.8686
44.6903
23.8377
8.81987
-1.3586
-7.53309
-10.4833
-10.9335
-9.53017
-6.82931
-3.2917
0.703692
4.85445
8.92777
12.7505
16.2007
19.1987
21.6963
23.6704
25.1259
26.1014
26.6671
26.9109
26.9218
26.7795
26.5486
26.2759
25.9901
25.7018
25.4067
25.0891
24.726
24.2923
23.7657
23.1307
22.3814
21.5224
20.5677
19.5383
18.459
17.3598
16.2352
3951.74
3867.03
3850.76
3894.21
3943.52
3963.23
3936.58
3851.42
3701.27
3482.7
3193.58
2831.54
2398.74
1913.19
1416.02
957.05
568.317
247.396
-33.4138
-299.265
-554.35
-797.253
-1015.65
-1189.86
-1307.89
-1367.19
-1371.4
-1326.93
-1242.43
-1128.32
-995.653
-856.049
-720.079
-596.047
-488.887
-400.284
-329.384
-273.758
-230.408
-196.474
-169.356
-146.933
-127.77
-110.882
-95.6358
-81.6571
-68.7564
-56.8493
-45.9103
-35.9461
-26.9734
-19.0088
-12.069
-6.17438
-1.34571
2.40975
5.12454
6.89719
7.89978
8.34983
8.45485
8.38161
8.25617
8.17033
8.18996
8.35623
8.68534
9.16815
9.77206
10.4459
11.1271
11.7512
12.2606
12.6121
12.7816
12.7651
12.5756
12.2397
11.7828
11.1909
-15079.7
-14739.9
-14333.4
-13824.5
-13110
-12188.1
-11116.2
-10008.3
-8966.76
-8039.01
-7222.59
-6498.66
-5860.08
-5314.9
-4868.32
-4501.57
-4162.09
-3783.98
-3322.47
-2794.07
-2282.91
-1877.38
-1613.26
-1469.74
-1402.85
-1370.97
-1345.48
-1311.55
-1264.71
-1205.8
-1136.96
-1060.58
-978.669
-893.1
-805.858
-718.945
-634.211
-553.272
-477.47
-407.843
-345.109
-289.561
-241.095
-199.346
-163.802
-133.844
-108.807
-88.0257
-70.8574
-56.6934
-44.9817
-35.2528
-27.1437
-20.409
-14.9169
-10.6192
-7.5071
-5.56506
-4.70455
-4.70868
-5.34842
-6.38497
-7.51864
-8.52568
-9.2047
-9.41244
-9.07614
-8.19321
-6.82506
-5.08397
-3.11453
-1.07472
0.886282
2.64415
4.11155
5.24271
6.03126
6.50271
6.69201
6.62606
-479.801
-622.858
-874.32
-1219.54
-1655.94
-2125.76
-2587.08
-3000.04
-3340
-3600.15
-3784.35
-3897.35
-3940.46
-3912.96
-3817.36
-3665.37
-3478.03
-3278.51
-3082.35
-2890.02
-2689.24
-2471.2
-2238.98
-1998.61
-1752.71
-1505.15
-1263.79
-1037.68
-834.557
-659.727
-515.668
-401.699
-314.959
-251.197
-205.895
-174.738
-153.922
-140.242
-131.128
-124.608
-119.178
-113.8
-107.875
-101.051
-93.2644
-84.6641
-75.5269
-66.1327
-56.6963
-47.3687
-38.311
-29.7941
-22.2325
-16.1103
-11.8181
-9.5395
-9.1879
-10.2798
-12.4368
-15.3433
-18.6851
-22.0227
-25.0038
-27.3489
-28.8463
-29.3499
-28.8104
-27.2544
-24.8006
-21.6422
-18.012
-14.2158
-10.5058
-7.10381
-4.17494
-1.81032
-0.0282067
1.21596
2.01493
2.45546
2567.09
2766.25
3088.79
3517.45
4031.45
4583.72
5136.52
5644.28
6062.69
6359.06
6510.05
6500.78
6332.22
6035.33
5671.9
5304.64
4960.7
4632.43
4305.43
3973.49
3637.41
3302.83
2974.97
2661.75
2368.53
2098.59
1853.4
1632.62
1434.33
1255.73
1093.59
946.026
811.621
689.198
578.311
479.036
391.323
314.919
249.578
194.913
150.34
115.065
88.1773
68.6491
55.3367
46.9997
42.4214
40.4711
40.1321
40.4951
40.734
40.1238
38.1025
34.3064
28.6987
21.543
13.3573
4.52038
-4.52561
-13.3308
-21.4428
-28.6286
-34.7015
-39.4263
-42.6336
-44.2139
-44.1418
-42.4964
-39.4681
-35.3476
-30.5005
-25.3311
-20.2315
-15.5387
-11.4983
-8.24316
-5.79239
-4.06841
-2.92002
-2.15342
9702.12
9596.65
9430.97
9152.54
8759.44
8312.76
7855.5
7417.78
7016.41
6653.05
6312.76
5958.75
5538.56
5027.34
4490.07
4053.31
3759.21
3521.84
3278.79
3065.98
2926.5
2852.69
2806.06
2747.66
2657.78
2535.66
2389.07
2227.46
2059.33
1891.16
1728.49
1574.5
1430.26
1295.63
1170.09
1052.7
942.523
838.939
741.601
650.425
565.486
486.971
415.071
349.953
291.681
240.182
195.217
156.427
123.395
95.7148
72.9769
54.8527
40.3474
28.7167
19.1305
10.7711
3.02367
-4.51282
-12.0189
-19.4786
-26.722
-33.4993
-39.4973
-44.4331
-48.0017
-49.9659
-50.2151
-48.7812
-45.8366
-41.6789
-36.6992
-31.3371
-26.0287
-21.1532
-16.9877
-13.6771
-11.2283
-9.52864
-8.38087
-7.46518
-1.11435
-1.28068
-1.83007
-2.69267
-3.83314
-5.21787
-6.82404
-8.62506
-10.5897
-12.6721
-14.8077
-16.9102
-18.8777
-20.6045
-21.9957
-22.9785
-23.5092
-23.5828
-23.2317
-22.4842
-21.3855
-19.9886
-18.3423
-16.5096
-14.5641
-12.6021
-10.6195
-8.72415
-6.98714
-5.45046
-4.13348
-3.0353
-2.14056
-1.42604
-0.866016
-0.43553
-0.112368
0.12213
0.283088
0.382501
0.429704
0.431891
0.394699
0.32267
0.219484
0.0880792
-0.0691375
-0.24997
-0.45196
-0.671741
-0.904408
-1.14328
-1.38027
-1.60668
-1.81396
-1.9941
-2.13966
-2.24367
-2.29967
-2.30213
-2.24726
-2.13376
-1.96394
-1.74548
-1.48452
-1.18806
-0.865745
-0.527779
-0.184047
0.156643
0.487042
0.801716
1.09709
1.37127
1.62373
1.85494
2.06606
2.2586
2.43427
2.5947
2.74143
2.87586
2.9992
3.11254
3.21673
3.31249
3.40042
3.48105
3.55483
3.62217
3.68343
3.73897
3.78911
3.83422
3.87464
3.91078
3.94306
3.97191
3.99778
4.02116
4.04256
4.06251
4.08149
4.1
4.11851
4.13749
4.1574
4.17862
4.2015
4.22632
4.25326
4.28242
4.31378
4.34717
4.38231
4.41877
4.45597
4.4932
4.52956
4.56406
4.59561
4.62308
4.64536
4.6614
4.67029
4.6714
4.66443
4.64946
4.62708
4.59843
4.56523
4.52929
4.49284
4.45828
4.428
4.40415
4.38849
4.38228
4.38612
4.40001
4.42335
4.45508
4.49387
4.53822
4.58657
4.63732
4.68899
4.74017
4.78967
4.8365
4.87983
4.919
4.95345
4.98272
5.00649
5.02448
5.03647
5.04224
5.04157
5.03429
5.02028
4.99952
4.97208
4.93802
4.89739
4.8502
4.79638
4.73576
4.66813
4.59316
4.51048
4.4197
4.32049
4.21262
4.096
3.9707
3.837
3.69535
3.54643
3.39109
3.23038
3.06553
2.89783
2.72867
2.55946
2.3916
2.2264
2.06498
1.90822
1.75662
1.61017
1.46843
1.33011
1.19361
1.05569
0.914312
0.761071
0.600289
0.399382
0.212034
3.85218
2.71489
1.43761
0.0562904
-1.43462
-3.02926
-4.7286
-6.52432
-8.4026
-10.3369
-12.2855
-14.1881
-15.9684
-17.5421
-18.8284
-19.7606
-20.2932
-20.4043
-20.1285
-19.4863
-18.5188
-17.2751
-15.8072
-14.1658
-12.4043
-10.7551
-9.00093
-7.35346
-5.85556
-4.53693
-3.4118
-2.47775
-1.72083
-1.12106
-0.656459
-0.305838
-0.0503868
0.125666
0.235122
0.288081
0.2923
0.253733
0.177076
0.0660814
-0.0763139
-0.247849
-0.44669
-0.671063
-0.918701
-1.1861