/*--------------------------------*- C++ -*----------------------------------*\
| =========                 |                                                 |
| \\      /  F ield         | OpenFOAM: The Open Source CFD Toolbox           |
|  \\    /   O peration     | Version:  2012                                  |
|   \\  /    A nd           | Website:  www.openfoam.com                      |
|    \\/     M anipulation  |                                                 |
\*---------------------------------------------------------------------------*/
FoamFile
{
    version     2.0;
    format      ascii;
    class       surfaceScalarField;
    location    "0.72";
    object      phi;
}
// * * * * * * * * * * * * * * * * * * * * * * * * * * * * * * * * * * * * * //

dimensions      [0 3 -1 0 0 0 0];
oriented        oriented;


internalField   nonuniform List<scalar> 
84340
(
0.000133322
-0.000152649
1.93267e-05
0.000183703
-0.000355497
0.000305116
0.000254688
-0.000732569
0.000661585
0.000474248
-0.00104148
0.000821923
0.000822023
-0.00106963
0.000721859
0.001279
-0.000896956
0.000439975
0.00182254
-0.000621291
7.77584e-05
0.00242295
-0.000323146
-0.000277267
0.00304898
-4.10437e-05
-0.000584986
0.00368294
0.000208786
-0.000842745
0.00432975
0.00041008
-0.00105689
0.00500374
0.000542193
-0.00121618
0.00570588
0.000589319
-0.00129146
0.00638168
0.000549582
-0.00122538
0.00689982
0.000442582
-0.000960724
0.00712832
0.000300118
-0.000528616
0.00706155
0.000141269
-7.44993e-05
0.00681613
-3.90052e-05
0.000284432
0.00650443
-0.00025479
0.000566489
0.00618946
-0.000503824
0.000818789
0.005924
-0.000745874
0.00101134
0.00574302
-0.000897434
0.00107841
0.00568977
-0.000937819
0.000991063
0.00573107
-0.000834089
0.000792787
0.00578572
-0.00062722
0.000572578
0.00576423
-0.000377658
0.000399149
0.0056065
-0.000132973
0.000290702
0.00529462
8.34213e-05
0.000228456
0.00485269
0.000249749
0.00019218
0.00433363
0.000348322
0.000170742
0.00379835
0.000374666
0.000160612
0.00329723
0.000341508
0.000159611
0.00286395
0.00026885
0.000164428
0.00251467
0.000176471
0.000172809
0.00225174
7.99094e-05
0.000183024
0.00206758
-1.03193e-05
0.000194476
0.00194918
-8.84291e-05
0.000206833
0.00188216
-0.000152474
0.000219488
0.00185338
-0.000202963
0.000231751
0.00185211
-0.000241617
0.000242884
0.00187043
-0.000270413
0.000252095
0.00190294
-0.000291006
0.000258499
0.00194633
-0.000304481
0.000261082
0.00199878
-0.000311353
0.000258908
0.00205939
-0.000311703
0.000251089
0.00212763
-0.00030539
0.000237155
0.00220326
-0.000292177
0.000216548
0.00228584
-0.000271863
0.000189279
0.0023754
-0.000244405
0.000154851
0.0024732
-0.000210008
0.000112204
0.00258044
-0.000169198
6.19566e-05
0.00269023
-0.000124016
1.42226e-05
0.00280442
-7.45065e-05
-3.9678e-05
0.00291977
-2.3169e-05
-9.21824e-05
0.00303742
2.14436e-05
-0.000139094
0.00315244
6.22724e-05
-0.000177291
0.00326176
9.51203e-05
-0.000204443
0.00336357
0.000116933
-0.000218744
0.00345678
0.000125326
-0.000218535
0.00354032
0.000118549
-0.000202086
0.00361189
9.60204e-05
-0.000167588
0.00366548
6.04327e-05
-0.000114027
0.00371024
-4.20354e-06
-4.05566e-05
0.00373906
-8.04105e-05
5.15876e-05
0.00374916
-0.000169386
0.000159288
0.00373847
-0.000268299
0.000278995
0.00370555
-0.000373101
0.000406013
0.00365
-0.000479367
0.00053492
0.00357251
-0.000582516
0.000660003
0.00347485
-0.000677955
0.000775618
0.0033597
-0.000761275
0.000876424
0.00323054
-0.000828498
0.000957665
0.0030914
-0.000876467
0.0010156
0.00294664
-0.00090346
0.00104822
0.0028005
-0.000910054
0.0010562
0.0026567
-0.000899867
0.00104367
0.00251822
-0.00087959
0.00101807
0.00238752
-0.000857972
0.000988669
0.00226667
-0.000843056
0.000963911
-0.00084741
0.000953196
0.00216088
-0.000820284
0.000667635
-0.0023805
0.00120472
-0.00429307
0.00118
-0.00627396
0.000939403
-0.00800792
0.000664326
-0.0093086
0.000403721
-0.0101281
0.000198193
-0.0105245
7.32878e-05
-0.010589
2.34511e-05
-0.0104063
2.60647e-05
-0.0100484
5.22092e-05
-0.00958366
7.74416e-05
-0.00908044
8.60915e-05
-0.0085999
6.9044e-05
-0.00817831
2.09936e-05
-0.00781899
-5.91988e-05
-0.00750838
-0.00016934
-0.00724106
-0.000306325
-0.00702367
-0.000472185
-0.00685948
-0.000668018
-0.00672044
-0.000884908
-0.00652019
-0.00109768
-0.00618264
-0.00127538
-0.00562497
-0.00139176
-0.00482961
-0.00142258
-0.00386251
-0.00134476
-0.0028241
-0.00117138
-0.00183111
-0.000909569
-0.000973086
-0.000608276
-0.000293107
-0.000331657
0.000208386
-0.000126827
0.000558845
-8.95072e-06
0.000795188
3.2506e-05
0.000951473
2.01875e-05
0.00105333
-2.19436e-05
0.00111736
-7.43497e-05
0.00115324
-0.000124314
0.00116672
-0.000165952
0.00116229
-0.000198532
0.00114483
-0.000224159
0.00112005
-0.000245628
0.00109405
-0.000265007
0.00107266
-0.000283091
0.00106079
-0.000299491
0.00106217
-0.000313083
0.0010793
-0.000322517
0.00111375
-0.000326631
0.00116655
-0.000324656
0.0012384
-0.000316263
0.0013299
-0.000301506
0.00144155
-0.000280846
0.00157268
-0.000255144
0.00172374
-0.000225567
0.00189434
-0.000193768
0.00207761
-0.000161833
0.00227165
-0.000131772
0.00247263
-0.00010585
0.00267588
-8.63255e-05
0.00287643
-7.52241e-05
0.00306897
-7.39899e-05
0.00324984
-8.48437e-05
0.00341825
-0.000107976
0.00355809
-0.000144051
0.00366931
-0.000191627
0.00374907
-0.000249148
0.00379546
-0.000314689
0.00380808
-0.000385718
0.00378785
-0.000459142
0.00373677
-0.000531431
0.00365756
-0.00059875
0.00355344
-0.000657156
0.00342793
-0.000702986
0.00328497
-0.00073351
0.00312932
-0.000747805
0.00296682
-0.00074755
0.00280421
-0.000737257
0.00264823
-0.000723612
0.00250442
-0.000714159
0.00237657
-0.000715209
-0.000735557
0.00226472
0.000924681
-0.000257047
0.00235576
-0.000226357
0.0035203
1.54615e-05
0.004284
0.000175704
0.00473769
0.000210632
0.00495735
0.00018406
0.00500523
0.000150319
0.00493496
0.000143558
0.00478258
0.000175824
0.00456805
0.000240597
0.00429908
0.000321178
0.00397588
0.000400647
0.00359346
0.000468504
0.00314169
0.000520819
0.00260634
0.000556347
0.00197505
0.000572091
0.00124405
0.000561654
0.000433178
0.00050455
-0.000407754
0.000368747
-0.00119902
0.000123245
-0.00185763
-0.000226291
-0.00235385
-0.000601461
-0.00273868
-0.000890549
-0.00308558
-0.00104485
-0.00343772
-0.00107044
-0.00375361
-0.00102888
-0.00396862
-0.000956363
-0.00401592
-0.000862266
-0.0038651
-0.000759103
-0.00352378
-0.000672976
-0.00303857
-0.000612033
-0.00247047
-0.000577051
-0.00187682
-0.000561143
-0.00130373
-0.000552905
-0.000784873
-0.0005408
-0.000343494
-0.000515729
6.27252e-06
-0.00047408
0.000258911
-0.000418592
0.00041774
-0.000357361
0.000494708
-0.000301127
0.000508666
-0.000259586
0.000481954
-0.000238295
0.000436329
-0.000237466
0.000389633
-0.000252796
0.000354191
-0.00027764
0.000337012
-0.000305337
0.000341135
-0.000330754
0.000367243
-0.000350764
0.00041494
-0.000363961
0.000483535
-0.000370101
0.000572303
-0.000369614
0.000680453
-0.000363294
0.000807062
-0.000352175
0.000950776
-0.000337483
0.00110951
-0.000320571
0.0012807
-0.000302955
0.00146106
-0.000286208
0.00164668
-0.000271953
0.00183327
-0.000261805
0.00201648
-0.000257207
0.0021911
-0.000259461
0.00235257
-0.000269446
0.00249622
-0.000287703
0.00261893
-0.000314339
0.00271855
-0.000348763
0.00279368
-0.000389821
0.00284373
-0.000435765
0.0028688
-0.00048421
0.00286954
-0.000532173
0.00284705
-0.000576259
0.00280293
-0.000613039
0.00273958
-0.000639636
0.00266053
-0.000654461
0.00257061
-0.000657884
0.0024756
-0.00065254
0.00238138
-0.000643042
0.00229289
-0.000635114
0.00221317
-0.000634441
0.00214361
-0.000645652
-0.000672315
0.00208037
-0.000116522
-0.000140524
-8.68219e-05
-0.000256058
8.8292e-05
-0.000159653
0.000330288
-6.62924e-05
0.00060072
-5.97999e-05
0.00085012
-6.53408e-05
0.00105147
-5.10259e-05
0.0012056
-1.05749e-05
0.00132631
5.51169e-05
0.00142389
0.000143018
0.00149762
0.000247448
0.00153636
0.000361904
0.00152053
0.000484337
0.00142076
0.000620587
0.00119467
0.000782437
0.000788541
0.000978218
0.000158457
0.00119174
-0.000709482
0.00137249
-0.00180589
0.00146516
-0.00306674
0.00138409
-0.00436751
0.00107448
-0.00558246
0.000613486
-0.00663963
0.00016663
-0.00752238
-0.000162104
-0.00821609
-0.000376734
-0.00870767
-0.000537301
-0.00895822
-0.000705812
-0.0089312
-0.000889278
-0.00862525
-0.00106506
-0.00808931
-0.00120892
-0.00738466
-0.00131668
-0.00657448
-0.00138723
-0.00571455
-0.00142108
-0.0048496
-0.00141786
-0.00401379
-0.0013766
-0.00323312
-0.0012964
-0.0025272
-0.00118
-0.00191016
-0.00103563
-0.00139003
-0.000877485
-0.000967435
-0.000723725
-0.000635499
-0.000591522
-0.000381416
-0.000492377
-0.000189456
-0.000429425
-4.39878e-05
-0.000398264
6.85012e-05
-0.000390129
0.000158717
-0.000395554
0.000234823
-0.00040686
0.000303061
-0.000419002
0.000368319
-0.000429219
0.000434502
-0.000436283
0.00050472
-0.000439832
0.000581368
-0.000439942
0.000666129
-0.000436935
0.000759958
-0.000431311
0.00086312
-0.000423733
0.000975185
-0.000415021
0.00109511
-0.000406129
0.00122125
-0.000398097
0.00135144
-0.000391993
0.00148307
-0.000388838
0.00161313
-0.000389526
0.00173845
-0.000394761
0.00185571
-0.000404962
0.00196156
-0.000420196
0.0020529
-0.000440098
0.00212692
-0.000463844
0.0021813
-0.000490148
0.00221441
-0.00051732
0.00222564
-0.000543401
0.00221581
-0.00056642
0.00218748
-0.000584713
0.0021451
-0.000597256
0.00209457
-0.000603929
0.00204233
-0.000605643
0.00199412
-0.000604338
0.00195391
-0.000602831
0.00192335
-0.00060455
0.00190203
-0.000613123
0.00188829
-0.000631912
-0.000662628
0.0018786
-0.000156299
1.57752e-05
-0.000388808
-2.35481e-05
-0.000503086
-4.53754e-05
-0.000474827
-9.45508e-05
-0.000373718
-0.00016091
-0.000254423
-0.000184635
-0.000156996
-0.000148454
-9.45582e-05
-7.30124e-05
-5.18627e-05
1.24215e-05
-5.56046e-08
9.12107e-05
8.60993e-05
0.000161293
0.000220294
0.000227709
0.000405329
0.000299302
0.000636684
0.000389232
0.000909998
0.000509124
0.00122989
0.000658321
0.00158767
0.000833964
0.00193955
0.00102061
0.00223522
0.00116949
0.002404
0.00121532
0.00237598
0.0011025
0.00214437
0.000845098
0.00179426
0.000516745
0.00145277
0.000179384
0.00122009
-0.000144061
0.00112264
-0.000439849
0.00110283
-0.000685999
0.00110074
-0.000887191
0.00105747
-0.00102178
0.000957527
-0.00110898
0.00080234
-0.00116149
0.00060406
-0.00118895
0.00038257
-0.00119959
0.000161762
-0.00119705
-3.41916e-05
-0.00118065
-0.000183473
-0.00114712
-0.00026989
-0.00109359
-0.000285273
-0.00102025
-0.000231132
-0.000931626
-0.000118079
-0.000836778
3.69163e-05
-0.000746517
0.000213972
-0.000669434
0.00039411
-0.000609563
0.000562287
-0.000566441
0.000709023
-0.000536865
0.000830468
-0.000516999
0.000927305
-0.000503698
0.00100313
-0.000494823
0.00106289
-0.000488983
0.00111178
-0.00048517
0.00115446
-0.000482511
0.00119471
-0.000480197
0.00123531
-0.000477537
0.00127807
-0.000474071
0.00132399
-0.000469653
0.00137344
-0.00046447
0.00142631
-0.000458999
0.00148211
-0.000453899
0.00154001
-0.000449893
0.00159882
-0.000447646
0.00165697
-0.000447678
0.00171253
-0.00045032
0.00176327
-0.000455699
0.00180683
-0.000463757
0.001841
-0.000474265
0.00186398
-0.000486822
0.00187467
-0.000500847
0.00187295
-0.000515596
0.00185976
-0.000530214
0.00183719
-0.000543849
0.00180827
-0.000555794
0.00177663
-0.000565613
0.00174597
-0.000573266
0.00171954
-0.000579216
0.00169976
-0.000584558
0.00168802
-0.000591086
0.00168468
-0.000601212
0.00168923
-0.000617674
0.00170038
-0.000643066
-0.000678077
0.00171583
3.95484e-06
1.182e-05
-5.44453e-05
3.4852e-05
-7.28362e-05
-2.69841e-05
-1.29879e-05
-0.000154399
0.000106735
-0.000280632
0.000283306
-0.000361207
0.000497575
-0.000362723
0.000711016
-0.000286454
0.000879178
-0.00015574
0.000965096
5.2933e-06
0.000944443
0.000181945
0.000806226
0.000365927
0.000559658
0.000545869
0.000249223
0.000699667
-3.79207e-05
0.000796267
-0.000192922
0.000813323
-0.000116491
0.000757532
0.000235077
0.000669039
0.000816631
0.000587931
0.00152384
0.000508102
0.00221138
0.000414957
0.00275668
0.000299801
0.00310123
0.000172193
0.00323741
4.32079e-05
0.00317843
-8.50823e-05
0.0029423
-0.000203725
0.00256321
-0.000306909
0.00207373
-0.000397708
0.00153367
-0.000481717
0.000991392
-0.000566707
0.000488772
-0.000658872
6.03257e-05
-0.0007605
-0.000269768
-0.000869492
-0.000486414
-0.000980407
-0.000581374
-0.00108569
-0.000551845
-0.00117665
-0.00040176
-0.00124367
-0.000144684
-0.00127732
0.000195243
-0.00127155
0.00058513
-0.00122667
0.000987784
-0.00114917
0.00136808
-0.00104973
0.00169848
-0.000939956
0.00196215
-0.000830111
0.00215327
-0.000727989
0.0022751
-0.00063883
0.00233714
-0.000565736
0.00235227
-0.000509957
0.00233431
-0.000471021
0.00229602
-0.000446881
0.00224782
-0.000434306
0.00219714
-0.000429519
0.00214851
-0.000428902
0.002104
-0.00042957
0.00206403
-0.000429678
0.002028
-0.000428443
0.00199496
-0.000425957
0.00196394
-0.000422872
0.0019341
-0.000420061
0.00190478
-0.000418321
0.0018753
-0.000418194
0.00184489
-0.000419916
0.00181271
-0.000423514
0.00177791
-0.000428961
0.00173996
-0.000436314
0.00169886
-0.000445727
0.00165535
-0.000457335
0.00161083
-0.000471074
0.00156717
-0.00048655
0.00152636
-0.000503043
0.00149024
-0.000519675
0.00146032
-0.000535692
0.0014378
-0.000550748
0.0014237
-0.000565113
0.00141888
-0.00057974
0.00142397
-0.000596175
0.00143908
-0.000616323
0.0014635
-0.000642098
0.00149542
-0.000674984
-0.000714805
0.00153215
-0.000383782
0.000395601
-0.00108794
0.000739006
-0.00191189
0.000796974
-0.00282536
0.000759071
-0.00380542
0.000699428
-0.00477988
0.000613248
-0.00565498
0.000512378
-0.00637676
0.000435328
-0.00693063
0.000398131
-0.0073135
0.000388164
-0.00751165
0.000380091
-0.007493
0.000347278
-0.00721157
0.000264435
-0.00661912
0.000107225
-0.00568136
-0.000141502
-0.00440455
-0.000463485
-0.00285051
-0.000796506
-0.00116735
-0.00101412
0.00048589
-0.00106531
0.00199624
-0.00100225
0.00332458
-0.000913378
0.0044694
-0.00084502
0.0054383
-0.000796714
0.0062386
-0.000757088
0.00687493
-0.00072141
0.00736056
-0.000689353
0.00771426
-0.000660612
0.00795128
-0.000634725
0.00808366
-0.000614104
0.00812143
-0.000604477
0.00807664
-0.000614082
0.00796312
-0.000646973
0.00779663
-0.000703008
0.00759426
-0.000778032
0.00737323
-0.000864664
0.00714943
-0.000952845
0.00693431
-0.00102855
0.00673288
-0.0010759
0.00654166
-0.00108033
0.00635008
-0.00103509
0.00614345
-0.000942539
0.00590847
-0.000814747
0.00563789
-0.000669377
0.00533398
-0.000526206
0.00500739
-0.000401394
0.00467329
-0.000304735
0.00434704
-0.000239491
0.00404087
-0.00020378
0.00376233
-0.000192488
0.00351438
-0.000198923
0.00329618
-0.00021611
0.00310445
-0.000237789
0.00293466
-0.000259112
0.00278207
-0.000276981
0.00264243
-0.000290037
0.00251237
-0.000298386
0.00238958
-0.000303164
0.00227274
-0.000306032
0.00216137
-0.000308696
0.00205555
-0.000312498
0.00195553
-0.000318178
0.00186149
-0.000325869
0.0017733
-0.000335333
0.00169068
-0.000346333
0.00161327
-0.000358905
0.00154093
-0.000373391
0.00147382
-0.000390221
0.00141235
-0.000409607
0.00135716
-0.000431364
0.00130906
-0.000454942
0.00126903
-0.000479639
0.0012382
-0.000504864
0.0012178
-0.00053035
0.00120894
-0.000556254
0.00121234
-0.000583136
0.00122801
-0.000611848
0.00125504
-0.000643346
0.0012914
-0.000678467
0.00133409
-0.000717674
-0.000760378
0.00137967
0.000429227
-3.36252e-05
0.000886237
0.000281996
0.00102495
0.000658261
0.00103237
0.000751654
0.00123632
0.000495474
0.00175199
9.75752e-05
0.00247112
-0.000206744
0.00325828
-0.000351837
0.00404983
-0.000393417
0.0048448
-0.000406806
0.00566179
-0.000436898
0.0064845
-0.000475437
0.00725224
-0.000503304
0.0078927
-0.000533233
0.00834717
-0.00059597
0.00858241
-0.000698725
0.00857946
-0.00079356
0.00836335
-0.000798013
0.007982
-0.000683957
0.00749997
-0.000520214
0.00699561
-0.000409024
0.00654126
-0.000390672
0.00618897
-0.000444419
0.0059478
-0.000515922
0.00577802
-0.000551625
0.00562509
-0.000536421
0.00545979
-0.00049532
0.00528076
-0.000455694
0.00509243
-0.000425775
0.00489146
-0.000403506
0.00466725
-0.000389864
0.00441019
-0.000389918
0.00411581
-0.000408624
0.00378893
-0.000451157
0.00344138
-0.000517117
0.00308505
-0.000596514
0.00272793
-0.000671423
0.0023759
-0.000723871
0.00203809
-0.000742523
0.00172759
-0.000724595
0.0014595
-0.000674448
0.00124536
-0.000600599
0.00109829
-0.000522309
0.00102371
-0.000451625
0.00101969
-0.000397372
0.00107764
-0.000362693
0.00118384
-0.000345683
0.00132144
-0.000341384
0.00147278
-0.000343826
0.00162136
-0.000347506
0.00175345
-0.000348193
0.00185893
-0.000343269
0.00193159
-0.000331777
0.00196889
-0.000314278
0.00197142
-0.00029257
0.00194231
-0.000269271
0.00188649
-0.000247344
0.00181003
-0.000229578
0.00171943
-0.000218096
0.00162091
-0.000213972
0.00151982
-0.000217095
0.00142037
-0.000226416
0.00132556
-0.000240518
0.00123749
-0.000258267
0.00115776
-0.000279174
0.00108767
-0.000303308
0.00102833
-0.000330881
0.000980559
-0.000361831
0.000944835
-0.000395639
0.000921325
-0.000431433
0.000909939
-0.000468254
0.000910392
-0.000505317
0.000922209
-0.000542167
0.00094466
-0.000578705
0.000976655
-0.000615132
0.00101664
-0.000651837
0.00106256
-0.000689265
0.00111189
-0.000727798
0.00116184
-0.00076762
-0.000808481
0.00120994
-0.00029683
0.000263205
-0.000777363
0.000762529
-0.00132407
0.00120497
-0.00192396
0.00135154
-0.00250473
0.00107625
-0.0030101
0.000602946
-0.00343288
0.000216037
-0.00374247
-4.22515e-05
-0.00384576
-0.00029012
-0.00357371
-0.000678862
-0.00279161
-0.001219
-0.00154373
-0.00172332
-0.000208831
-0.0018382
0.000674618
-0.00141668
0.000818773
-0.000740125
0.000281955
-0.000161907
-0.000689314
0.000177709
-0.00181037
0.000323043
-0.00284572
0.000351391
-0.00364023
0.000274295
-0.00411627
6.70195e-05
-0.00427165
-0.000235289
-0.00413098
-0.000585096
-0.00378333
-0.000863564
-0.00336751
-0.00096745
-0.00300778
-0.000896151
-0.00276143
-0.000741669
-0.00262564
-0.000591481
-0.00257933
-0.00047209
-0.00260058
-0.000382255
-0.00266803
-0.000322413
-0.00276801
-0.00028994
-0.00288778
-0.000288852
-0.00301336
-0.000325578
-0.00313188
-0.000398603
-0.00323113
-0.000497259
-0.00329866
-0.000603898
-0.00332059
-0.000701941
-0.00328173
-0.000781381
-0.00316835
-0.000837971
-0.00297146
-0.000871338
-0.00268834
-0.000883724
-0.00233179
-0.000878855
-0.0019216
-0.000861816
-0.00148278
-0.000836188
-0.0010414
-0.000804076
-0.000620649
-0.000766436
-0.000238369
-0.000723663
9.38807e-05
-0.000676076
0.000370504
-0.000624129
0.000590745
-0.000568433
0.000757257
-0.000509782
0.000874776
-0.000449296
0.000949045
-0.000388548
0.000986197
-0.000329722
0.000992497
-0.000275571
0.000974317
-0.000229165
0.000938048
-0.000193309
0.000889888
-0.000169937
0.000835564
-0.000159648
0.000780055
-0.000161587
0.000727459
-0.00017382
0.000681013
-0.000194072
0.00064316
-0.000220414
0.000615559
-0.000251573
0.000599049
-0.000286798
0.000593656
-0.000325488
0.000598722
-0.000366897
0.000613141
-0.000410059
0.000635618
-0.00045391
0.000664863
-0.000497499
0.000699684
-0.000540139
0.000738994
-0.000581478
0.000781763
-0.000621474
0.000826949
-0.000660317
0.000873446
-0.000698333
0.000920075
-0.000735894
0.000965633
-0.000773356
0.001009
-0.000810983
-0.000848956
0.00104947
-0.000269827
0.000533032
-0.000584139
0.00107684
-0.000722898
0.00134373
-0.0008892
0.00151785
-0.00138112
0.00156817
-0.00226846
0.00149029
-0.00339349
0.00134106
-0.00455794
0.0011222
-0.00561543
0.000767363
-0.00643639
0.000142098
-0.00679831
-0.000857077
-0.00660264
-0.00191899
-0.00601933
-0.0024215
-0.00528253
-0.00215349
-0.00453308
-0.00148957
-0.0038162
-0.000878793
-0.00317822
-0.000460268
-0.00264911
-0.000206074
-0.00225654
-4.11784e-05
-0.0020719
8.96549e-05
-0.00219587
0.000190999
-0.00262447
0.00019331
-0.00326391
5.43435e-05
-0.00394294
-0.000184534
-0.00454691
-0.000363482
-0.00505424
-0.00038882
-0.00545375
-0.000342159
-0.00570757
-0.000337659
-0.00578448
-0.000395178
-0.0056767
-0.000490037
-0.00539949
-0.000599627
-0.0049814
-0.000708024
-0.00446487
-0.000805386
-0.00390367
-0.000886773
-0.00335177
-0.000950504
-0.00285096
-0.00099807
-0.00242314
-0.00103172
-0.00207191
-0.00105318
-0.00178972
-0.00106357
-0.00156404
-0.00106365
-0.00138124
-0.00105414
-0.00122907
-0.00103589
-0.00109813
-0.0010098
-0.000983348
-0.000976595
-0.000882649
-0.000936887
-0.000795505
-0.00089122
-0.000721698
-0.000840243
-0.000660519
-0.000784842
-0.000610469
-0.000726126
-0.000569334
-0.000665264
-0.000534461
-0.000603307
-0.000503104
-0.000541139
-0.000472793
-0.000479606
-0.000441529
-0.000419812
-0.000407916
-0.000363335
-0.000371213
-0.000312275
-0.000331325
-0.000269053
-0.000288659
-0.000235976
-0.000243905
-0.000214691
-0.000197772
-0.000205781
-0.00015068
-0.000208679
-0.000102541
-0.000221959
-5.27963e-05
-0.000243818
-7.15536e-07
-0.000272495
5.41774e-05
-0.000306466
0.000111807
-0.000344428
0.00017152
-0.000385201
0.0002323
-0.000427677
0.000293075
-0.000470835
0.000352978
-0.000513813
0.000411453
-0.000555973
0.00046824
-0.000596926
0.000523279
-0.000636517
0.000576588
-0.000674783
0.000628167
-0.000711897
0.000677946
-0.000748113
0.000725775
-0.000783724
0.000771451
-0.000819033
0.000814789
-0.000854322
-0.00089013
0.000855962
0.000869853
-0.000336821
0.0024959
-0.00054921
0.00445793
-0.000618305
0.00657337
-0.00059759
0.0086277
-0.000486156
0.0104337
-0.000315759
0.0118898
-0.000115013
0.0129186
9.33782e-05
0.013396
0.000290001
0.0131053
0.00043283
0.0117948
0.000453435
0.00945568
0.000420089
0.00650566
0.000528522
0.00354994
0.000802221
0.000958007
0.00110237
-0.00126459
0.0013438
-0.00324793
0.00152307
-0.00512088
0.00166687
-0.00693142
0.00176936
-0.00868493
0.00184317
-0.0103555
0.00186159
-0.0119059
0.00174369
-0.0131248
0.00127322
-0.0136016
0.000292311
-0.013103
-0.000862134
-0.0119608
-0.00153102
-0.0106856
-0.0016173
-0.00953088
-0.00149242
-0.00853184
-0.00139422
-0.00766193
-0.00135994
-0.0068928
-0.00136876
-0.00620319
-0.00139764
-0.00557901
-0.00142956
-0.00501254
-0.00145325
-0.00449957
-0.00146348
-0.0040379
-0.00145973
-0.0036261
-0.00144351
-0.00326307
-0.00141621
-0.00294781
-0.00137883
-0.0026788
-0.00133267
-0.00245335
-0.00127959
-0.00226746
-0.00122178
-0.00211598
-0.00116129
-0.00199287
-0.0010997
-0.00189174
-0.00103801
-0.00180634
-0.000976625
-0.00173102
-0.000915556
-0.00166128
-0.000854588
-0.00159396
-0.000793439
-0.00152731
-0.000731913
-0.00146058
-0.000670046
-0.00139344
-0.000608279
-0.00132546
-0.00054758
-0.00125583
-0.000489445
-0.00118337
-0.000435795
-0.0011069
-0.000388748
-0.00102563
-0.000350322
-0.000939495
-0.000322109
-0.000849183
-0.000305004
-0.000755884
-0.000299081
-0.00066091
-0.000303654
-0.000565384
-0.000317486
-0.000470146
-0.000339055
-0.000375854
-0.000366787
-0.000283134
-0.000399186
-0.000192662
-0.000434899
-0.000105131
-0.000472732
-2.11459e-05
-0.000511662
5.88711e-05
-0.000550852
0.000134719
-0.000589662
0.000206398
-0.000627653
0.000274047
-0.000664575
0.00033788
-0.00070035
0.000398132
-0.000735035
0.00045503
-0.000768795
0.000508779
-0.000801861
0.000559561
-0.000834506
0.000607542
-0.000867014
0.000652918
-0.000899699
-0.000933233
0.000696021
-0.000210162
-0.000126659
-0.000147511
-0.00061186
0.000360008
-0.00112582
0.00116992
-0.0014075
0.00211382
-0.00143006
0.00305359
-0.00125553
0.00391255
-0.000973966
0.00467339
-0.000667465
0.00535081
-0.00038742
0.00592618
-0.000142541
0.00628374
9.58754e-05
0.00635605
0.000347778
0.00628606
0.000598514
0.00626449
0.000823784
0.00634119
0.00102567
0.00646598
0.00121901
0.00657817
0.00141088
0.00664284
0.00160221
0.00662138
0.00179082
0.00649682
0.00196772
0.00624047
0.00211794
0.00578169
0.00220246
0.00501332
0.00204159
0.00392187
0.00138376
0.0026153
0.000444435
0.00133132
-0.000247035
0.000236597
-0.000522573
-0.000606695
-0.000649125
-0.00120742
-0.000793498
-0.00160512
-0.000962235
-0.00185389
-0.00111999
-0.00200484
-0.00124669
-0.00209292
-0.00134149
-0.00213791
-0.00140825
-0.0021511
-0.00145029
-0.00213889
-0.00147194
-0.00210533
-0.00147707
-0.00205421
-0.00146734
-0.00198958
-0.00144346
-0.00191524
-0.001407
-0.00183436
-0.00136047
-0.00174959
-0.00130655
-0.00166351
-0.00124737
-0.00157899
-0.00118422
-0.00149917
-0.00111783
-0.00142702
-0.00104877
-0.00136485
-0.000977731
-0.00131378
-0.000905654
-0.00127356
-0.000833657
-0.00124261
-0.000762865
-0.00121829
-0.000694366
-0.00119732
-0.000629253
-0.00117618
-0.000568717
-0.00115153
-0.000514096
-0.0011205
-0.000466823
-0.00108098
-0.000428269
-0.00103177
-0.000399534
-0.000972642
-0.000381236
-0.000904259
-0.000373387
-0.000827951
-0.000375389
-0.000745449
-0.000386156
-0.00065862
-0.000404315
-0.000569277
-0.000428399
-0.000479065
-0.000456999
-0.000389405
-0.000488847
-0.000301459
-0.000522845
-0.00021613
-0.000558061
-0.000134065
-0.000593728
-5.56737e-05
-0.000629243
1.8823e-05
-0.000664159
8.93573e-05
-0.000698187
0.000155975
-0.000731192
0.000218802
-0.000763176
0.000278019
-0.000794252
0.000333839
-0.000824615
0.000386488
-0.000854511
0.000436187
-0.000884204
0.00048314
-0.000913966
0.00052755
-0.000944109
-0.000975273
0.000569591
-0.000121688
-4.97151e-06
-0.000456639
-0.000276908
-0.00101774
-0.000564728
-0.0016995
-0.000725733
-0.00238692
-0.000742637
-0.00297633
-0.000666121
-0.00341794
-0.000532357
-0.00372148
-0.000363924
-0.00392486
-0.000184038
-0.00406109
-6.31532e-06
-0.00413119
0.000165975
-0.0041095
0.000326084
-0.00398272
0.000471736
-0.00375141
0.000592473
-0.00340041
0.000674679
-0.00288807
0.000706676
-0.00216314
0.000685945
-0.00117734
0.000616409
9.09256e-05
0.00052256
0.00161627
0.000442384
0.00333655
0.000397661
0.00514278
0.000396226
0.0067529
0.000431469
0.007667
0.000469669
0.00762685
0.000484577
0.00691882
0.000460997
0.0060242
0.000372047
0.0051665
0.000208578
0.00439401
-2.10073e-05
0.00369403
-0.000262256
0.00306671
-0.000492669
0.0025156
-0.000695577
0.00204023
-0.000866122
0.00163559
-0.00100361
0.00129311
-0.00110781
0.00100131
-0.00118014
0.000747497
-0.00122326
0.000520274
-0.00124012
0.000311226
-0.00123441
0.000115313
-0.00121108
-6.94322e-05
-0.00117572
-0.00024253
-0.00113345
-0.000401848
-0.00108805
-0.000544488
-0.00104158
-0.000667739
-0.000994584
-0.000769879
-0.00094663
-0.000850641
-0.000896968
-0.000911171
-0.000845124
-0.000953639
-0.000791189
-0.000980581
-0.000735923
-0.000994391
-0.000680556
-0.000996963
-0.000626682
-0.000989586
-0.000576093
-0.000973043
-0.000530639
-0.000947799
-0.000492066
-0.000914228
-0.00046184
-0.000872797
-0.000440966
-0.000824173
-0.000429859
-0.000769252
-0.000428308
-0.000709098
-0.000435543
-0.000644851
-0.000450404
-0.000577627
-0.000471539
-0.000508448
-0.000497577
-0.000438203
-0.000527243
-0.000367649
-0.000559402
-0.000297424
-0.000593069
-0.000228077
-0.000627408
-0.000160077
-0.000661727
-9.38398e-05
-0.00069548
-2.97133e-05
-0.000728285
3.20247e-05
-0.000759925
9.11723e-05
-0.00079034
0.000147605
-0.000819609
0.000201272
-0.00084792
0.000252186
-0.000875529
0.000300405
-0.00090273
0.000346019
-0.000929819
0.000389136
-0.000957084
0.00042988
-0.000984853
-0.0010137
0.000468308
0.000639298
-0.000644269
0.00167263
-0.00131024
0.00270042
-0.00159251
0.00359686
-0.00162218
0.00430308
-0.00144885
0.00486724
-0.00123028
0.00537148
-0.0010366
0.00584955
-0.000841991
0.00628842
-0.000622908
0.00665127
-0.000369166
0.00688989
-7.26458e-05
0.0069412
0.000274777
0.0067457
0.000667237
0.00626089
0.00107727
0.00548825
0.00144732
0.00448764
0.0017073
0.00340254
0.00177104
0.00241269
0.00160626
0.00169593
0.00123931
0.00136865
0.000769664
0.00144385
0.000322463
0.00185177
-1.16888e-05
0.0024904
-0.000207167
0.00325998
-0.00029991
0.00409083
-0.000346269
0.00493226
-0.000380435
0.00570908
-0.000404769
0.00632784
-0.000410189
0.0067018
-0.000394964
0.00680618
-0.000366638
0.00662017
-0.000306659
0.00620881
-0.000284217
0.00564805
-0.000305365
0.00501062
-0.000366174
0.00435383
-0.000451022
0.00371427
-0.000540582
0.00311149
-0.000620478
0.00255508
-0.000683699
0.0020495
-0.000728836
0.00159614
-0.000757726
0.00119414
-0.000773723
0.00084117
-0.000780479
0.000534091
-0.000780972
0.000269472
-0.000776961
4.37561e-05
-0.000768867
-0.000146695
-0.000756179
-0.00030551
-0.000738153
-0.000436134
-0.000714499
-0.000541568
-0.000685755
-0.000624306
-0.000653184
-0.00068627
-0.000618592
-0.000729002
-0.000583949
-0.000753911
-0.000551184
-0.000762496
-0.000522054
-0.000756486
-0.000498076
-0.000737875
-0.000480451
-0.000708848
-0.000469993
-0.000671632
-0.000467075
-0.000628315
-0.000471624
-0.000580683
-0.000483174
-0.000530122
-0.000500965
-0.000477611
-0.000524049
-0.000423798
-0.000551391
-0.00036911
-0.000581931
-0.000313876
-0.000614636
-0.00025841
-0.000648535
-0.000203058
-0.00068276
-0.000148202
-0.000716583
-9.42352e-05
-0.000749448
-4.15284e-05
-0.000780992
9.59587e-06
-0.000811049
5.88876e-05
-0.000839632
0.000106179
-0.0008669
0.000151378
-0.000893119
0.000194461
-0.000918612
0.000235455
-0.000943723
0.000274418
-0.000968782
0.00031143
-0.000994096
0.000346581
-0.00102
-0.00104702
0.000379899
-0.000283888
-0.00036038
-0.000372321
-0.00122181
8.05114e-06
-0.00197288
0.000591909
-0.00220604
0.0011343
-0.00199124
0.00161096
-0.00170694
0.0020744
-0.00150004
0.00256393
-0.00133152
0.00310163
-0.00116061
0.0036988
-0.000966333
0.00435953
-0.000733378
0.00508249
-0.000448183
0.00584215
-9.24211e-05
0.00660135
0.000318079
0.00730234
0.000746323
0.00788692
0.00112272
0.00828541
0.00137255
0.00846189
0.00142978
0.0084143
0.0012869
0.00817338
0.00101059
0.00779472
0.00070112
0.00734371
0.000439318
0.00687765
0.000258892
0.00642712
0.000150625
0.0059911
8.97527e-05
0.00555551
5.51567e-05
0.00511327
3.74652e-05
0.0046615
4.15794e-05
0.00421992
4.66153e-05
0.00381173
4.15521e-05
0.00346626
3.88177e-05
0.00316142
2.06235e-05
0.00287934
-2.32936e-05
0.00260605
-9.28843e-05
0.00233391
-0.000178877
0.00206232
-0.000268997
0.00179467
-0.00035282
0.00153471
-0.000423737
0.00128511
-0.000479237
0.00104749
-0.000520112
0.000823042
-0.000549273
0.000613049
-0.000570487
0.000419222
-0.000587145
0.000243384
-0.000601123
8.71359e-05
-0.000612619
-4.85139e-05
-0.000620529
-0.00016345
-0.000623217
-0.000258531
-0.000619419
-0.000335385
-0.000608901