/*--------------------------------*- C++ -*----------------------------------*\
| =========                 |                                                 |
| \\      /  F ield         | OpenFOAM: The Open Source CFD Toolbox           |
|  \\    /   O peration     | Version:  2012                                  |
|   \\  /    A nd           | Website:  www.openfoam.com                      |
|    \\/     M anipulation  |                                                 |
\*---------------------------------------------------------------------------*/
FoamFile
{
    version     2.0;
    format      ascii;
    class       volScalarField;
    location    "0.3";
    object      p;
}
// * * * * * * * * * * * * * * * * * * * * * * * * * * * * * * * * * * * * * //

dimensions      [0 2 -2 0 0 0 0];


internalField   nonuniform List<scalar> 
42400
(
-12212.5
-11687.1
-10946.7
-10080.5
-9102.06
-8092.49
-7072.64
-6063.02
-5088.44
-4190.62
-3426.5
-2837.47
-2422.46
-2143.88
-1952.02
-1803.88
-1665.23
-1516.67
-1354.28
-1182.76
-1006.46
-826.291
-644.627
-470.399
-317.995
-199.174
-117.853
-70.5167
-49.8557
-48.135
-58.867
-77.1092
-99.1351
-121.99
-143.178
-160.851
-174.197
-182.952
-187.362
-188.127
-186.094
-182.094
-176.848
-170.913
-164.705
-158.51
-152.503
-146.761
-141.335
-136.341
-131.783
-127.626
-123.836
-120.366
-117.181
-114.249
-111.542
-109.039
-106.719
-104.569
-102.579
-100.737
-99.0321
-97.4511
-95.9747
-94.5781
-93.2296
-91.8912
-90.5196
-89.0687
-87.4927
-85.7512
-83.8143
-81.6685
-79.3224
-76.8095
-74.1848
-71.5244
-68.9627
-66.8926
3828.99
3884.12
3956.64
3926.99
3731.78
3314.31
2734.17
2103.33
1535.65
1114.55
874.748
795.943
817.349
867.947
893.628
866.328
779.948
646.469
490.955
340.586
213.882
118.917
56.0429
20.379
4.26625
-0.675334
-1.58553
-3.41084
-8.37201
-16.9836
-28.7456
-42.6863
-57.7383
-72.9076
-87.3743
-100.479
-111.916
-121.636
-129.754
-136.376
-141.599
-145.507
-148.097
-149.446
-149.775
-149.286
-148.147
-146.532
-144.617
-142.473
-140.172
-137.768
-135.287
-132.754
-130.196
-127.636
-125.086
-122.566
-120.1
-117.715
-115.443
-113.311
-111.339
-109.538
-107.903
-106.417
-105.043
-103.735
-102.433
-101.069
-99.5728
-97.8792
-95.9334
-93.7006
-91.1741
-88.3831
-85.3923
-82.3027
-79.3049
-76.7394
10216.6
10028.2
9787.12
9432.2
8904.08
8271.34
7590.98
6915.96
6265.23
5601.67
4872.84
4072.4
3243.49
2431.71
1665.86
975.227
405.669
-3.85693
-263.374
-431.234
-558.567
-657.268
-721.812
-753.594
-762.009
-755.968
-740.491
-718.56
-691.9
-661.243
-626.75
-588.572
-547.197
-503.48
-458.63
-414.081
-371.307
-331.625
-296.062
-265.257
-239.403
-218.324
-201.665
-188.874
-179.179
-171.847
-166.268
-161.951
-158.513
-155.621
-153.027
-150.63
-148.308
-145.955
-143.49
-140.876
-138.112
-135.235
-132.311
-129.423
-126.657
-124.092
-121.793
-119.796
-118.109
-116.71
-115.548
-114.547
-113.615
-112.645
-111.528
-110.155
-108.431
-106.281
-103.67
-100.61
-97.1743
-93.4941
-89.7678
-86.3423
-10614.3
-10149.7
-9535.06
-8765.68
-7759.55
-6554.46
-5221.86
-3899.63
-2729.7
-1787.34
-1068.1
-536.869
-166.309
63.4415
173.556
191.841
148.077
63.2888
-55.6816
-206.819
-378.094
-545.452
-686.675
-789.233
-849.54
-874.614
-875.803
-861.131
-834.539
-797.325
-750.004
-693.716
-630.732
-564.169
-497.443
-433.736
-375.636
-324.905
-282.389
-248.093
-221.367
-201.142
-186.189
-175.349
-167.663
-162.356
-158.807
-156.565
-155.264
-154.626
-154.38
-154.187
-153.827
-153.107
-151.85
-150.018
-147.635
-144.789
-141.624
-138.32
-135.066
-132.041
-129.386
-127.191
-125.485
-124.242
-123.383
-122.793
-122.335
-121.865
-121.235
-120.3
-118.92
-116.978
-114.393
-111.152
-107.327
-103.086
-98.6257
-94.2936
1400.39
1006.9
475.634
-151.627
-880.805
-1586.97
-2217.45
-2746.59
-3167.32
-3478.23
-3674.52
-3751.93
-3712.91
-3568.92
-3340.81
-3058.54
-2758.44
-2480.21
-2258.13
-2109.63
-2029.07
-1989.23
-1951.19
-1879.68
-1754.63
-1573.44
-1348.85
-1101.34
-851.524
-617.076
-412.004
-245.946
-122.428
-40.2006
6.43179
25.7288
26.1575
14.8613
-2.8819
-23.5013
-44.6933
-65.008
-83.5204
-99.6786
-113.31
-124.715
-133.879
-141.141
-146.848
-151.275
-154.615
-156.98
-158.394
-158.838
-158.351
-156.964
-154.751
-151.854
-148.476
-144.855
-141.228
-137.812
-134.781
-132.25
-130.27
-128.825
-127.842
-127.205
-126.767
-126.375
-125.877
-125.123
-123.958
-122.228
-119.805
-116.636
-112.783
-108.423
-103.791
-99.1364
-3070.86
-2783.54
-2404.21
-2012
-1617.25
-1277.32
-987.288
-739.466
-530.951
-357.701
-213.093
-89.0341
23.515
133.831
250.758
379.686
516.936
649.642
758.911
826.162
844.3
819.366
767.146
704.648
643.435
587.45
533.263
475.563
410.457
336.175
253.454
165.59
77.3235
-5.53001
-77.948
-136.014
-178.226
-205.66
-221.092
-227.847
-228.882
-226.345
-221.588
-215.414
-208.351
-200.6
-192.728
-185.457
-179.062
-173.693
-169.371
-165.901
-163.194
-161.029
-159.134
-157.286
-155.358
-153.292
-151.081
-148.758
-146.372
-143.969
-141.575
-139.199
-136.836
-134.48
-132.144
-129.872
-127.739
-125.821
-124.14
-122.636
-121.162
-119.503
-117.431
-114.794
-111.579
-107.912
-104.046
-100.074
2156.37
2297.47
2503.6
2744.37
2986.46
3178.75
3305.09
3363.64
3363.97
3318.1
3229.88
3095.72
2915.41
2698.98
2463.45
2227.24
2004.96
1800.56
1605.87
1407.24
1195.94
974.913
756.546
554.613
377.662
227.364
102.625
-0.651702
-86.9438
-159.635
-219.802
-267.3
-301.889
-323.006
-330.779
-327.66
-316.445
-299.926
-281.169
-262.769
-246.289
-232.209
-220.207
-209.621
-199.833
-190.583
-182.064
-174.167
-167.185
-161.386
-156.903
-153.815
-151.901
-150.936
-150.688
-150.935
-151.464
-152.084
-152.632
-152.955
-152.908
-152.341
-151.108
-149.086
-146.213
-142.526
-138.188
-133.501
-128.837
-124.546
-120.883
-117.934
-115.588
-113.582
-111.61
-109.436
-106.973
-104.275
-101.524
-98.7149
8524.89
8237.8
7859.11
7354.33
6588.59
5666.48
4701.46
3811.56
3033.06
2331.27
1680.31
1089.91
578.662
157.1
-172.951
-417.738
-590.38
-708.068
-787.601
-840.978
-873.422
-885.236
-875.419
-844.438
-795.19
-732.489
-662.454
-590.18
-519.781
-453.607
-393.398
-340.406
-295.526
-259.47
-232.642
-214.362
-203.534
-198.679
-197.64
-198.121
-198.274
-196.992
-193.906
-189.211
-183.414
-177.122
-170.895
-165.21
-160.394
-156.569
-153.764
-151.9
-150.837
-150.41
-150.456
-150.827
-151.39
-152.019
-152.585
-152.945
-152.942
-152.411
-151.195
-149.171
-146.282
-142.564
-138.175
-133.382
-128.524
-123.935
-119.869
-116.433
-113.56
-111.067
-108.741
-106.434
-104.108
-101.821
-99.6658
-97.6375
-6985.44
-6969.03
-6975.66
-7022.96
-7145.93
-7240.22
-7150.56
-6797.99
-6266.34
-5698.86
-5162.94
-4650.9
-4143.02
-3634.36
-3131.68
-2646.98
-2192.39
-1777.08
-1406.49
-1083.16
-807.643
-578.101
-391.458
-243.738
-130.763
-48.1252
8.15551
41.832
56.7131
56.7175
45.7247
27.3702
4.8538
-19.2254
-42.966
-65.1071
-84.9138
-102.051
-116.456
-128.235
-137.593
-144.784
-150.094
-153.827
-156.294
-157.796
-158.608
-158.962
-159.036
-158.953
-158.785
-158.564
-158.288
-157.937
-157.482
-156.89
-156.13
-155.173
-153.99
-152.549
-150.819
-148.764
-146.357
-143.587
-140.47
-137.062
-133.459
-129.781
-126.155
-122.686
-119.431
-116.386
-113.502
-110.724
-108.032
-105.462
-103.091
-100.996
-99.1983
-97.6631
-5748.01
-5374.75
-4888.28
-4372.78
-3802.71
-3176.94
-2431.97
-1568.45
-680.894
108.737
713.217
1092.86
1267.58
1308.72
1291.12
1255.61
1212.93
1162.55
1102.65
1032.3
952.181
863.583
768.826
670.627
571.388
472.541
375.218
280.633
190.245
105.799
29.1657
-37.9928
-94.5245
-139.895
-174.208
-198.215
-213.245
-221.01
-223.324
-221.863
-218.021
-212.873
-207.187
-201.475
-196.052
-191.088
-186.65
-182.736
-179.302
-176.278
-173.588
-171.155
-168.909
-166.79
-164.746
-162.73
-160.7
-158.616
-156.439
-154.135
-151.676
-149.042
-146.228
-143.243
-140.109
-136.864
-133.552
-130.218
-126.898
-123.619
-120.398
-117.25
-114.204
-111.312
-108.65
-106.282
-104.228
-102.445
-100.853
-99.3842
11032.1
10915
10667.3
10204.9
9547.77
8769.11
7923.16
7042.04
6136.14
5209.2
4287.02
3435.13
2732.92
2224.55
1897.53
1702.03
1580.63
1487.06
1391.55
1279.34
1144.75
988.112
813.105
624.296
426.869
227.999
37.9636
-130.682
-266.313
-361.379
-413.955
-428.208
-413.661
-382.61
-346.255
-311.835
-282.985
-259.878
-242.009
-228.548
-218.557
-211.16
-205.602
-201.281
-197.742
-194.665
-191.839
-189.133
-186.468
-183.805
-181.127
-178.43
-175.715
-172.987
-170.246
-167.494
-164.727
-161.941
-159.129
-156.283
-153.396
-150.463
-147.478
-144.441
-141.356
-138.23
-135.074
-131.901
-128.727
-125.578
-122.49
-119.511
-116.69
-114.06
-111.627
-109.374
-107.277
-105.307
-103.439
-101.635
-3628.8
-3293.08
-2835.06
-2373.17
-1887.76
-1523.93
-1302.34
-1191.1
-1139.21
-1110.84
-1095.54
-1094.31
-1106.15
-1124.87
-1140.97
-1143.98
-1125.38
-1081.23
-1011.73
-922.318
-820.578
-714.765
-612.605
-520.063
-440.558
-374.925
-322.071
-279.992
-246.631
-220.072
-198.807
-183.166
-173.899
-171.228
-174.145
-180.844
-188.897
-196.898
-203.779
-208.934
-212.213
-213.751
-213.81
-212.684
-210.647
-207.934
-204.74
-201.217
-197.487
-193.645
-189.762
-185.892
-182.075
-178.335
-174.688
-171.139
-167.687
-164.325
-161.044
-157.833
-154.679
-151.57
-148.495
-145.443
-142.407
-139.384
-136.377
-133.392
-130.442
-127.542
-124.705
-121.945
-119.276
-116.712
-114.264
-111.933
-109.7
-107.541
-105.438
-103.363
-12024.3
-11512.1
-10842.7
-10125
-9302.5
-8429.11
-7509.56
-6581.13
-5689.89
-4870.9
-4143.26
-3513.04
-2976.4
-2522.7
-2138.43
-1808.99
-1519.28
-1256.5
-1013.19
-786.981
-580.07
-398.146
-248.945
-138.245
-66.1987
-27.0382
-11.8772
-12.1893
-21.9555
-38.1291
-59.4843
-83.7435
-108.938
-133.64
-156.618
-176.943
-194.081
-207.851
-218.313
-225.683
-230.269
-232.428
-232.536
-230.962
-228.06
-224.156
-219.546
-214.484
-209.184
-203.814
-198.501
-193.33
-188.352
-183.593
-179.059
-174.743
-170.631
-166.704
-162.943
-159.33
-155.847
-152.477
-149.204
-146.016
-142.901
-139.852
-136.862
-133.932
-131.065
-128.269
-125.552
-122.924
-120.383
-117.924
-115.533
-113.196
-110.904
-108.65
-106.436
-104.249
13648.2
13288.3
12782.6
12051.3
11019.8
9835.1
8575.2
7270.38
5926.26
4551.23
3179.22
1880.1
753.634
-115.771
-725.958
-1159.87
-1494.52
-1731.54
-1843.93
-1849.26
-1797.97
-1724.72
-1639.37
-1544.2
-1443.07
-1340.89
-1241.77
-1148.02
-1060.13
-977.173
-898.211
-823.072
-752.386
-686.933
-627.365
-573.946
-526.584
-484.886
-448.263
-416.035
-387.519
-362.091
-339.229
-318.527
-299.694
-282.538
-266.939
-252.814
-240.093
-228.693
-218.514
-209.438
-201.336
-194.079
-187.544
-181.619
-176.207
-171.225
-166.602
-162.282
-158.216
-154.367
-150.701
-147.194
-143.827
-140.583
-137.453
-134.429
-131.507
-128.682
-125.951
-123.308
-120.746
-118.258
-115.835
-113.473
-111.164
-108.904
-106.689
-104.507
-4947.94
-4746.52
-4439.19
-4002.86
-3445.49
-2819.96
-2174.19
-1547.06
-969.935
-473.352
-86.6557
169.524
292.372
294.491
187.203
-30.6665
-348.144
-694.981
-958.359
-1077.75
-1089.75
-1066.66
-1046.71
-1030.5
-1009.2
-979.195
-941.104
-897.13
-850.328
-803.523
-758.491
-715.883
-675.772
-638.176
-602.975
-569.941
-538.79
-509.23
-481
-453.897
-427.785
-402.603
-378.36
-355.13
-333.044
-312.265
-292.955
-275.242
-259.192
-244.798
-231.985
-220.629
-210.592
-201.663
-193.705
-186.579
-180.157
-174.331
-169.008
-164.11
-159.573
-155.343
-151.375
-147.631
-144.08
-140.698
-137.465
-134.364
-131.385
-128.517
-125.753
-123.087
-120.511
-118.018
-115.601
-113.25
-110.957
-108.714
-106.516
-104.352
-5106.04
-5055.17
-4992.45
-4892.65
-4751.72
-4561.13
-4322.62
-4043.1
-3731.68
-3398.12
-3051.78
-2701.52
-2355.05
-2020.88
-1710.38
-1438.85
-1214.87
-1015.81
-787.036
-495.334
-182.885
59.9126
177.192
180.509
110.733
3.00037
-118.608
-238.564
-347.341
-439.601
-512.224
-565.525
-600.844
-620.054
-625.501
-619.556
-604.413
-582.057
-554.295
-522.805
-489.131
-454.677
-420.673
-388.137
-357.841
-330.285
-305.702
-284.092
-265.276
-248.966
-234.829
-222.541
-211.806
-202.369
-194.017
-186.574
-179.895
-173.858
-168.36
-163.319
-158.664
-154.339
-150.297
-146.499
-142.914
-139.517
-136.287
-133.205
-130.256
-127.429
-124.712
-122.094
-119.566
-117.12
-114.747
-112.438
-110.187
-107.986
-105.832
-103.713
9639.73
9492.67
9293.32
8986.37
8533.13
7961.53
7296.38
6567.08
5803.32
5032.47
4279.8
3567.78
2912.93
2325.22
1808.41
1361.3
977.762
646.311
351.364
79.3299
-177.005
-415.605
-627.676
-805.092
-944.618
-1047.16
-1116.26
-1155.04
-1165.8
-1152.08
-1117.71
-1066.48
-1002.54
-930.293
-853.952
-777.313
-703.493
-634.59
-571.42
-513.615
-460.274
-410.869
-365.729
-325.803
-291.995
-264.653
-243.423
-227.41
-215.463
-206.439
-199.37
-193.528
-188.414
-183.715
-179.249
-174.918
-170.682
-166.528
-162.46
-158.489
-154.628
-150.887
-147.274
-143.793
-140.447
-137.233
-134.147
-131.185
-128.34
-125.606
-122.976
-120.442
-117.996
-115.631
-113.338
-111.108
-108.933
-106.806
-104.723
-102.673
-4604.4
-4543.39
-4456.39
-4329.89
-4147.81
-3914.01
-3626.86
-3289.48
-2911
-2505.48
-2090.03
-1682.45
-1298.16
-945.927
-629.89
-352.264
-117.395
69.8148
209.176
305.342
365.113
394.581
398.342
380.497
345.83
299.978
249.171
199.102
153.836
115.737
84.6757
59.7665
39.5472
21.2931
1.90759
-21.3365
-50.3127
-85.6322
-126.262
-169.339
-210.717
-246.157
-272.499
-288.309
-293.842
-290.697
-281.259
-268.069
-253.336
-238.674
-225.045
-212.87
-202.199
-192.899
-184.763
-177.587
-171.202
-165.472
-160.288
-155.567
-151.237
-147.241
-143.529
-140.061
-136.802
-133.725
-130.806
-128.025
-125.368
-122.82
-120.371
-118.009
-115.726
-113.511
-111.356
-109.252
-107.193
-105.173
-103.191
-101.238
-4121.18
-3912.75
-3619.89
-3272.5
-2861.15
-2454.89
-2076.99
-1735.18
-1429.88
-1162.87
-939.351
-763.47
-630.326
-524.032
-427.455
-334.002
-249.28
-181.999
-136.012
-110.856
-105.751
-121.675
-159.908
-219.782
-297.579
-386.903
-479.76
-567.865
-643.893
-702.488
-740.75
-758.14
-756.383
-738.309
-706.995
-665.666
-617.397
-565.039
-511.447
-459.419
-411.172
-367.942
-330.122
-297.406
-269.51
-245.368
-224.691
-207.503
-193.658
-182.817
-174.495
-168.147
-163.25
-159.356
-156.115
-153.27
-150.648
-148.135
-145.664
-143.2
-140.73
-138.254
-135.778
-133.313
-130.87
-128.461
-126.093
-123.773
-121.505
-119.29
-117.128
-115.017
-112.953
-110.932
-108.949
-107.002
-105.085
-103.197
-101.335
-99.4979
6341.94
6235.18
6070.43
5799.75
5410.71
4938.86
4411.94
3854.71
3286.71
2719.36
2155.43
1591.89
1024.75
452.557
-120.585
-678.698
-1186.92
-1598.81
-1875.27
-2011.03
-2039.46
-2005.87
-1939.5
-1850.96
-1745.43
-1630.72
-1516.13
-1408.62
-1311
-1222.52
-1140.54
-1062.01
-983.888
-904.528
-823.714
-742.145
-661.48
-583.751
-510.962
-444.833
-386.587
-336.864
-295.846
-263.112
-237.184
-217.325
-202.342
-190.983
-182.215
-175.225
-169.424
-164.429
-160.005
-156.012
-152.361
-148.991
-145.853
-142.909
-140.128
-137.483
-134.952
-132.52
-130.173
-127.902
-125.699
-123.556
-121.469
-119.432
-117.442
-115.493
-113.581
-111.703
-109.855
-108.033
-106.233
-104.454
-102.692
-100.947
-99.218
-97.5078
12792.4
12568.1
12272.4
11816.8
11137.7
10271
9270.71
8209.39
7149.43
6120.29
5123.01
4150.34
3205.01
2302.69
1471.05
760.172
242.406
-36.3693
-113.607
-97.447
-67.9573
-39.928
-4.75097
34.6483
66.9229
84.2316
86.5433
78.5851
64.8342
48.7367
32.0352
15.3626
-1.29039
-17.8337
-33.8741
-48.7463
-61.6898
-72.0895
-79.7086
-84.6349
-87.1358
-87.3993
-85.9469
-83.2408
-79.5814
-75.2149
-70.3531
-65.1694
-59.7932
-54.3156
-48.8019
-43.3054
-37.8776
-32.5738
-27.4531
-22.5755
-17.9966
-13.7639
-9.91309
-6.46748
-3.43809
-0.825195
1.37971
3.192
4.63227
5.72499
6.49746
6.97883
7.19924
7.18911
6.97856
6.5968
6.07177
5.43088
4.70173
3.90794
3.07061
2.20533
1.34412
0.530302
-16906.1
-16252.7
-15400.2
-14431.8
-13352.7
-12258.5
-11157.6
-10025.3
-8828.25
-7565.82
-6290.62
-5085.35
-4025.31
-3159.71
-2506.97
-2051.36
-1746.41
-1534.56
-1374.52
-1251.35
-1161.46
-1095.38
-1037.66
-976.614
-909.173
-839.651
-772.504
-708.902
-647.522
-587.095
-527.579
-470.073
-416.077
-366.8
-322.834
-284.206
-250.596
-221.56
-196.594
-175.131
-156.643
-140.629
-126.62
-114.188
-103.022
-92.8853
-83.5965
-75.0239
-67.0715
-59.6696
-52.7684
-46.3328
-40.3394
-34.7739
-29.6286
-24.9002
-20.5868
-16.6865
-13.1956
-10.1076
-7.41274
-5.09827
-3.14854
-1.54552
-0.269256
0.701735
1.39017
1.81973
2.01481
2.0003
1.80135
1.44308
0.950462
0.348746
-0.336565
-1.08317
-1.87094
-2.68433
-3.4811
-4.18999
-3222.61
-3247.71
-3296.22
-3376.03
-3490.54
-3659.94
-3901.29
-4208.63
-4537.3
-4816.63
-4981.67
-5001.58
-4886.41
-4670.68
-4394.91
-4092.69
-3786.17
-3488.56
-3208.15
-2949.89
-2714.89
-2500.33
-2299.58
-2105.18
-1912.99
-1723.32
-1539.6
-1364.85
-1200.08
-1045.11
-900.091
-766.265
-645.836
-540.946
-452.577
-379.738
-320.382
-272.216
-233.067
-200.996
-174.467
-152.426
-133.809
-117.832
-103.953
-91.7623
-80.9497
-71.2855
-62.5992
-54.7632
-47.681
-41.2786
-35.4981
-30.2924
-25.6226
-21.4551
-17.7598
-14.5096
-11.6784
-9.24193
-7.17629
-5.4584
-4.06567
-2.97593
-2.16733
-1.61821
-1.30705
-1.21234
-1.31248
-1.58575
-2.01025
-2.56393
-3.2245
-3.96927
-4.7749
-5.61817
-6.48254
-7.35343
-8.18263
-8.87843
3945.13
3813.25
3652.83
3464.19
3220.66
2945.2
2651.87
2352.1
2045.48
1723.48
1384.83
1039.1
700.78
382.017
90.3351
-169.427
-393.434
-579.056
-725.298
-832.248
-900.505
-931.495
-928.41
-896.01
-841.073
-771.961
-697.883
-626.648
-563.021
-508.393
-461.726
-421.147
-384.927
-351.599
-319.962
-289.562
-260.341
-232.457
-206.192
-181.87
-159.633
-139.49
-121.379
-105.203
-90.8348
-78.1253
-66.9182
-57.0583
-48.3994
-40.8089
-34.1694
-28.3786
-23.3476
-18.999
-15.265
-12.0858
-9.40802
-7.18373
-5.36991
-3.92768
-2.82195
-2.02094
-1.49576
-1.22002
-1.16941
-1.32134
-1.65458
-2.14884
-2.78452
-3.54234
-4.40312
-5.34759
-6.35612
-7.40825
-8.48238
-9.55747
-10.6173
-11.6483
-12.6022
-13.3803
-2266.41
-1617.72
-769.742
25.1475
730.404
1273.62
1712.08
2066.08
2322.88
2479.03
2553.74
2574.19
2559.76
2518.78
2456.1
2376.65
2285.1
2184.78
2077.52
1963.84
1843.13
1714
1574.01
1421.87
1258.24
1086.52
912.189
742.489
584.877
445.472
328.019
233.504
160.468
105.847
66.0249
37.5658
17.5629
3.71647
-5.62972
-11.655
-15.2044
-16.8784
-17.1348
-16.3422
-14.8026
-12.7684
-10.4494
-8.01641
-5.60421
-3.3148
-1.22145
0.627097
2.20234
3.49188
4.49545
5.2215
5.68425
5.90135
5.89207
5.67601
5.27222
4.69875
3.97244
3.10897
2.12298
1.02828
-0.161814
-1.43426
-2.77592
-4.17334
-5.6125
-7.07856
-8.55565
-10.0264
-11.472
-12.8729
-14.2113
-15.4741
-16.6179
-17.5547
7677.66
7388.01
6993.63
6425.85
5565.24
4555.99
3601.04
2879.88
2410.84
2079.88
1788.73
1533.71
1357.15
1267.8
1236.72
1244.65
1280.77
1320.68
1343.16
1344.16
1325.1
1287.53
1234.9
1171.44
1100.42
1023.92
943.536
860.384
775.421
689.731
605.013
523.293
446.367
376.014
313.26
258.605
212.145
173.509
142.025
116.824
96.9669
81.5348
69.6674
60.5998
53.6772
48.3584
44.2094
40.8918
38.1483
35.7882
33.6743
31.7099
29.8292
27.9879
26.1571
24.3183
22.4599
20.575
18.66
16.7138
14.7367
12.7303
10.6973
8.64078
6.56479
4.47385
2.37312
0.268512
-1.83319
-3.92408
-5.99492
-8.03498
-10.0317
-11.9706
-13.8347
-15.6053
-17.2638
-18.7959
-20.1631
-21.3037
-1087.7
-957.431
-774.684
-561.609
-344.615
-139.095
46.3674
190.591
269.836
277.575
224.339
125.56
0.902271
-119.122
-204.417
-248.259
-268.47
-291.628
-330.037
-382.144
-440.066
-492.127
-524.078
-524.2
-489.715
-427.97
-351.234
-270.624
-193.343
-123.144
-61.7577
-9.50047
34.4223
70.66
99.3244
121.65
137.749
147.924
152.715
153.053
149.819
143.97
136.374
127.749
118.655
109.505
100.586
92.0796
84.0913
76.6668
69.8116
63.5045
57.7076
52.3736
47.4504
42.8846
38.6246
34.6221
30.8342
27.2235
23.7592
20.4165
17.1762
14.0239
10.9494
7.94589
5.00932
2.13823
-0.666622
-3.40226
-6.06351
-8.64285
-11.1304
-13.5136
-15.7774
-17.9047
-19.8765
-21.6702
-23.2569
-24.6072
-3091.2
-3105.31
-3124.64
-3131.88
-3134.46
-3126.53
-3109.8
-3087.49
-3063.92
-3041.83
-3019.05
-2989.68
-2946.29
-2882.15
-2793.66
-2682.3
-2552.29
-2403.97
-2237.68
-2050.79
-1844.03
-1626.6
-1410.09
-1199.82
-994.553
-793.29
-600.504
-423.698
-269.768
-142.387
-41.2155
36.4706
94.0223
134.712
162.232
178.978
187.559
189.926
187.622
181.943
173.971
164.582
154.456
144.098
133.866
123.992
114.612
105.787
97.5283
89.8153
82.612
75.8766
69.5664
63.6401
58.0583
52.7829
47.7775
43.008
38.4431
34.0555
29.8223
25.7253
21.751
17.8895
14.1345
10.4822
6.93052
3.47948
0.130507
-3.11326
-6.24686
-9.26314
-12.1525
-14.9026
-17.4986
-19.9231
-22.1571
-24.1782
-25.9566
-27.4966
-802.761
-801.55
-800.108
-784.934
-755.438
-711.035
-655.164
-587.641
-505.247
-403.728
-279.272
-129.788
44.1736
239.293
449.845
667.045
878.088
1069.35
1225.72
1321.42
1326.02
1234.45
1082.58
919.23
778.633
669.703
589.113
531.065
489.675
458.749
432.208
405.218
375.309
341.575
305.811
270.986
238.952
211.303
188.314
169.874
155.396
144.029
134.918
127.316
120.631
114.432
108.438
102.485
96.5073
90.5003
84.4992
78.5566
72.7257
67.0505
61.5595
56.2647
51.1631
46.2413
41.4799
36.8586
32.3594
27.9686
23.6777
19.4824
15.3823
11.3789
7.47566
3.67696
-0.0118394
-3.58426
-7.03232
-10.346
-13.513
-16.5177
-19.342
-21.9655
-24.3656
-26.5164
-28.3845
-29.978
5810.13
5883.45
5981.77
6051.15
6070.39
6016.01
5893.13
5719.39
5517.47
5308.49
5108.03
4922.4
4745
4559.06
4345.32
4086.33
3767.46
3379.48
2925.64
2431.39
1945.25
1520.56
1189.12
947.319
769.06
627.772
507.947
404.335
316.645
245.601
191.288
152.609
127.481
113.405
107.64
107.044
109.317
112.471
115.466
117.387
117.815
116.745
114.388
111.034
106.975
102.458
97.665
92.7254
87.7233
82.7126
77.7278
72.7917
67.9197
63.1218
58.403
53.7633
49.1981
44.6995
40.2587
35.8674
31.5204
27.2158
22.9557
18.7452
14.5918
10.5043
6.49208
2.56492
-1.26722
-4.99361
-8.60213
-12.0785
-15.4053
-18.5616
-21.5221
-24.258
-26.7369
-28.9236
-30.8168
-32.3842
-2482.35
-2678.28
-2980.32
-3333.34
-3750.57
-4128.18
-4439.84
-4676.07
-4824.57
-4862.42
-4769.99
-4561.54
-4293.27
-4031.6
-3803.52
-3589.69
-3366.43
-3128.64
-2880.76
-2626.88
-2366.97
-2098.3
-1818.87
-1529.13
-1234.19
-944.267
-672.882
-433.402
-236.873
-90.0928
7.03594
61.9175
86.4663
93.1853
91.8879
88.3273
84.9593
82.4119
80.6223
79.4061
78.6274
78.1797
77.9445
77.7758
77.5115
76.9959
76.1047
74.7573
72.9187
70.5938
67.8181
64.6487
61.1542
57.406
53.4722
49.4121
45.274
41.0941
36.8978
32.702
28.5175
24.3519
20.2112
16.101
12.0273
7.9971
4.01795
0.0986992
-3.75036
-7.51684
-11.1854
-14.7366
-18.1458
-21.3821
-24.4074
-27.1772
-29.6409
-31.7466
-33.5387
-34.9185
-11369.6
-11058.5
-10668.8
-10196.6
-9660.97
-9094.03
-8498.45
-7841.17
-7052.37
-6077.72
-4961.58
-3854.83
-2895.83
-2153.2
-1618.69
-1252.18
-1014.48
-869.583
-788.427
-749.342
-734.873
-730.788
-725.852
-711.93
-684.428
-642.283
-587.123
-521.969
-450.758
-378.051
-308.106
-244.124
-187.671
-138.714
-96.4143
-59.9648
-28.9133
-3.02095
17.9789
34.4972
47.0731
56.3039
62.7757
67.0172
69.4778
70.5224
70.4389
69.4501
67.7281
65.4083
62.6015
59.4025
55.8947
52.152
48.2403
44.2167
40.1285
36.013
31.8977
27.8011
23.7341
19.7022
15.7074
11.7497
7.82877
3.94541
0.102292
-3.69523
-7.43838
-11.1143
-14.7052
-18.1873
-21.5298
-24.6943
-27.6351
-30.3017
-32.6445
-34.6256
-36.0853
-37.0983
10601.4
10245.5
9762.31
9181.89
8486.33
7776.49
7085.81
6444.12
5874.23
5351.69
4820.2
4274.14
3759.82
3295.6
2864.76
2455.13
2067.58
1708.68
1385.16
1101.62
858.813
654.108
483.717
343.876
231.487
143.716
77.9742
31.0229
-0.494912
-19.6403
-29.0864
-31.1638
-27.8695
-20.8496
-11.4207
-0.641858
10.6293
21.6981
32.021
41.203
48.9914
55.2623
60.0001
63.2699
65.1885
65.909
65.5947
64.4018
62.4744
59.9306
56.8882
53.4707
49.7715
45.8717
41.8415
37.7398
33.6143
29.5016
25.428
21.4103
17.4575
13.5728
9.7556
6.00274
2.31025
-1.32507
-4.9043
-8.42484
-11.8796
-15.2562
-18.5359
-21.6931
-24.694
-27.4967
-30.0521
-32.3043
-34.2082
-35.7188
-36.8427
-37.4279
8025.71
7873.54
7687.88
7496.06
7272.54
7053.51
6788.58
6431.75
5978.55
5447.08
4864.11
4265.13
3684.27
3143.51
2654.58
2220.96
1839.21
1506
1223.63
995.698
821.455
695.149
607.153
545.309
498.672
460.004
425.67
394.726
366.962
341.928
318.744
296.793
275.715
255.313
235.558
216.524
198.348
181.158
165.038
150.064
136.275
123.671
112.213
101.808
92.2484
83.5311
75.6784
68.5915
62.1589
56.2859
50.87
45.8019
41.0053
36.4229
32.0132
27.7495
23.616
19.6041
15.7091
11.9279
8.25697
4.69187
1.22658
-2.14524
-5.42966
-8.63149
-11.7557
-14.7979
-17.7499
-20.5991
-23.3257
-25.9027
-28.2959
-30.4654
-32.3755
-33.9771
-35.2487
-36.126
-36.7019
-36.7992
-3093.26
-3266.73
-3568.74
-3979.32
-4461.92
-4840.64
-5029.4
-5019.27
-4843.54
-4537.12
-4130.73
-3653.54
-3131.85
-2588.61
-2045.48
-1523.92
-1044.45
-625.28
-278.171
-4.85442
202.481
358.236
479.759
579.948
658.305
709.972
734.475
735.476
717.596
685.577
644.392
598.28
550.428
502.975
457.009
412.754
369.917
328.13
287.355
248.007
210.846
176.726
146.359
120.18
98.3594
80.5504
66.191
54.7341
45.6081
38.2733
32.2569
27.1713
22.718
18.6821
14.9184
11.3371
7.88746
4.5445
1.29854
-1.85262
-4.90857
-7.86928
-10.7362
-13.5124
-16.2016
-18.8067
-21.3258
-23.7591
-26.1004
-28.3357
-30.444
-32.3968
-34.1588
-35.6893
-36.9394
-37.8723
-38.454
-38.6547
-38.473
-37.987
-10459.1
-10000.7
-9417.8
-8720.17
-7813.62
-6681.17
-5333.05
-3889.56
-2541.11
-1443.92
-644.503
-99.0847
258.632
478.835
594.786
632.109
613.118
556.402
478.117
392.923
313.881
251.444
210.953
189.438
180.326
175.077
166.095
149.715
126.969
101.715
78.0494
58.6928
44.0443
33.1487
24.5328
16.8867
9.62777
3.27414
-1.6209
-4.89554
-6.72399
-7.44183
-7.37996
-6.8113
-5.97629
-5.04245
-4.06876
-3.27558
-2.74461
-2.53822
-2.72111
-3.33144
-4.3696
-5.79965
-7.55861
-9.56922
-11.7522
-14.0352
-16.3587
-18.6769
-20.9581
-23.1828
-25.3407
-27.4283
-29.4461
-31.3956
-33.277
-35.0867
-36.8154
-38.4464
-39.9542
-41.3042
-42.4538
-43.3546
-43.958
-44.221
-44.1191
-43.6467
-42.8479
-41.8053
11385.1
11187.4
10921.5
10478.3
9743.24
8680.71
7326.2
5842.76
4443.99
3270.05
2348.06
1630.75
1046.75
539.037
76.6171
-347.1
-723.527
-1037.94
-1278.42
-1442.62
-1538.88
-1581.68
-1586.81
-1566.41
-1526.92
-1471.24
-1401.26
-1319.23
-1227.72
-1128.13
-1020.58
-905.619
-784.605
-662.088
-543.532
-433.491
-335.052
-250.496
-180.91
-126.103
-84.8254
-55.1722
-34.8757
-21.6312
-13.5072
-9.05429
-7.21861
-7.04804
-8.18594
-9.99446
-12.1745
-14.599
-17.1708
-19.8128
-22.462
-25.0655
-27.5803
-29.9751
-32.2302
-34.3372
-36.297
-38.117
-39.8091
-41.3862
-42.8601
-44.2393
-45.5269
-46.7195
-47.806
-48.7673
-49.5767
-50.2012
-50.6035
-50.7467
-50.5993
-50.1444
-49.3857
-48.3659
-47.1605
-45.789
-9860.43
-9615.95
-9291.02
-8875.49
-8365.66
-7789.6
-7167.51
-6506.8
-5807.6
-5066.24
-4279.03
-3455.48
-2619.13
-1805.7
-1061.55
-432.502
48.4433
379.42
591.979
731.764
834.014
910.558
951.764
940.792
868.128
737.827
565.801
374.247
186.746
23.0751
-104.787
-194.247
-249.932
-278.163
-284.776
-274.725
-252.814
-223.94
-192.592
-162.274
-135.232
-112.563
-94.41
-80.3261
-69.7599
-62.1436
-56.8955
-53.533
-51.2322
-49.8609
-49.2008
-49.0211
-49.1619
-49.5134
-50.0007
-50.5731
-51.1967
-51.8493
-52.5148
-53.182
-53.8422
-54.4884
-55.1139
-55.7118
-56.2736
-56.7883
-57.2414
-57.614
-57.8822
-58.0176
-57.988
-57.7593
-57.2992
-56.5813
-55.5908
-54.3303
-52.8158
-51.1113
-49.3368
-47.6807
3800.56
3859.26
3977.64
4145
4350.24
4519.67
4576.42
4460.75
4159.4
3713.97
3208.55
2738.69
2373.04
2135.3
2006.01
1932.6
1845.92
1687.33
1435.39
1112.19
765.507
444.171
182.398
-6.41592
-128.285
-202.114
-250.37
-289.365
-324.296
-351.964
-368.052
-371.256
-363.527
-347.542
-325.492
-299.314
-271.164
-243.144
-216.894
-193.394
-173.052
-155.831
-141.415
-129.377
-119.298
-110.827
-103.677
-97.5583
-92.4018
-88.0704
-84.4472
-81.4397
-78.9674
-76.9559
-75.3358
-74.0421
-73.0151
-72.2015
-71.5551
-71.0368
-70.6137
-70.2582
-69.9463
-69.6562
-69.3667
-69.0558
-68.6997
-68.2725
-67.7461
-67.0908
-66.2773
-65.2786
-64.0729
-62.6474
-61.0021
-59.1514
-57.1204
-54.9389
-52.6661
-50.4083
5435.75
5227.21
4959.95
4622.62
4180.6
3667.08
3082.63
2434.25
1751.55
1077.3
454.661
-80.1956
-498.609
-782.785
-937.746
-992.275
-993.188
-987.735
-1008.75
-1063.91
-1134.75
-1189.57
-1201.75
-1163.09
-1083.84
-981.727
-871.63
-763.319
-662.636
-572.715
-494.777
-428.619
-373.191
-326.566
-287.308
-254.302
-226.591
-203.654
-184.995
-170.012
-158.07
-148.561
-140.92
-134.678
-129.455
-124.954
-120.966
-117.343
-113.976
-110.785
-107.771
-104.942
-102.305
-99.8579
-97.5984
-95.519
-93.6102
-91.8605
-90.2575
-88.788
-87.4384
-86.194
-85.0389
-83.9552
-82.9222
-81.9159
-80.9086
-79.8689
-78.7628
-77.555
-76.2113
-74.702
-73.0053
-71.1116
-69.0267
-66.7736
-64.3856
-61.8962
-59.3696
-56.966
-0.899489
-2.55921
-3.72059
-4.44357
-4.85192
-5.00905
-4.98984
-4.85764
-4.67011
-4.46995
-4.28485
-4.12604
-3.98799
-3.85114
-3.6884
-3.47348
-3.18728
-2.81962
-2.37218
-1.89337
-1.38811
-0.894875
-0.439754
-0.0422253
0.283171
0.528585
0.693217
0.782286
0.805405
0.774877
0.704154
0.606516
0.493822
0.375259
0.256277
0.138185
0.0186687
-0.106891
-0.243809
-0.396826
-0.5695
-0.76421
-0.982502
-1.2256
-1.49494
-1.79264
-2.12159
-2.4849
-2.8847
-3.32068
-3.78946
-4.28579
-4.80539
-5.34784
-5.91798
-6.52502
-7.1802
-7.89382
-8.67271
-9.51805
-10.4239
-11.3762
-12.3532
-13.3266
-14.2641
-15.1328
-15.9023
-16.547
-17.0471
-17.3889
-17.5661
-17.5751
-17.4183
-17.1036
-16.6443
-16.0578
-15.3647
-14.5877
-13.7501
-12.8741
-11.98
-11.0852
-10.2039
-9.34693
-8.52207
-7.73441
-6.98694
-6.28094
-5.61637
-4.99224
-4.40687
-3.85828
-3.3444
-2.86321
-2.41286
-1.99179
-1.59872
-1.23267
-0.892898
-0.578887
-0.290312
-0.027053
0.210873
0.423418
0.610614
0.77263
0.909799
1.02277
1.11254
1.18015
1.22729
1.25561
1.2669
1.26298
1.24564
1.21652
1.17706
1.12841
1.07145
1.00679
0.934779
0.855534
0.768894
0.67445
0.57157
0.459423
0.336957
0.202855
0.055507
-0.106965
-0.286641
-0.485737
-0.706561
-0.951496
-1.22297
-1.52336
-1.85492
-2.21954
-2.61857
-3.05253
-3.52074
-4.02095
-4.549
-5.09863
-5.66143
-6.22696
-6.78301
-7.31601
-7.8116
-8.25526
-8.63314
-8.93289
-9.14449
-9.26083
-9.27817
-9.19647
-9.01945
-8.75423
-8.41084
-8.00146
-7.53965
-7.03943
-6.51448
-5.9775
-5.4397
-4.91056
-4.39774
-3.90712
-3.44298
-3.00812
-2.60412
-2.23149
-1.88992
-1.57852
-1.29598
-1.04083
-0.811535
-0.60658
-0.424511
-0.263933