/*--------------------------------*- C++ -*----------------------------------*\
| =========                 |                                                 |
| \\      /  F ield         | OpenFOAM: The Open Source CFD Toolbox           |
|  \\    /   O peration     | Version:  2012                                  |
|   \\  /    A nd           | Website:  www.openfoam.com                      |
|    \\/     M anipulation  |                                                 |
\*---------------------------------------------------------------------------*/
FoamFile
{
    version     2.0;
    format      ascii;
    class       volVectorField;
    location    "0.3";
    object      U;
}
// * * * * * * * * * * * * * * * * * * * * * * * * * * * * * * * * * * * * * //

dimensions      [0 1 -1 0 0 0 0];


internalField   nonuniform List<vector> 
42400
(
(1.80152 0.0351176 -1.09466e-16)
(1.29217 8.56641 -1.53144e-16)
(-11.6654 19.4743 1.56911e-16)
(-24.9864 33.8311 0)
(-33.9283 39.248 0)
(-33.9805 37.1733 2.78891e-19)
(-29.318 30.4662 0)
(-23.3418 21.9856 -2.42155e-19)
(-17.5276 12.5231 0)
(-12.7824 2.11986 -1.96595e-19)
(-10.2514 -8.44831 -1.66689e-19)
(-11.1712 -17.108 1.36326e-19)
(-15.9072 -22.0103 3.99357e-17)
(-23.3395 -23.2889 -4.08107e-17)
(-31.5447 -22.3563 7.53999e-20)
(-38.7635 -20.6056 0)
(-43.7245 -19.1328 0)
(-45.8268 -18.7489 0)
(-45.2126 -19.7037 0)
(-42.5885 -21.5977 0)
(-38.837 -23.4959 0)
(-34.7289 -24.4524 1.14471e-19)
(-30.6919 -24.0478 1.18459e-17)
(-26.8446 -22.4852 -3.40976e-18)
(-23.2229 -20.3004 -8.53623e-18)
(-19.874 -17.9834 3.41135e-20)
(-16.8503 -15.8309 2.06166e-20)
(-14.1758 -13.9694 -2.5791e-20)
(-11.8453 -12.4157 0)
(-9.83784 -11.1351 0)
(-8.13014 -10.0779 -1.55803e-18)
(-6.70757 -9.19569 1.57122e-18)
(-5.56984 -8.44457 -5.72234e-20)
(-4.72174 -7.78533 3.11502e-18)
(-4.14795 -7.18674 -3.05222e-18)
(-3.80359 -6.62508 0)
(-3.62661 -6.09305 0)
(-3.55311 -5.59653 0)
(-3.5244 -5.13952 0)
(-3.4981 -4.72221 4.55748e-18)
(-3.45193 -4.34484 -4.5726e-18)
(-3.3787 -4.00781 4.39745e-18)
(-3.28009 -3.71158 -3.86184e-19)
(-3.16228 -3.45606 -8.14665e-18)
(-3.03232 -3.23997 3.87982e-18)
(-2.89606 -3.06146 -3.57905e-18)
(-2.75746 -2.91863 7.2408e-18)
(-2.61765 -2.80779 -3.42897e-18)
(-2.47512 -2.72315 -2.17214e-19)
(-2.33006 -2.66159 3.24373e-18)
(-2.18447 -2.62224 -6.34458e-18)
(-2.03918 -2.60231 -3.01185e-19)
(-1.89402 -2.59703 3.36376e-18)
(-1.74949 -2.60156 -3.71552e-19)
(-1.60674 -2.61211 0)
(-1.46686 -2.62528 0)
(-1.33133 -2.63797 0)
(-1.20173 -2.6479 3.24822e-19)
(-1.07947 -2.6538 3.13715e-19)
(-0.965445 -2.65539 0)
(-0.859835 -2.65326 4.36339e-18)
(-0.761931 -2.64868 -4.57251e-18)
(-0.670001 -2.64332 -4.07254e-18)
(-0.581242 -2.63897 3.99644e-18)
(-0.491798 -2.6372 0)
(-0.396852 -2.63914 0)
(-0.29077 -2.64525 -3.53762e-18)
(-0.167306 -2.65515 3.45825e-18)
(-0.0198611 -2.66752 4.39992e-19)
(0.158214 -2.68009 0)
(0.373244 -2.68961 0)
(0.6308 -2.69202 3.87917e-19)
(0.935203 -2.68253 3.69489e-19)
(1.289 -2.65598 0)
(1.69243 -2.60718 3.30972e-19)
(2.14287 -2.53139 2.27648e-18)
(2.6352 -2.42435 -2.20755e-18)
(3.16449 -2.28058 -5.44612e-19)
(3.72801 -2.09688 -1.86319e-18)
(4.29252 -1.94222 -1.74144e-18)
(-0.955378 -1.44165 0)
(-14.1644 9.95342 5.30586e-17)
(-35.9347 22.499 -5.44972e-17)
(-40.961 24.3007 0)
(-29.3933 9.6333 0)
(-9.69472 -10.9955 4.45914e-17)
(8.32254 -28.9883 -4.59025e-17)
(18.9565 -38.8958 2.39715e-19)
(20.5081 -38.7324 0)
(14.0003 -29.2412 1.94422e-19)
(2.84443 -13.9666 1.64682e-19)
(-8.2526 1.54969 -1.34133e-17)
(-15.7192 13.1011 -3.42638e-19)
(-18.7438 19.759 1.47781e-17)
(-18.3158 22.4503 1.56698e-17)
(-15.8075 22.2847 -1.57805e-17)
(-12.2466 20.0784 0)
(-8.28377 16.4911 9.48731e-20)
(-4.32285 12.2397 0)
(-0.649714 7.91047 0)
(2.53225 3.88427 0)
(5.0686 0.418988 -1.88876e-18)
(6.84201 -2.30311 9.21083e-19)
(7.79601 -4.20858 6.09446e-19)
(7.9734 -5.34401 0)
(7.53708 -5.84941 9.33576e-20)
(6.71967 -5.93254 -2.0306e-20)
(5.75986 -5.81331 2.5472e-20)
(4.84965 -5.66012 2.81581e-19)
(4.10495 -5.55177 -2.84909e-19)
(3.55355 -5.48904 2.33948e-19)
(3.15202 -5.4372 2.27594e-19)
(2.8377 -5.34743 1.3556e-18)
(2.54689 -5.18396 -1.53169e-18)
(2.2304 -4.93142 -2.30647e-18)
(1.86357 -4.59443 2.42851e-18)
(1.44639 -4.19427 0)
(0.993398 -3.76255 -1.70853e-19)
(0.524848 -3.34091 0)
(0.0670455 -2.9575 -3.05475e-19)
(-0.358076 -2.63185 3.21381e-18)
(-0.735837 -2.37293 -3.51315e-18)
(-1.05663 -2.17937 2.48966e-19)
(-1.31188 -2.04186 -2.45639e-19)
(-1.49852 -1.95089 -1.10972e-20)
(-1.6212 -1.90032 -2.35727e-19)
(-1.68764 -1.88396 2.298e-19)
(-1.7064 -1.8957 3.32709e-18)
(-1.68651 -1.93143 -3.31978e-18)
(-1.63526 -1.98735 0)
(-1.55658 -2.05645 2.20221e-19)
(-1.45358 -2.13089 3.9596e-19)
(-1.32891 -2.20358 2.79116e-18)
(-1.18705 -2.27079 -2.77533e-18)
(-1.0339 -2.32887 -3.97615e-19)
(-0.873863 -2.3726 5.42591e-18)
(-0.711055 -2.39776 -6.11663e-18)
(-0.55024 -2.4028 -3.24654e-19)
(-0.396076 -2.38847 -3.13538e-19)
(-0.252283 -2.35751 5.08107e-18)
(-0.121121 -2.31434 -5.00062e-18)
(-0.0030202 -2.26462 2.82055e-19)
(0.1036 -2.21466 3.01747e-19)
(0.20237 -2.17076 0)
(0.298819 -2.13863 -3.70738e-18)
(0.400082 -2.12285 5.5844e-20)
(0.514507 -2.1265 4.56418e-18)
(0.651186 -2.15089 0)
(0.819448 -2.19541 -9.31949e-19)
(1.02831 -2.25749 4.75166e-19)
(1.28589 -2.33259 3.42432e-18)
(1.59877 -2.41428 -3.72288e-18)
(1.97128 -2.49443 -3.48644e-18)
(2.40467 -2.56344 3.43005e-18)
(2.89656 -2.61063 -7.08808e-19)
(3.44014 -2.62535 2.61851e-18)
(4.0245 -2.59761 -1.87252e-18)
(4.63764 -2.51743 5.44327e-19)
(5.26267 -2.38583 -2.71825e-18)
(5.80466 -2.32598 2.10065e-18)
(-20.8823 15.1755 -4.5745e-17)
(-45.6975 32.2572 -3.18877e-21)
(-55.9154 42.2089 3.68154e-19)
(-59.016 44.0989 1.82217e-20)
(-56.9969 44.3861 0)
(-49.9123 38.9671 -1.1582e-16)
(-36.8253 26.6734 2.26619e-16)
(-17.693 7.69164 -1.10701e-16)
(5.07845 -16.2463 9.26499e-17)
(26.2163 -40.4271 -1.1103e-17)
(39.52 -58.0444 -8.53093e-17)
(42.241 -64.8411 -3.17045e-19)
(36.5247 -62.1886 -2.69995e-19)
(26.2017 -54.1955 3.56873e-17)
(14.1238 -43.9776 -3.64109e-17)
(1.89267 -32.9591 -1.77709e-19)
(-9.11706 -22.1007 -3.84497e-18)
(-17.2529 -13.2301 6.21811e-18)
(-21.3673 -8.50136 -2.52969e-18)
(-21.8455 -7.97967 -9.77545e-20)
(-20.3972 -9.28997 1.46334e-19)
(-18.7568 -10.3895 1.9143e-19)
(-17.6815 -10.9628 0)
(-16.9654 -11.2945 -1.33254e-19)
(-16.2843 -11.603 -1.62293e-17)
(-15.4788 -11.987 3.22692e-17)
(-14.4667 -12.4637 -1.64293e-17)
(-13.1942 -13.0157 1.5675e-17)
(-11.6625 -13.6116 -1.58552e-17)
(-9.92994 -14.1847 -1.51559e-17)
(-8.09863 -14.6281 2.85081e-17)
(-6.29571 -14.8292 -6.85439e-19)
(-4.63662 -14.6928 -1.34933e-17)
(-3.21454 -14.1664 0)
(-2.08634 -13.2506 0)
(-1.26732 -11.9968 -1.92129e-19)
(-0.735897 -10.4974 0)
(-0.441583 -8.86584 -7.67222e-20)
(-0.320856 -7.22893 6.81477e-18)
(-0.308796 -5.69885 -1.30726e-17)
(-0.350363 -4.36462 6.45683e-18)
(-0.401235 -3.27582 0)
(-0.442627 -2.44712 0)
(-0.472083 -1.86391 4.51392e-18)
(-0.494821 -1.48756 -4.26096e-18)
(-0.512531 -1.26746 -2.55733e-19)
(-0.52294 -1.15679 0)
(-0.520295 -1.11837 0)
(-0.498513 -1.12766 3.81277e-18)
(-0.452772 -1.1691 -3.7942e-18)
(-0.37719 -1.22998 -2.20003e-19)
(-0.269676 -1.30327 0)
(-0.132724 -1.38488 -3.92826e-18)
(0.0327774 -1.46403 3.45062e-18)
(0.223921 -1.52939 -6.20615e-18)
(0.43242 -1.57211 6.49912e-18)
(0.646825 -1.58647 -5.83018e-18)
(0.856267 -1.56848 1.21165e-17)
(1.05102 -1.51747 -1.16913e-17)
(1.22336 -1.43691 1.23045e-19)
(1.36845 -1.33413 5.48365e-18)
(1.48513 -1.21948 5.17654e-18)
(1.57615 -1.10506 -5.38569e-18)
(1.64802 -1.00336 0)
(1.71055 -0.925788 4.10891e-18)
(1.776 -0.88162 -4.99646e-20)
(1.85811 -0.877246 -5.52255e-18)
(1.97108 -0.915826 0)
(2.12859 -0.99725 1.02838e-18)
(2.34294 -1.11829 3.50748e-18)
(2.62436 -1.27281 -3.37832e-18)
(2.98026 -1.45181 0)
(3.41444 -1.6435 0)
(3.926 -1.83322 -3.98951e-19)
(4.50807 -2.00398 3.77599e-19)
(5.14684 -2.13764 2.18046e-18)
(5.82141 -2.2167 -3.55316e-18)
(6.5064 -2.22642 0)
(7.17732 -2.15494 5.7869e-19)
(7.66777 -2.15541 2.24583e-18)
(6.35029 -1.95199 9.39329e-17)
(24.8065 -7.91319 -1.36415e-16)
(42.4161 -17.0751 6.79548e-17)
(57.5972 -19.6323 5.81214e-17)
(64.5825 -18.4453 -5.97209e-17)
(64.5035 -11.3781 0)
(55.325 1.42256 6.91006e-17)
(38.1219 17.7923 -7.03209e-17)
(18.7195 32.7 3.58837e-17)
(4.34244 41.1725 -3.67276e-17)
(-2.37099 41.8279 1.28235e-17)
(-4.09371 37.1709 -1.96908e-17)
(-4.36508 30.6764 6.80174e-18)
(-4.83365 24.4185 1.14067e-18)
(-5.88248 19.2823 -5.19569e-18)
(-7.58732 15.7439 3.06865e-18)
(-9.71544 13.872 2.07306e-18)
(-11.566 13.0357 -2.10778e-18)
(-12.2726 12.1543 9.14402e-20)
(-11.4396 10.5424 9.81139e-20)
(-9.36273 8.2649 2.29563e-19)
(-6.61263 5.69057 -1.30615e-17)
(-3.71997 3.08277 1.26482e-17)
(-1.07438 0.667792 2.51374e-19)
(0.986484 -1.35503 0)
(2.37307 -2.90593 2.72907e-19)
(3.23843 -4.14475 0)
(3.94037 -5.31291 1.82971e-17)
(4.80708 -6.59709 -7.07578e-19)
(5.99368 -8.04457 -1.78464e-17)
(7.46321 -9.56115 -1.64231e-17)
(9.05445 -10.9686 1.61305e-17)
(10.5626 -12.0647 1.53892e-19)
(11.7975 -12.6751 -2.20867e-19)
(12.6207 -12.6934 -1.09872e-17)
(12.9632 -12.0951 1.12157e-17)
(12.8229 -10.9296 0)
(12.2504 -9.30085 7.54535e-18)
(11.3322 -7.34634 -7.33145e-18)
(10.1713 -5.21991 3.88303e-19)
(8.87648 -3.0776 -2.01818e-19)
(7.55189 -1.06942 0)
(6.29285 0.681265 0)
(5.1799 2.08016 0)
(4.26261 3.08145 -2.13932e-19)
(3.55441 3.68802 4.16355e-18)
(3.03842 3.94451 -3.90225e-18)
(2.67903 3.92755 0)
(2.43664 3.7214 0)
(2.2824 3.39897 3.71338e-18)
(2.20376 3.01465 -3.46201e-18)
(2.20079 2.60346 3.65681e-18)
(2.27597 2.19509 -2.72424e-18)
(2.4238 1.81262 4.55432e-19)
(2.62746 1.47157 -3.04339e-18)
(2.8683 1.19191 3.87033e-18)
(3.12358 0.987246 -6.61372e-18)
(3.37013 0.864571 6.11482e-18)
(3.58743 0.823699 0)
(3.75991 0.856927 -3.83794e-19)
(3.87856 0.949495 -5.70152e-18)
(3.94162 1.08079 4.73202e-19)
(3.95471 1.22647 1.10181e-17)
(3.93011 1.36131 -9.97317e-18)
(3.88541 1.46233 4.37705e-18)
(3.84169 1.51144 4.81e-18)
(3.82143 1.49692 -3.54258e-18)
(3.84649 1.41362 -5.8078e-19)
(3.9363 1.26208 -4.40371e-18)
(4.1066 1.04718 4.32692e-18)
(4.36901 0.776978 -1.03631e-18)
(4.73094 0.462387 -4.5428e-18)
(5.19518 0.117726 3.91896e-18)
(5.75841 -0.238299 0)
(6.40856 -0.582161 -3.49133e-18)
(7.12219 -0.886625 9.01282e-19)
(7.8635 -1.12425 7.05268e-18)
(8.58719 -1.2757 -2.97194e-18)
(9.25899 -1.30734 2.63864e-18)
(9.68629 -1.40506 -2.55844e-18)
(-4.96849 2.52229 -6.11182e-18)
(-23.3865 6.96031 0)
(-41.5522 14.3957 0)
(-56.0002 10.9979 3.0536e-19)
(-59.7018 3.34428 0)
(-58.7321 -7.4812 0)
(-57.0951 -17.3581 0)
(-56.7404 -24.1421 -1.90673e-19)
(-57.4234 -27.6691 0)
(-57.8633 -28.8667 -2.41728e-19)
(-57.1728 -28.943 6.12175e-17)
(-55.1745 -28.6528 -1.25174e-16)
(-52.007 -28.1846 6.4257e-17)
(-47.7581 -27.478 0)
(-42.4911 -26.4571 -2.19996e-19)
(-36.2886 -25.0406 1.32662e-20)
(-29.3297 -23.1337 0)
(-21.9136 -20.6286 4.41644e-17)
(-14.4395 -17.4299 -8.62518e-17)
(-7.29601 -13.493 2.00977e-18)
(-0.689858 -8.87825 3.97796e-17)
(5.17124 -3.75291 3.89412e-19)
(10.0725 1.64306 0)
(13.762 7.09801 -3.66553e-17)
(16.0541 12.4121 3.76088e-17)
(17.0277 17.3018 -3.06029e-17)
(17.0593 21.4216 3.12251e-17)
(16.6651 24.4677 2.14429e-17)
(16.2337 26.2274 -2.14204e-17)
(15.9897 26.5978 0)
(16.0237 25.6241 -7.42446e-18)
(16.3219 23.4883 7.51265e-18)
(16.7981 20.5101 2.70602e-19)
(17.3225 17.1149 -1.81337e-19)
(17.725 13.7188 4.04207e-19)
(17.8392 10.6494 -1.09856e-19)
(17.5572 8.123 -5.65001e-20)
(16.8451 6.24654 1.46643e-19)
(15.7329 5.03863 -1.47374e-19)
(14.2932 4.4521 7.2413e-19)
(12.6243 4.39235 7.03955e-19)
(10.8384 4.73094 -1.54803e-18)
(9.05109 5.3251 0)
(7.36484 6.02672 2.39393e-19)
(5.86845 6.70623 -2.43262e-18)
(4.62774 7.25944 6.271e-18)
(3.67396 7.61447 -6.46116e-18)
(3.01787 7.75132 3.07412e-18)
(2.6479 7.68097 0)
(2.53635 7.43562 2.43254e-19)
(2.64628 7.06112 -3.69894e-18)
(2.93702 6.60516 3.68512e-18)
(3.36366 6.11402 1.37424e-20)
(3.88293 5.6318 -3.67844e-18)
(4.45078 5.19284 2.74988e-18)
(5.02425 4.8226 -3.55183e-18)
(5.56332 4.53821 -3.8311e-18)
(6.03333 4.35072 7.22705e-18)
(6.4069 4.26418 -6.42954e-18)
(6.66507 4.27445 6.71583e-18)
(6.799 4.36832 0)
(6.81137 4.5232 -3.52316e-19)
(6.71709 4.70754 -5.46464e-18)
(6.54262 4.88302 4.71025e-18)
(6.32316 5.00927 1.2906e-18)
(6.09805 5.05074 0)
(5.90554 4.98364 4.85046e-18)
(5.7786 4.8001 -4.14453e-18)
(5.74248 4.50707 -5.63393e-19)
(5.81462 4.12054 -5.56802e-19)
(6.00677 3.65887 1.07044e-18)
(6.32718 3.13953 -4.90166e-21)
(6.78098 2.57994 -4.5238e-18)
(7.3666 2.00104 3.91296e-18)
(8.06807 1.43045 -4.57961e-19)
(8.84846 0.902543 0)
(9.64724 0.453267 -4.01867e-18)
(10.3947 0.108401 3.11935e-18)
(11.0164 -0.0927885 0)
(11.41 -0.305839 -2.53288e-18)
(-14.9638 9.86334 -6.34004e-19)
(-40.2846 30.2097 -1.97759e-17)
(-60.3957 42.412 1.52856e-17)
(-67.2226 49.496 -2.86023e-17)
(-65.1967 48.0651 1.31875e-17)
(-58.4776 43.8354 -1.10299e-19)
(-50.9103 38.7806 6.70847e-18)
(-43.8667 33.6191 -6.92873e-18)
(-37.2044 28.4002 1.75574e-19)
(-30.2921 22.8837 4.30209e-19)
(-22.6154 16.8216 -1.00622e-18)
(-13.9628 10.1358 7.15602e-19)
(-4.376 2.93612 5.7891e-19)
(5.96236 -4.58207 3.55364e-18)
(16.6861 -12.1954 -8.85053e-18)
(27.3153 -19.5491 6.09431e-18)
(37.2412 -26.2115 0)
(45.7586 -31.7207 0)
(52.1593 -35.5872 -1.526e-17)
(55.857 -37.3541 -6.40726e-19)
(56.573 -36.798 1.64259e-17)
(54.2709 -33.959 -1.5832e-17)
(49.4051 -29.3539 3.09475e-17)
(42.6607 -23.7049 -1.52889e-17)
(34.801 -17.7004 -1.29835e-17)
(26.5527 -11.8423 1.16103e-18)
(18.5694 -6.44348 1.18395e-17)
(11.385 -1.73978 -8.02812e-20)
(5.41397 2.06263 5.53933e-20)
(0.971753 4.80625 -6.12096e-20)
(-1.75334 6.39911 0)
(-2.75023 6.86406 -2.80991e-18)
(-2.22903 6.37935 3.72242e-18)
(-0.600059 5.25177 -8.46932e-19)
(1.62061 3.83444 0)
(3.93451 2.43546 -3.73531e-18)
(5.9765 1.27639 3.77704e-18)
(7.54507 0.485015 0)
(8.56056 0.109361 0)
(9.0202 0.143384 -5.40852e-18)
(8.972 0.544462 5.52139e-18)
(8.5022 1.24257 -1.2664e-19)
(7.72469 2.14604 0)
(6.77414 3.16306 4.90849e-18)
(5.78068 4.19048 -4.23764e-19)
(4.86812 5.14755 -5.20658e-18)
(4.13792 5.98644 -2.834e-19)
(3.65485 6.66945 5.17261e-19)
(3.44269 7.16845 0)
(3.49813 7.48304 -4.34324e-18)
(3.79448 7.62985 8.06048e-18)
(4.28947 7.63919 -4.19072e-18)
(4.93341 7.55021 -4.70319e-19)
(5.66977 7.40052 -4.17603e-18)
(6.43828 7.22005 4.98495e-19)
(7.1842 7.03917 7.14195e-18)
(7.85851 6.88441 -2.6421e-18)
(8.42005 6.77743 0)
(8.83631 6.73324 0)
(9.08537 6.76086 4.05616e-19)
(9.15658 6.8625 3.95992e-19)
(9.05132 7.03234 0)
(8.78419 7.25502 5.3893e-18)
(8.38456 7.50362 -5.29565e-18)
(7.89764 7.73846 -5.99783e-18)
(7.38348 7.90949 -5.77206e-19)
(6.90978 7.96239 4.42015e-18)
(6.53921 7.85221 -4.75673e-18)
(6.31787 7.55882 4.64839e-18)
(6.26942 7.0907 4.02652e-21)
(6.40142 6.47844 3.70392e-18)
(6.71849 5.76306 -3.61457e-18)
(7.22665 4.98519 -3.42525e-18)
(7.92193 4.18222 4.28024e-18)
(8.77068 3.3911 -3.12371e-18)
(9.7007 2.65152 3.47713e-18)
(10.6049 1.99891 -3.18882e-18)
(11.3864 1.46563 6.07659e-18)
(11.9189 1.06071 -1.06876e-19)
(12.2657 0.737253 -1.07624e-19)
(-0.612567 0.400435 -9.66011e-18)
(-13.2866 10.095 1.27939e-20)
(-34.9922 25.011 1.80919e-17)
(-48.5654 37.6134 -3.87329e-17)
(-50.5751 43.2078 2.0678e-17)
(-46.1015 46.2677 -2.38042e-17)
(-39.8856 49.0865 -1.30809e-18)
(-34.2312 52.0714 2.52022e-17)
(-29.6477 54.5305 -2.67713e-17)
(-25.6373 55.7924 2.61834e-17)
(-21.4553 55.6384 -2.57907e-17)
(-16.6081 54.1804 2.60102e-17)
(-10.9856 51.5915 -2.37715e-17)
(-4.72211 47.9161 2.40233e-17)
(1.97689 43.086 -1.86187e-19)
(8.90127 37.0321 -1.82149e-19)
(15.9165 29.681 -3.46993e-17)
(22.9987 21.0376 3.53518e-17)
(30.0106 11.3716 3.49407e-19)
(36.3877 1.44728 -8.52157e-20)
(41.0759 -7.57172 -2.13651e-17)
(42.9919 -14.4863 2.16647e-17)
(41.85 -18.7822 0)
(38.1855 -20.611 -4.6563e-20)
(32.9787 -20.5058 0)
(27.166 -19.0548 0)
(21.486 -16.7618 -9.35629e-20)
(16.4494 -14.0032 -7.53259e-19)
(12.3622 -11.0484 8.888e-19)
(9.35564 -8.12974 4.24994e-18)
(7.43596 -5.45829 -4.23367e-18)
(6.52588 -3.19651 3.5923e-20)
(6.47296 -1.4558 -8.01159e-20)
(7.03768 -0.308771 0)
(7.94501 0.277888 -2.04857e-19)
(8.92755 0.444809 0)
(9.72496 0.344593 0)
(10.1291 0.125582 -1.85688e-19)
(10.0276 -0.0695453 0)
(9.4081 -0.140138 0)
(8.3561 -0.0370948 5.79807e-18)
(7.02769 0.241217 -5.46906e-18)
(5.60818 0.663437 0)
(4.27071 1.18485 0)
(3.14849 1.7613 0)
(2.32679 2.35904 -2.79834e-19)
(1.84077 2.93554 2.84575e-19)
(1.69229 3.45931 3.8622e-18)
(1.86215 3.91897 -4.11603e-18)
(2.30919 4.30846 3.8166e-18)
(2.97713 4.62465 -4.26611e-18)
(3.80005 4.86796 4.62124e-19)
(4.70782 5.03836 2.21814e-19)
(5.63512 5.1458 0)
(6.52131 5.20497 0)
(7.31308 5.23167 -3.00843e-18)
(7.96699 5.24239 -4.43585e-19)
(8.45121 5.2529 3.36449e-18)
(8.74635 5.27838 -3.34018e-18)
(8.84514 5.33211 3.29646e-18)
(8.75174 5.42463 6.07494e-18)
(8.48025 5.56204 -3.73079e-20)
(8.05401 5.74507 -1.19778e-17)
(7.50492 5.96679 6.03554e-18)
(6.87529 6.21212 3.60376e-19)
(6.21818 6.45524 6.68718e-19)
(5.59703 6.65972 5.1372e-18)
(5.08313 6.78492 -9.87429e-18)
(4.74921 6.79218 4.73913e-18)
(4.6609 6.65042 5.51692e-19)
(4.86975 6.34791 4.1065e-18)
(5.40083 5.89501 -4.49185e-18)
(6.23753 5.31957 0)
(7.31152 4.6613 -4.62058e-19)
(8.50525 3.96529 0)
(9.67208 3.27693 3.23894e-18)
(10.664 2.63119 -7.48737e-20)
(11.3827 2.06296 -2.97423e-18)
(11.7373 1.56069 2.04555e-18)
(11.897 1.18345 5.72061e-19)
(-7.88058 3.91389 3.75492e-17)
(-18.8425 4.28032 -5.64282e-17)
(-17.8882 9.20312 -2.37605e-20)
(-9.46871 4.98298 -4.91627e-17)
(11.2884 0.747331 5.03413e-17)
(36.1011 -5.15814 -3.83267e-17)
(52.239 -6.68185 7.2083e-17)
(51.1471 -1.59785 -3.26408e-17)
(37.482 5.72514 2.17334e-17)
(24.0754 9.70295 -2.14462e-17)
(18.0956 9.08541 0)
(18.0458 6.01945 5.11171e-19)
(19.6585 3.03565 -2.39841e-19)
(19.9224 1.63483 0)
(17.6739 2.0898 0)
(13.2437 3.84855 0)
(8.01076 5.84184 0)
(3.69877 6.91582 1.84527e-19)
(1.49998 6.302 0)
(1.56883 3.93436 -8.38021e-18)
(3.12731 0.376145 8.6784e-18)
(5.08614 -3.53903 1.80628e-17)
(6.66159 -7.08852 -1.83577e-17)
(7.51901 -9.86269 -1.73292e-17)
(7.68125 -11.7284 1.7793e-17)
(7.31515 -12.7467 -1.52186e-17)
(6.6191 -13.0817 1.5511e-17)
(5.73815 -12.9048 -1.24214e-17)
(4.78079 -12.3792 1.54351e-18)
(3.83558 -11.6382 1.11201e-17)
(2.98013 -10.7971 0)
(2.28132 -9.97022 1.13704e-19)
(1.78591 -9.25769 1.0646e-19)
(1.49396 -8.73297 0)
(1.35545 -8.42241 2.09486e-19)
(1.29785 -8.27993 0)
(1.25379 -8.21198 0)
(1.18271 -8.14064 4.99201e-18)
(1.08401 -8.02034 -9.52547e-18)
(0.986527 -7.82078 4.83781e-18)
(0.925627 -7.5191 4.71789e-18)
(0.927082 -7.10385 -4.85638e-18)
(1.0096 -6.57566 -1.32206e-19)
(1.18592 -5.94786 0)
(1.46386 -5.24373 4.69153e-18)
(1.84591 -4.49118 -4.13997e-18)
(2.32648 -3.72377 0)
(2.88985 -2.96954 0)
(3.51278 -2.25521 -3.59926e-18)
(4.16536 -1.60081 4.05645e-18)
(4.81367 -1.01985 4.12388e-18)
(5.422 -0.520462 -3.8571e-18)
(5.9553 -0.104368 -3.77018e-18)
(6.38317 0.232746 7.02447e-18)
(6.68393 0.499451 -3.47441e-18)
(6.84607 0.707612 -8.70108e-19)
(6.86826 0.871519 0)
(6.75743 1.00718 4.27793e-19)
(6.52591 1.13153 -2.93595e-18)
(6.18869 1.26147 6.20545e-18)
(5.76252 1.41278 -3.25989e-18)
(5.26683 1.59788 0)
(4.72663 1.82445 -3.89046e-19)
(4.17518 2.0929 0)
(3.65731 2.39695 -3.62184e-19)
(3.22732 2.72282 -3.3912e-19)
(2.94465 3.04961 -6.44631e-19)
(2.86886 3.3515 -4.86169e-18)
(3.04999 3.60105 4.17046e-18)
(3.51704 3.77215 -5.44948e-19)
(4.26987 3.84537 -4.07232e-18)
(5.27076 3.80898 4.94546e-18)
(6.44071 3.66019 -3.66777e-18)
(7.66403 3.40579 3.56606e-18)
(8.80428 3.06119 -3.73676e-18)
(9.7311 2.6484 2.8258e-18)
(10.3533 2.19276 2.99232e-18)
(10.6437 1.72293 -2.90152e-18)
(10.6314 1.25128 6.8659e-19)
(10.4646 0.861508 -6.46332e-19)
(1.7042 0.919516 3.12959e-17)
(21.239 -9.74329 4.73068e-17)
(59.5763 -27.3138 -9.62883e-17)
(98.2797 -47.9124 9.92919e-17)
(124.001 -60.5158 -5.11019e-17)
(121.588 -58.8677 -4.54005e-20)
(83.2202 -39.297 5.27595e-17)
(22.615 -10.3978 -1.04604e-16)
(-32.5521 13.2701 3.91994e-18)
(-63.2435 23.826 4.84548e-17)
(-69.0519 22.6917 -2.8728e-19)
(-59.9628 15.4335 -3.73374e-17)
(-46.3149 7.52955 3.80687e-17)
(-34.1681 2.08168 -2.96706e-17)
(-25.473 -0.358168 3.02292e-17)
(-19.9768 -0.42281 2.20297e-17)
(-16.6748 1.01336 -2.24344e-17)
(-14.4681 3.11634 -1.83018e-19)
(-12.3901 5.13247 0)
(-9.73317 6.448 -9.25767e-18)
(-6.2027 6.73863 9.41556e-18)
(-2.03628 6.03379 -4.50855e-20)
(2.17875 4.67251 3.27561e-18)
(5.76653 3.07852 -3.25923e-18)
(8.26804 1.57212 -2.26508e-19)
(9.57373 0.296775 0)
(9.85421 -0.739502 6.54321e-20)
(9.40675 -1.59723 -3.90798e-20)
(8.5416 -2.35027 1.22888e-18)
(7.52696 -3.05819 -1.28748e-18)
(6.56807 -3.75543 -8.42228e-19)
(5.79724 -4.44834 7.39381e-19)
(5.27549 -5.12264 -7.35166e-20)
(5.00621 -5.75488 -7.88385e-19)
(4.95119 -6.31859 2.0167e-18)
(5.04726 -6.78669 -1.29024e-18)
(5.22662 -7.13666 -2.1375e-18)
(5.43217 -7.35571 2.26178e-18)
(5.62375 -7.44093 9.76753e-21)
(5.77909 -7.39669 -1.33632e-19)
(5.89073 -7.23145 1.28561e-19)
(5.96194 -6.95606 -3.61778e-18)
(6.00239 -6.58354 2.06635e-20)
(6.02392 -6.1292 3.73318e-18)
(6.03733 -5.61078 -4.11594e-18)
(6.05026 -5.04787 3.84847e-18)
(6.06649 -4.46104 0)
(6.08573 -3.87085 4.13203e-18)
(6.10465 -3.29655 -4.0964e-18)
(6.11823 -2.75496 3.5926e-18)
(6.12175 -2.25971 -2.38638e-19)
(6.11188 -1.82065 -5.90611e-21)
(6.0871 -1.44343 -7.37356e-21)
(6.04724 -1.12939 -9.39184e-21)
(5.99238 -0.875398 -3.64964e-18)
(5.92142 -0.674082 2.11582e-19)
(5.8309 -0.514174 0)
(5.71496 -0.381225 -3.88013e-18)
(5.56662 -0.258554 2.98198e-18)
(5.38026 -0.128532 0)
(5.15482 0.0257638 -3.60232e-18)
(4.89687 0.218762 2.75429e-18)
(4.62272 0.460671 0)
(4.35903 0.755625 -3.62721e-19)
(4.14142 1.10036 0)
(4.01131 1.48353 -4.91535e-18)
(4.01078 1.88591 1.04701e-17)
(4.17579 2.28215 -4.88808e-18)
(4.52849 2.64329 5.76999e-19)
(5.06944 2.93907 5.45013e-19)
(5.77112 3.14025 -4.06408e-18)
(6.57477 3.22221 3.4694e-18)
(7.39379 3.16928 -4.64754e-19)
(8.12602 2.97823 -4.40696e-19)
(8.67673 2.6602 8.36062e-19)
(8.98885 2.24004 3.96928e-19)
(9.06732 1.75339 3.34566e-18)
(8.97543 1.23978 -5.49719e-20)
(8.8031 0.741389 -3.07871e-18)
(8.61453 0.309599 -6.54035e-19)
(-19.7965 9.38319 0)
(-54.5537 28.7997 -3.25307e-19)
(-67.4989 32.4821 1.55999e-19)
(-50.8637 25.343 -2.91007e-17)
(-27.3685 10.8998 5.50138e-17)
(-16.2224 1.99198 -4.63934e-17)
(-25.0753 3.32113 2.11776e-17)
(-49.2835 13.7988 0)
(-76.7021 28.1213 4.26083e-19)
(-94.0477 39.7481 3.25929e-18)
(-91.3713 42.6508 -3.04698e-18)
(-68.1206 35.1904 -9.883e-18)
(-35.3484 22.3101 2.14022e-17)
(-6.40211 10.4046 3.48467e-19)
(12.3847 2.33895 -2.35922e-19)
(21.6869 -2.02642 -1.13904e-17)
(24.7713 -3.75311 -2.02596e-19)
(24.5516 -3.83926 1.07119e-17)
(22.8874 -3.03027 -1.07138e-17)
(20.7963 -1.85948 3.88759e-21)
(18.7545 -0.643721 -1.629e-19)
(16.8722 0.439688 -2.4716e-19)
(15.0897 1.32515 7.38699e-18)
(13.2831 2.01176 -1.30678e-18)
(11.3658 2.54865 -6.32322e-18)
(9.32704 2.97509 -1.17081e-19)
(7.23843 3.27236 3.56729e-18)
(5.23362 3.36735 -6.25561e-18)
(3.46608 3.16228 4.31963e-18)
(2.06831 2.56931 -1.7169e-18)
(1.12967 1.54556 0)
(0.68763 0.130169 -1.51512e-18)
(0.723361 -1.53809 4.21004e-18)
(1.16439 -3.25499 -2.68133e-18)
(1.89744 -4.82216 4.20672e-18)
(2.78727 -6.10366 -4.6233e-18)
(3.70283 -7.04409 -1.11798e-19)
(4.54806 -7.65353 0)
(5.27252 -7.97793 4.76034e-20)
(5.86404 -8.07625 -5.05536e-18)
(6.33268 -8.00371 5.37769e-18)
(6.69565 -7.80473 -1.62354e-19)
(6.96926 -7.51271 1.58271e-19)
(7.16658 -7.15257 0)
(7.2979 -6.74363 0)
(7.37182 -6.3016 4.33337e-18)
(7.39621 -5.83986 -4.90685e-18)
(7.3787 -5.36982 -2.60152e-19)
(7.32673 -4.90088 -4.31358e-18)
(7.24719 -4.44021 8.78452e-18)
(7.14596 -3.99264 -3.92999e-18)
(7.02749 -3.56083 0)
(6.89466 -3.1456 4.21895e-18)
(6.74901 -2.7467 -3.92858e-18)
(6.59134 -2.3635 0)
(6.42248 -1.99544 3.93444e-18)
(6.24394 -1.64199 -3.66111e-18)
(6.05831 -1.30229 3.52005e-18)
(5.86927 -0.974485 -3.03639e-18)
(5.68162 -0.655141 0)
(5.50137 -0.339242 8.10962e-19)
(5.3362 -0.0208861 3.90781e-19)
(5.19622 0.30525 -2.98486e-18)
(5.09443 0.641997 4.24527e-19)
(5.04649 0.987736 2.80969e-18)
(5.06904 1.33493 0)
(5.1764 1.66964 3.16954e-19)
(5.37595 1.97221 0)
(5.66327 2.21907 0)
(6.01788 2.38557 -4.31607e-18)
(6.40139 2.44991 4.20756e-18)
(6.76043 2.39779 3.39068e-18)
(7.03783 2.22665 3.68174e-19)
(7.19329 1.94838 -3.14533e-18)
(7.22767 1.58864 -3.74116e-18)
(7.19313 1.18205 3.22709e-18)
(7.16929 0.764939 -3.77547e-19)
(7.21413 0.370071 -2.87242e-18)
(7.33003 0.0237482 6.21597e-18)
(7.47158 -0.265348 -2.01744e-18)
(4.42084 -3.06237 -9.85139e-17)
(11.7192 -4.53727 7.3651e-17)
(19.973 -3.61566 7.12903e-17)
(27.7931 -1.32759 -7.26746e-17)
(34.3058 1.62178 -1.59566e-19)
(38.4678 3.95405 -1.58252e-19)
(39.7645 5.83508 0)
(37.972 8.11011 -4.95948e-17)
(33.368 11.3188 5.06869e-17)
(26.8953 15.5151 0)
(19.7585 20.1262 3.0797e-17)
(13.1392 24.0041 -5.64927e-17)
(8.03176 25.7614 4.76597e-18)
(4.89213 24.6789 3.81584e-17)
(3.43661 21.1862 -1.77681e-17)
(2.93765 16.3132 -2.02823e-19)
(2.68978 11.018 1.63428e-19)
(2.2912 5.92351 0)
(1.65734 1.31013 -1.25876e-17)
(0.891067 -2.76533 1.26327e-17)
(0.162082 -6.30557 1.33273e-19)
(-0.39456 -9.33133 -8.54929e-18)
(-0.751979 -11.8721 8.97096e-18)
(-0.990328 -13.9263 -5.13713e-18)
(-1.2654 -15.4328 5.27191e-18)
(-1.76807 -16.2763 1.14683e-19)
(-2.66392 -16.3233 4.1081e-19)
(-4.05822 -15.5237 1.64749e-18)
(-5.95861 -13.9721 -5.51308e-18)
(-8.17638 -11.8892 -8.81571e-19)
(-10.2365 -9.61907 4.25711e-18)
(-11.4607 -7.59966 4.80448e-18)
(-11.2831 -6.20559 -4.96527e-18)
(-9.5847 -5.57793 0)
(-6.77202 -5.59619 1.91479e-19)
(-3.53073 -5.99472 1.89255e-19)
(-0.479458 -6.53034 0)
(2.03576 -7.04479 6.04795e-18)
(3.94419 -7.45203 -6.25851e-18)
(5.3273 -7.73229 -1.71288e-19)
(6.309 -7.89611 0)
(6.9987 -7.95738 1.62308e-19)
(7.47445 -7.9273 4.99605e-18)
(7.78716 -7.81495 -4.99745e-18)
(7.97019 -7.62909 0)
(8.04753 -7.37949 -4.29037e-18)
(8.03907 -7.0773 5.01948e-18)
(7.96339 -6.73463 0)
(7.83867 -6.36365 0)
(7.68227 -5.97553 -2.7198e-19)
(7.5096 -5.57948 -2.6629e-19)
(7.33296 -5.18193 0)
(7.16068 -4.7862 3.8708e-18)
(6.99685 -4.39312 -4.08815e-18)
(6.84207 -4.00166 -3.91974e-18)
(6.69465 -3.6099 3.06209e-19)
(6.55209 -3.21604 7.47087e-18)
(6.41238 -2.81912 -7.24839e-18)
(6.2749 -2.41937 -3.72733e-19)
(6.14086 -2.01827 3.00086e-18)
(6.01335 -1.6184 -4.07679e-19)
(5.89707 -1.22334 0)
(5.79777 -0.837641 0)
(5.72154 -0.46713 2.89404e-18)
(5.67363 -0.119232 -3.18853e-18)
(5.65697 0.196706 0)
(5.67038 0.469522 3.22572e-19)
(5.70689 0.687061 0)
(5.75302 0.837898 2.30839e-18)
(5.79045 0.913898 -2.2526e-18)
(5.80184 0.913066 5.33633e-19)
(5.78157 0.84162 4.47297e-18)
(5.74843 0.713852 -3.86956e-18)
(5.74909 0.54919 4.59567e-19)
(5.83991 0.368042 0)
(6.05259 0.188471 0)
(6.37158 0.0239958 0)
(6.74295 -0.117671 -3.32813e-18)
(7.10382 -0.236729 -2.99427e-19)
(7.40737 -0.341782 5.43871e-18)
(22.2502 -9.37882 1.62613e-17)
(77.8535 -24.1463 2.06967e-17)
(119.532 -46.3817 -2.11998e-17)
(138.629 -52.8775 1.51009e-17)
(132.255 -54.5106 -1.57762e-17)
(105.882 -47.5224 -2.88368e-19)
(66.6213 -35.5131 -2.61457e-19)
(26.2822 -22.8494 0)
(-6.3931 -12.7948 -1.55501e-19)
(-29.4418 -6.30875 0)
(-44.6009 -2.80777 -1.7085e-19)
(-53.8503 -1.44429 -9.55116e-18)
(-58.5757 -1.61229 9.61027e-18)
(-59.7985 -2.92038 1.01138e-17)
(-58.3178 -5.05483 -1.00965e-17)
(-54.7885 -7.68365 1.03475e-17)
(-49.8189 -10.5078 -1.09346e-17)
(-43.9937 -13.2891 0)
(-37.8155 -15.8144 0)
(-31.6675 -17.9555 0)
(-25.8236 -19.6666 -7.69812e-18)
(-20.4747 -20.9387 1.47593e-17)
(-15.7239 -21.8088 -1.00895e-18)
(-11.587 -22.3495 -1.11962e-17)
(-8.01142 -22.6409 5.29731e-18)
(-4.93179 -22.7361 0)
(-2.32406 -22.6466 5.8032e-20)
(-0.220987 -22.3491 0)
(1.32792 -21.8122 -2.7479e-18)
(2.3504 -21.0075 2.74145e-18)
(3.00548 -19.946 6.42236e-20)
(3.50021 -18.7191 0)
(3.98054 -17.4563 2.1425e-18)
(4.4979 -16.2759 -4.15581e-18)
(5.03311 -15.2493 2.12572e-18)
(5.5529 -14.3983 -2.2228e-18)
(6.05037 -13.7023 4.56767e-18)
(6.5332 -13.1299 -2.34401e-18)
(7.00718 -12.6533 0)
(7.4698 -12.2362 0)
(7.90845 -11.8447 0)
(8.30497 -11.4538 2.63149e-18)
(8.6411 -11.0477 -8.0518e-18)
(8.90223 -10.6175 5.25711e-18)
(9.0795 -10.1595 0)
(9.17077 -9.67435 -5.23056e-18)
(9.18066 -9.16568 5.06319e-18)
(9.11972 -8.63969 4.87518e-18)
(9.00282 -8.10416 -4.01528e-19)
(8.84684 -7.56743 -9.35274e-20)
(8.66813 -7.03736 -9.32782e-20)
(8.48021 -6.52036 -4.48774e-18)
(8.29235 -6.02082 0)
(8.10912 -5.54084 0)
(7.93105 -5.08046 -3.76172e-18)
(7.75603 -4.63828 3.97901e-18)
(7.58088 -4.21209 0)
(7.40273 -3.79965 0)
(7.21981 -3.39923 2.23611e-19)
(7.0318 -3.01006 4.27067e-19)
(6.83969 -2.63257 0)
(6.64541 -2.26844 0)
(6.45133 -1.92061 -3.84475e-19)
(6.25972 -1.59303 -3.69314e-19)
(6.07234 -1.29036 3.15294e-18)
(5.89036 -1.01742 -5.42642e-18)
(5.71477 -0.778383 -2.66001e-19)
(5.54797 -0.575905 4.96717e-18)
(5.3967 -0.410407 -5.04132e-18)
(5.27574 -0.279788 4.52666e-18)
(5.20975 -0.179762 -8.5337e-19)
(5.22916 -0.104556 -2.07818e-18)
(5.35852 -0.0478805 3.87028e-18)
(5.60271 -0.00445789 -7.22398e-20)
(5.94053 0.0280943 -7.08356e-18)
(6.33097 0.0485044 3.82554e-18)
(6.72794 0.0535584 0)
(7.09454 0.0411609 7.58309e-19)
(7.40859 0.0108433 0)
(7.65733 -0.03612 -2.7348e-18)
(-6.97481 3.14456 0)
(-29.8803 16.5464 -2.34127e-20)
(-50.3323 18.554 2.62113e-20)
(-40.9708 16.7282 -6.88869e-17)
(-17.7841 6.69904 1.35197e-16)
(-0.287926 0.106009 -6.55016e-17)
(5.07289 -1.57826 2.61007e-19)
(1.54265 0.868348 0)
(-5.82867 5.80839 0)
(-13.852 11.8666 0)
(-21.1091 18.1456 1.68205e-19)
(-26.9148 24.0437 9.73371e-20)
(-30.7847 29.1531 0)
(-32.3363 33.1893 8.96246e-20)
(-31.4309 35.969 -2.87181e-20)
(-28.3499 37.495 1.54492e-17)
(-23.8088 37.8787 -1.53344e-17)
(-18.6762 37.2686 -2.18356e-19)
(-13.5996 35.8894 0)
(-8.8996 33.9377 1.99582e-19)
(-4.74049 31.5631 -1.07878e-19)
(-1.28977 28.7879 3.34262e-18)
(1.35931 25.6831 -1.17714e-18)
(3.32902 22.3657 -2.01383e-18)
(4.89751 18.9346 -8.32836e-20)
(6.27308 15.4697 1.14106e-19)
(7.42518 12.0771 -3.9905e-19)
(8.13408 8.89122 -6.69786e-20)
(8.22199 6.03688 1.88211e-19)
(7.73629 3.56129 4.54805e-20)
(6.94295 1.42313 4.60405e-20)
(6.14561 -0.45776 -1.10907e-18)
(5.57088 -2.12498 1.12058e-18)
(5.3285 -3.60839 2.06917e-19)