/*--------------------------------*- C++ -*----------------------------------*\
| =========                 |                                                 |
| \\      /  F ield         | OpenFOAM: The Open Source CFD Toolbox           |
|  \\    /   O peration     | Version:  2012                                  |
|   \\  /    A nd           | Website:  www.openfoam.com                      |
|    \\/     M anipulation  |                                                 |
\*---------------------------------------------------------------------------*/
FoamFile
{
    version     2.0;
    format      ascii;
    class       volScalarField;
    location    "0.13";
    object      p;
}
// * * * * * * * * * * * * * * * * * * * * * * * * * * * * * * * * * * * * * //

dimensions      [0 2 -2 0 0 0 0];


internalField   nonuniform List<scalar> 
42400
(
3541.11
3455.73
3407.29
3390.74
3347.51
3246.69
3079.2
2862.29
2619.02
2364.67
2107.11
1854.6
1617.69
1403.18
1207.25
1018.34
829.121
644.052
475.171
332.305
220.266
138.712
84.5891
54.0826
43.7052
49.7352
67.3171
90.2637
112.595
129.77
139.61
141.944
137.665
128.205
115
99.376
82.8273
66.4865
51.142
37.2909
25.4261
15.8401
8.20744
2.25486
-2.17999
-5.25876
-7.15457
-8.05922
-8.16301
-7.63676
-6.63329
-5.28954
-3.72367
-2.03488
-0.305001
1.39936
3.02444
4.52699
5.87245
7.03353
7.98911
8.72412
9.23023
9.50524
9.55349
9.38593
9.01981
8.47738
7.78411
6.96623
6.04868
5.05374
4.00079
2.90624
1.78272
0.637527
-0.527754
-1.72005
-2.92371
-4.3219
-1985.43
-1565.67
-995.191
-386.498
252.48
841.321
1384.34
1884.53
2332.14
2713.62
3020.3
3250.36
3406.19
3490.35
3503.72
3449.2
3336.67
3182.64
3005.82
2822.98
2644.4
2474.36
2313.2
2158.71
2006.81
1852.45
1690.42
1515.92
1328.03
1133.42
941.904
765.078
609.859
478.291
369.776
282.461
213.355
159.629
118.57
87.4442
64.2457
46.815
33.754
24.147
17.2182
12.3335
8.99253
6.82236
5.55247
4.97647
4.92998
5.28014
5.9195
6.75981
7.72691
8.75766
9.79806
10.8018
11.7287
12.5466
13.2275
13.7341
14.0639
14.2038
14.147
13.8946
13.4555
12.8455
12.0874
11.2081
10.2369
9.20136
8.12429
7.02238
5.90687
4.78647
3.67189
2.57504
1.53555
0.410877
3575.08
3490.73
3335.19
3086.38
2728.1
2356.78
2006.94
1696.26
1435.18
1223.73
1061.11
943.605
862.652
806.002
762.386
723.354
684.116
642.704
597.453
544.407
476.856
387.917
274.977
143.739
5.4934
-125.143
-232.289
-301.791
-325.43
-304.509
-252.194
-187.676
-126.643
-77.1764
-41.4568
-18.4965
-5.69767
-0.108757
0.989044
-0.231819
-2.24404
-4.1166
-5.38022
-5.88062
-5.63519
-4.75382
-3.3834
-1.67657
0.227903
2.21598
4.19842
6.1102
7.90808
9.56605
11.0707
12.4163
13.6048
14.6401
15.4978
16.2026
16.7509
17.1515
17.3846
17.4472
17.3386
17.0613
16.6219
16.0322
15.3076
14.4663
13.5277
12.5121
11.4396
10.3305
9.20536
8.0855
6.99332
5.95163
4.99065
4.04927
-13345.6
-12853.2
-12233.2
-11559.8
-10832.1
-10094.1
-9347.36
-8598.71
-7855.48
-7116.19
-6378.58
-5640.99
-4906.05
-4181.04
-3476.28
-2804.37
-2178.78
-1611.35
-1111.62
-687.54
-345.247
-89.6315
75.9742
151.495
144.911
75.4789
-28.3406
-136.172
-224.297
-282.338
-313.162
-325.497
-326.746
-320.584
-307.601
-287.307
-259.983
-227.432
-192.593
-158.377
-126.842
-99.0924
-75.4645
-55.8106
-39.7345
-26.7453
-16.3523
-8.10728
-1.61884
3.44598
7.36711
10.3774
12.6686
14.4013
15.7069
16.658
17.3538
17.8595
18.2478
18.5264
18.7177
18.833
18.8724
18.829
18.6917
18.4473
18.0841
17.5938
16.9738
16.2284
15.3692
14.4142
13.3869
12.3146
11.2261
10.1502
9.11393
8.14117
7.25544
6.41866
8177.38
7945.09
7641.27
7224.49
6671.74
6014.33
5283.51
4507.14
3709.61
2918.75
2163.63
1466.86
840.593
289.103
-187.506
-592.098
-929.61
-1205.05
-1421.92
-1582.48
-1688.34
-1742.13
-1747.9
-1711.2
-1640.29
-1544.7
-1431.8
-1304.14
-1159.62
-996.49
-819.783
-641.712
-475.481
-330.198
-211.22
-121.479
-60.1124
-21.8903
0.289958
12.6483
19.4748
23.2403
25.2784
26.3294
26.8609
27.1284
27.2296
27.1763
26.9474
26.5151
25.8986
25.1285
24.2238
23.2513
22.2993
21.4162
20.5989
19.8613
19.2221
18.6939
18.2827
17.9847
17.7847
17.6552
17.5586
17.4509
17.2871
17.0274
16.6425
16.1174
15.453
14.6647
13.78
12.8341
11.8652
10.9101
10.0002
9.16142
8.40875
7.74123
2030.78
1995.78
1950.28
1924.93
1947.66
2052.58
2234.33
2458.9
2687.53
2892.95
3065.14
3201.41
3297.44
3347.15
3345.85
3291.49
3184.39
3027.75
2827.18
2591.08
2329.38
2052.11
1769.72
1491.67
1225.81
978.89
756.453
562.94
401.486
273.257
176.997
109.375
65.7639
40.5391
27.2162
19.7075
14.2265
9.77629
6.89189
6.17244
7.59526
10.599
14.3769
18.2573
21.8948
24.9021
27.053
28.3649
28.9083
28.8233
28.238
27.2742
26.0559
24.6456
23.0729
21.4297
19.8005
18.2634
16.8885
15.736
14.85
14.2523
13.9348
13.8594
13.96
14.1517
14.3445
14.4564
14.4264
14.2206
13.8346
13.2891
12.6235
11.8866
11.1278
10.3906
9.70732
9.1012
8.57428
8.1708
-453.84
-256.73
13.3125
312.177
645.826
943.685
1181.73
1357.35
1481.06
1565.5
1618.7
1645.53
1650.51
1637.59
1608.77
1564.48
1505.45
1434.57
1357.83
1283.38
1217.36
1161.01
1110.56
1060.55
1006.16
944.651
875.737
801.182
723.933
646.866
571.976
500.355
432.604
369.264
311.087
259.276
214.873
178.397
149.501
127.145
110.024
96.9082
86.7751
78.8168
72.2796
66.7155
61.7631
57.0482
52.3684
47.6753
43.0105
38.451
34.069
29.9159
26.0237
22.417
19.1269
16.1993
13.693
11.6685
10.1727
9.22212
8.78866
8.79516
9.12197
9.62465
10.158
10.5998
10.8671
10.9236
10.7754
10.4619
10.0408
9.57453
9.11749
8.70852
8.36813
8.10239
7.89971
7.80108
3299.04
3125.86
2885.03
2578.63
2203.49
1812.59
1430.94
1076
761.846
498.26
290.993
142.586
54.0486
23.6352
46.7073
117.212
225.454
355.911
489.523
606.257
689.451
729.433
727.141
693.92
646.822
600.431
561.504
530.322
504.404
481.09
457.172
430.568
400.443
367.243
332.028
296.116
261.064
228.249
198.612
172.623
150.353
131.562
115.819
102.612
91.4209
81.7675
73.249
65.5594
58.4962
51.9462
45.8572
40.2039
34.9626
30.1006
25.5836
21.3922
17.5309
14.0436
11.0012
8.4933
6.59996
5.36289
4.76307
4.7118
5.06108
5.63173
6.24978
6.77846
7.13636
7.29952
7.29108
7.16446
6.98498
6.81337
6.6937
6.6476
6.67559
6.76312
6.89218
7.05858
-8129.66
-7739.37
-7243.27
-6702.22
-6090.3
-5459
-4817.73
-4195.06
-3626.36
-3133.09
-2718.96
-2375.51
-2089.06
-1845.42
-1632.35
-1440.43
-1262.76
-1093.63
-928.336
-764.475
-601.963
-442.453
-289.404
-148.395
-26.406
71.3908
145.442
201.228
244.161
275.994
297.126
307.795
309.011
302.301
289.617
272.816
253.322
232.291
210.767
189.539
169.16
150.019
132.36
116.283
101.773
88.7555
77.1201
66.7516
57.5424
49.3958
42.2181
35.9067
30.3421
25.3919
20.928
16.8457
13.0951
9.79327
6.88266
4.47297
2.67224
1.53944
1.06311
1.14936
1.63719
2.33614
3.07054
3.71304
4.19791
4.51593
4.6986
4.79922
4.87549
4.97558
5.1294
5.34592
5.61655
5.92305
6.24887
6.55627
133.024
55.8211
-86.2628
-330.594
-670.481
-1049.16
-1392.46
-1659.67
-1848.65
-1966.16
-2017.51
-2010.9
-1958.23
-1872.18
-1765.07
-1648.25
-1529.98
-1413.69
-1298.42
-1181.17
-1057.99
-927.252
-790.717
-653.632
-523.639
-408.308
-312.413
-236.558
-178.232
-134.066
-101.011
-76.2904
-57.7004
-43.4262
-32.1568
-22.916
-15.0929
-8.40554
-2.83179
1.66844
5.17775
7.78607
9.64808
11.1066
12.0633
12.6106
12.8884
12.9773
12.9244
12.7519
12.4522
11.9878
11.3014
10.335
9.05376
7.47005
5.6518
3.61931
1.67004
-0.0110262
-1.25434
-1.93875
-2.03642
-1.62183
-0.847385
0.104479
1.07069
1.93924
2.65698
3.21969
3.65467
4.00342
4.30806
4.60232
4.90704
5.22985
5.5682
5.91469
6.25787
6.56742
5207.89
5197.52
5209.92
5234.01
5251.65
5237.67
5155.47
4985.01
4735.2
4439.57
4135.28
3844.15
3570.8
3311.41
3060.31
2811.95
2561.9
2307.91
2051.26
1796.77
1549.95
1316.57
1100.91
904.915
728.353
569.996
428.874
305.196
199.923
113.914
47.4374
-0.16268
-30.6147
-47.2155
-54.2424
-55.5544
-54.029
-51.6949
-49.3987
-47.4308
-45.6474
-43.9787
-42.288
-40.5946
-38.5628
-36.0599
-33.0445
-29.6071
-25.8812
-22.0353
-18.2661
-14.7761
-11.7496
-9.32996
-7.60167
-6.57507
-6.1749
-6.24432
-6.62997
-6.99021
-7.09721
-6.79799
-6.04549
-4.90742
-3.52977
-2.07961
-0.695036
0.539502
1.59216
2.4682
3.19242
3.79605
4.30928
4.75774
5.16118
5.53342
5.88349
6.21573
6.52673
6.81493
5788.32
5629.05
5439.75
5221.01
4928.88
4597.03
4221.03
3803.01
3361.93
2921.36
2503.59
2123.31
1780.85
1466.77
1174.47
905.727
665.856
458.18
283.285
139.787
24.8509
-65.4172
-135.458
-189.555
-231.283
-263.116
-285.885
-298.708
-300.569
-291.695
-273.871
-250.235
-224.212
-198.553
-175.427
-156.087
-140.641
-128.207
-118.018
-109.42
-102.024
-95.3768
-89.188
-83.2515
-77.3539
-71.3778
-65.3142
-59.137
-52.8924
-46.701
-40.7277
-35.1548
-30.1544
-25.8613
-22.3507
-19.6217
-17.5911
-16.0994
-14.8535
-13.6992
-12.4267
-10.9149
-9.15957
-7.24745
-5.30924
-3.46851
-1.80823
-0.363197
0.868634
1.90915
2.78676
3.52949
4.16263
4.70839
5.18588
5.61116
5.99716
6.35224
6.67949
6.99337
-7861.2
-7690.36
-7432.93
-7082.62
-6677.63
-6270.42
-5887.46
-5542.89
-5231.55
-4937.7
-4642.37
-4336.11
-4021.35
-3705.89
-3396.19
-3093.85
-2796.62
-2501.41
-2205.23
-1906.27
-1605.39
-1305.9
-1015.1
-742.491
-498.802
-294.865
-139.45
-36.301
17.9714
32.9014
21.0803
-5.38056
-36.8724
-66.8584
-91.6574
-109.408
-120.038
-124.707
-124.499
-120.767
-114.878
-107.919
-100.622
-93.381
-86.3194
-79.4004
-72.531
-65.6454
-58.7477
-51.9226
-45.325
-39.1369
-33.5293
-28.6304
-24.5034
-21.1332
-18.4173
-16.2148
-14.3534
-12.6578
-10.9809
-9.25546
-7.49472
-5.75737
-4.11212
-2.60943
-1.27053
-0.0924393
0.940536
1.84728
2.64537
3.35029
3.97598
4.53539
5.04043
5.50172
5.92826
6.32607
6.69942
7.06403
-1434.94
-1191.22
-925.249
-778.669
-730.665
-763.167
-835.658
-927.885
-1024.15
-1113.98
-1194.66
-1267.53
-1337.27
-1407.98
-1473.53
-1515.06
-1517.49
-1486.14
-1438.78
-1386.7
-1331.77
-1277.22
-1222.09
-1166.52
-1108.62
-1046.06
-977.653
-904.033
-827.087
-748.65
-669.569
-590.116
-511.268
-435.245
-364.753
-302.314
-249.331
-205.599
-170.472
-143.127
-122.397
-106.946
-95.4065
-86.5118
-79.1819
-72.5794
-66.1269
-59.496
-52.6262
-45.5972
-38.6177
-31.9485
-25.8336
-20.4612
-15.9391
-12.2959
-9.49232
-7.39932
-5.84339
-4.65
-3.68804
-2.85928
-2.10128
-1.38778
-0.711009
-0.0671887
0.549203
1.1447
1.72425
2.28998
2.84177
3.37851
3.89914
4.40311
4.89039
5.3614
5.81671
6.25609
6.68023
7.0996
7173.52
6994.17
6736.58
6362.59
5857.6
5283.52
4666.95
4031.41
3399.62
2782.04
2181
1592.91
1013.05
437.248
-126.349
-621.376
-947.407
-1059.15
-1023.33
-936.48
-841.32
-744.179
-648.122
-556.589
-472.495
-396.57
-328.537
-268.256
-215.737
-171.04
-134.071
-104.581
-82.16
-66.2603
-56.2157
-51.1776
-49.8104
-50.8488
-53.3498
-56.0739
-58.2324
-59.3863
-59.3576
-58.1391
-55.8091
-52.4847
-48.3109
-43.4595
-38.1088
-32.5223
-26.9628
-21.6718
-16.8565
-12.6695
-9.1976
-6.46565
-4.43644
-3.02087
-2.09778
-1.53286
-1.1963
-0.976159
-0.787434
-0.574602
-0.307946
0.0233924
0.41836
0.869106
1.36428
1.89127
2.43794
2.99387
3.5508
4.10274
4.64556
5.17666
5.69445
6.19741
6.68582
7.16759
-9163.8
-8664.73
-7982.86
-7106.39
-5971.18
-4669.29
-3297.37
-1959.29
-734.286
340.794
1261.34
2029.59
2638.09
3072.33
3320.29
3383.28
3287.14
3080.44
2814.45
2526.46
2238.91
1964.88
1710.93
1480.03
1273.03
1088.97
925.834
781.593
654.338
542.273
443.83
357.738
283.108
219.137
165.005
119.897
83.0242
53.6147
30.7284
13.2491
0.255375
-9.10434
-15.5819
-19.7953
-22.2298
-23.2602
-23.1853
-22.2578
-20.7042
-18.7354
-16.5455
-14.3048
-12.1535
-10.1953
-8.49457
-7.07561
-5.92621
-5.00792
-4.26707
-3.64623
-3.09395
-2.5712
-2.05294
-1.52634
-0.987445
-0.437471
0.120255
0.68245
1.24692
1.81268
2.37942
2.94691
3.51453
4.08119
4.64528
5.20489
5.75784
6.30161
6.83534
7.36439
2133.45
1800.6
1381.36
971.585
563.816
300.196
172.534
121.515
102.837
107.25
141.354
205.288
289.845
383.273
476.221
562.387
636.117
691.943
725.9
737.089
727.464
700.27
658.934
606.933
547.876
485.385
422.821
362.945
307.659
257.874
213.801
175.225
141.554
112.204
86.751
64.8278
46.0244
29.9579
16.3921
5.13914
-3.92551
-10.9233
-16.0135
-19.4051
-21.3481
-22.1115
-21.9587
-21.1305
-19.8367
-18.2532
-16.5222
-14.7543
-13.0312
-11.4085
-9.91976
-8.57966
-7.38759
-6.33317
-5.39993
-4.56895
-3.82115
-3.13854
-2.50452
-1.90391
-1.32314
-0.750685
-0.177565
0.402326
0.992319
1.59335
2.20448
2.82349
3.44735
4.07268
4.69609
5.31439
5.92468
6.52418
7.11206
7.69319
10636.1
10398.5
10042.9
9506.52
8754.03
7840.5
6817.19
5737.62
4668.12
3674.05
2793.32
2030.72
1375.14
816.105
346.379
-41.3892
-354.833
-602.325
-791.654
-929.23
-1019.81
-1067.04
-1074.67
-1047.64
-992.779
-917.414
-829.75
-736.807
-644.004
-555.186
-472.866
-398.501
-332.763
-275.724
-227.037
-186.086
-152.106
-124.259
-101.68
-83.5301
-69.0559
-57.5972
-48.5786
-41.5007
-35.9355
-31.5236
-27.9712
-25.0453
-22.5678
-20.4078
-18.4744
-16.7076
-15.0707
-13.5428
-12.1129
-10.7751
-9.52531
-8.35923
-7.27136
-6.25506
-5.30253
-4.40546
-3.55563
-2.7454
-1.96786
-1.21678
-0.48645
0.228192
0.931369
1.62627
2.31498
2.99859
3.67733
4.35072
5.01773
5.677
6.32684
6.96544
7.59252
8.21252
-9720.69
-9112.96
-8314.83
-7439.69
-6473.81
-5549.97
-4706.38
-3952.94
-3279.31
-2672.62
-2135.26
-1681.92
-1323.4
-1056.92
-870.519
-749.197
-678.787
-645.636
-637.082
-641.873
-650.881
-657.65
-658.116
-650.082
-632.732
-606.164
-571.126
-528.954
-481.483
-430.857
-379.288
-328.823
-281.165
-237.565
-198.799
-165.219
-136.816
-113.316
-94.2582
-79.0726
-67.1401
-57.8429
-50.6035
-44.9123
-40.3434
-36.5591
-33.3061
-30.4061
-27.7419
-25.2434
-22.8742
-20.6197
-18.4781
-16.4539
-14.5533
-12.781
-11.1392
-9.62669
-8.23876
-6.96771
-5.80324
-4.73317
-3.7442
-2.82272
-1.9555
-1.13045
-0.337021
0.433429
1.18758
1.93022
2.66443
3.39185
4.11302
4.82762
5.53473
6.23304
6.9209
7.59678
8.26063
8.91587
-3084.97
-3227.21
-3422.51
-3626.53
-3834.93
-3997.98
-4102.1
-4149.49
-4151.86
-4120.12
-4053.22
-3941.46
-3776.29
-3555.53
-3283.19
-2968.41
-2622.72
-2258.97
-1890.44
-1529.83
-1188.74
-876.92
-601.476
-366.878
-175.272
-26.1017
83.4098
157.699
202.252
222.915
225.314
214.472
194.616
169.171
140.861
111.85
83.8452
58.1424
35.6314
16.8029
1.78791
-9.57747
-17.6692
-22.972
-26.0231
-27.3387
-27.379
-26.5293
-25.0955
-23.3104
-21.3441
-19.3168
-17.3104
-15.3779
-13.5516
-11.8484
-10.2745
-8.82844
-7.50305
-6.28769
-5.16949
-4.13458
-3.16909
-2.25978
-1.39469
-0.563413
0.242693
1.03048
1.80513
2.57031
3.3284
4.0806
4.82722
5.5678
6.30136
7.02649
7.74146
8.44492
9.13682
9.81819
8961.41
8795.91
8577.63
8250.06
7795.8
7220.35
6554.13
5841.23
5120.82
4416.68
3739.87
3097.89
2500.76
1961.42
1487.89
1075.44
711.465
385.91
95.7983
-158.819
-377.161
-559.208
-706.022
-819.359
-901.25
-953.911
-979.783
-981.824
-964.624
-933.544
-893.859
-849.631
-802.764
-753.775
-703.479
-652.869
-602.98
-554.8
-509.107
-466.411
-426.981
-390.896
-358.101
-328.455
-301.773
-277.841
-256.436
-237.328
-220.291
-205.107
-191.567
-179.479
-168.668
-158.975
-150.264
-142.413
-135.317
-128.886
-123.04
-117.712
-112.84
-108.372
-104.262
-100.469
-96.9545
-93.6876
-90.6394
-87.7845
-85.1005
-82.5673
-80.167
-77.8835
-75.7022
-73.609
-71.5907
-69.6352
-67.7336
-65.8648
-64.0256
-62.1464
-4729.9
-4410.46
-3993.96
-3562.91
-3099.15
-2698.7
-2380.12
-2134.15
-1931.42
-1734.16
-1510.23
-1241.48
-927.029
-582.607
-236.601
76.0532
328.463
509.746
622.182
675.662
683.114
655.688
600.271
521.454
425.352
320.9
217.735
123.027
41.3945
-25.7703
-80.1616
-124.415
-161.108
-191.746
-216.824
-236.305
-250.324
-259.287
-263.808
-264.58
-262.294
-257.585
-251.02
-243.098
-234.23
-224.771
-215.014
-205.202
-195.529
-186.141
-177.14
-168.593
-160.539
-152.994
-145.958
-139.421
-133.36
-127.751
-122.562
-117.764
-113.325
-109.215
-105.403
-101.861
-98.5636
-95.4853
-92.6038
-89.8988
-87.3512
-84.9436
-82.6597
-80.4841
-78.4025
-76.4017
-74.4678
-72.5862
-70.7472
-68.9308
-67.125
-65.2274
-4573.62
-4644.99
-4734
-4788.23
-4780.9
-4689.48
-4527.73
-4318.95
-4074.94
-3795.55
-3490.2
-3193.77
-2953.62
-2799.43
-2723.04
-2690.96
-2670.4
-2642.63
-2595.93
-2516.97
-2393.16
-2221.96
-2016.92
-1801.21
-1593.93
-1403.64
-1231.27
-1074.8
-933.296
-807.741
-698.972
-606.977
-530.715
-468.377
-417.726
-376.463
-342.469
-314.039
-289.862
-269.029
-250.923
-235.074
-221.122
-208.773
-197.793
-187.994
-179.213
-171.306
-164.146
-157.621
-151.627
-146.081
-140.911
-136.06
-131.481
-127.142
-123.023
-119.11
-115.394
-111.872
-108.539
-105.389
-102.413
-99.599
-96.9356
-94.4115
-92.0163
-89.7403
-87.5745
-85.5099
-83.5375
-81.6479
-79.8308
-78.0749
-76.3687
-74.7016
-73.0379
-71.3807
-69.7051
-67.8711
-2466.57
-2408.86
-2313.51
-2176.71
-2002.96
-1819.4
-1638.52
-1466.14
-1308.71
-1176.14
-1078.71
-1021.21
-998.779
-998.574
-1005.91
-1008
-998.762
-979.168
-956.304
-939.026
-928.903
-914.489
-881.261
-826.346
-758.896
-690.437
-625.525
-563.185
-501.95
-442.138
-385.296
-333.295
-287.341
-248.023
-215.492
-189.467
-169.427
-154.515
-143.507
-135.394
-129.403
-125.011
-121.861
-119.688
-118.272
-117.417
-116.955
-116.738
-116.614
-116.526
-116.289
-115.852
-115.19
-114.278
-113.104
-111.663
-109.963
-108.032
-105.927
-103.723
-101.495
-99.3014
-97.1734
-95.1241
-93.1563
-91.2696
-89.4626
-87.734
-86.0824
-84.5037
-82.9937
-81.5459
-80.1509
-78.7956
-77.4617
-76.1276
-74.8048
-73.4457
-72.0171
-70.3417
7074.74
6931.41
6759.29
6548.13
6287.13
5993.82
5676.31
5333.93
4958.58
4546.15
4104.06
3651.17
3216.17
2832.92
2530.47
2327.18
2226.51
2213.15
2252.56
2296.79
2297
2221.85
2068.88
1858.83
1619.85
1376.32
1144.11
931.453
741.533
574.659
429.867
306.317
203.056
118.928
52.6045
2.06908
-34.9367
-60.1402
-76.1131
-85.4222
-90.0628
-91.8205
-92.1803
-92.2126
-92.5504
-93.4504
-94.8916
-96.6774
-98.5574
-100.207
-101.473
-102.234
-102.606
-102.555
-102.092
-101.278
-100.188
-98.8961
-97.4676
-95.9561
-94.4085
-92.8671
-91.3643
-89.9181
-88.5353
-87.2182
-85.9695
-84.791
-83.683
-82.6437
-81.6696
-80.7529
-79.8832
-79.0441
-78.2121
-77.3585
-76.457
-75.4705
-74.3666
-72.9229
2991.89
2940.01
2837.6
2685.37
2546.79
2484.25
2493.06
2478.76
2318.41
1960.47
1464.95
945.778
497.711
170.107
-23.7288
-95.2008
-71.0434
14.5481
126.744
238.256
334.67
412.739
474.075
519.835
549.409
562.396
559.134
540.721
508.894
465.769
413.792
355.832
295.141
235.086
178.647
127.917
83.9418
46.6169
16.0754
-7.82215
-26.2043
-40.4285
-51.4762
-60.1128
-67.0511
-72.8484
-77.8706
-82.3325
-86.3336
-89.7621
-92.6922
-95.1073
-96.7988
-97.7895
-98.1194
-97.832
-96.9955
-95.7087
-94.1055
-92.347
-90.5897
-88.9453
-87.4624
-86.142
-84.9652
-83.9127
-82.9721
-82.1374
-81.4065
-80.7779
-80.2474
-79.8059
-79.4386
-79.1181
-78.8098
-78.4688
-78.0428
-77.4761
-76.6751
-75.4992
-14290.4
-13696.3
-12963.3
-12135.5
-11134.8
-10000.6
-8775.84
-7537.27
-6367.29
-5342.15
-4510.65
-3883.87
-3449.37
-3188.48
-3082.5
-3106.96
-3222.89
-3374.34
-3500.02
-3554.65
-3519.62
-3400.63
-3215.47
-2984.65
-2726.57
-2456.62
-2186.97
-1926.69
-1682.15
-1457.71
-1254.89
-1074.79
-917.024
-780.243
-662.472
-561.42
-474.77
-400.465
-336.972
-283.063
-238.091
-201.326
-172.227
-150.253
-134.559
-124.062
-117.589
-113.991
-112.217
-111.576
-111.44
-111.346
-110.996
-110.22
-108.937
-107.131
-104.832
-102.11
-99.0765
-95.8841
-92.714
-89.7516
-87.1445
-84.9658
-83.2084
-81.8159
-80.7235
-79.8805
-79.2538
-78.821
-78.5635
-78.4598
-78.4797
-78.5801
-78.704
-78.8091
-78.7698
-78.5278
-78.0013
-77.0953
6775.03
6472.06
6058.27
5482.71
4628.35
3510.6
2187.59
830.4
-342.477
-1201.33
-1766.08
-2127.44
-2351.05
-2460.77
-2464.77
-2371.68
-2194.26
-1951.59
-1670.59
-1382.88
-1119.16
-896.556
-718.116
-578.947
-471.174
-388.356
-325.737
-279.561
-246.48
-223.469
-207.898
-197.599
-190.874
-186.454
-183.439
-181.17
-179.079
-176.429
-172.877
-168.738
-163.945
-158.608
-153.191
-148.281
-144.246
-141.227
-139.116
-137.582
-136.2
-134.607
-132.583
-130.067
-127.111
-123.812
-120.264
-116.53
-112.647
-108.63
-104.492
-100.272
-96.0594
-91.9979
-88.2603
-84.9975
-82.2936
-80.1533
-78.5233
-77.329
-76.5025
-75.9911
-75.7525
-75.7452
-75.9203
-76.2159
-76.5551
-76.8488
-76.996
-76.8902
-76.4255
-75.5308
5464.38
5648.3
6008.84
6536.45
7164.93
7814.63
8406.67
8851.96
9082.11
9078.04
8864.82
8488.81
7998.88
7436.72
6834.77
6216.1
5596.09
4983.78
4384.97
3805.44
3255.22
2749.37
2298.18
1901.6
1552.85
1244.29
972.456
735.691
531.528
356.915
208.521
83.2037
-21.4273
-106.903
-174.901
-226.912
-265.013
-291.125
-306.352
-311.688
-308.548
-298.303
-282.427
-262.444
-240.052
-217.087
-195.275
-176.045
-160.316
-148.348
-139.759
-133.69
-129.115
-125.128
-121.151
-116.965
-112.612
-108.228
-103.906
-99.6559
-95.4321
-91.2144
-87.0682
-83.1476
-79.6396
-76.6897
-74.3587
-72.6268
-71.4274
-70.6794
-70.3047
-70.2297
-70.3811
-70.68
-71.0385
-71.36
-71.5416
-71.4747
-71.0433
-70.1957
6178.12
5839.87
5362.39
4710.14
3821.94
2822.58
1806.06
861.809
57.4471
-573.302
-1030.54
-1335.5
-1519.02
-1612.86
-1645.59
-1640.16
-1611.98
-1571.36
-1524.55
-1474.53
-1420.42
-1357.39
-1279.43
-1183.66
-1073.03
-955.839
-841.936
-738.712
-650.493
-579.08
-524.624
-485.913
-460.2
-443.947
-433.029
-423.578
-412.831
-399.101
-381.621
-360.919
-337.523
-312.507
-287.172
-262.779
-240.445
-220.976
-204.749
-191.665
-181.196
-172.541
-164.828
-157.339
-149.623
-141.53
-133.149
-124.709
-116.505
-108.841
-101.977
-96.0448
-90.9706
-86.4952
-82.3227
-78.2949
-74.4561
-70.9781
-68.0341
-65.7144
-64.0167
-62.8777
-62.209
-61.9177
-61.9126
-62.1034
-62.3974
-62.6973
-62.9009
-62.9054
-62.5928
-61.914
-14835.4
-14055
-13049.3
-11944.6
-10706.1
-9493.05
-8391.09
-7436.29
-6624.51
-5948.9
-5406.4
-4981.27
-4632.5
-4308.76
-3981.06
-3653
-3339.55
-3044.84
-2760.94
-2478.54
-2195.66
-1919.78
-1662.71
-1432.97
-1232.26
-1057.46
-904.306
-769.564
-651.36
-548.621
-460.507
-386.085
-324.047
-272.547
-229.872
-195.38
-168.334
-147.834
-132.707
-122.202
-115.034
-110.776
-109.178
-109.478
-111.23
-114.118
-117.757
-121.661
-125.276
-128.021
-129.354
-128.837
-126.212
-121.499
-115.047
-107.506
-99.6999
-92.4283
-86.2638
-81.3928
-77.5801
-74.3136
-71.0808
-67.6213
-64.0053
-60.5167
-57.4586
-55.0183
-53.2401
-52.0689
-51.4073
-51.1528
-51.2103
-51.4903
-51.9026
-52.3497
-52.7266
-52.9254
-52.8719
-52.4872
3087.34
3049.48
3012.84
2976.85
2939.39
2881.63
2775.96
2607.25
2382.7
2122.42
1850.88
1589.63
1352.04
1147.42
987.839
878.929
813.167
778.364
769.33
785.498
817.923
844.787
843.745
806.506
739.845
656.34
566.762
478.076
394.219
317.164
247.682
185.853
131.403
83.8831
42.7563
7.43
-22.6949
-48.2542
-69.673
-87.5804
-102.54
-115.044
-125.262
-133.837
-141.045
-146.901
-151.527
-154.252
-154.841
-153.153
-149.124
-142.881
-134.814
-125.561
-115.917
-106.669
-98.417
-91.4445
-85.6991
-80.8546
-76.433
-71.9642
-67.1634
-62.0491
-56.917
-52.177
-48.1681
-45.0567
-42.8425
-41.4234
-40.6615
-40.4216
-40.5813
-41.0265
-41.6432
-42.3134
-42.9207
-43.3644
-43.5766
-43.5259
7253.46
7144.45
6996.29
6774.04
6489.62
6153.54
5786.81
5404.96
5019.81
4642.4
4282.76
3946.47
3632.99
3337.96
3056.86
2786.43
2524.07
2266.98
2012.51
1760
1512.85
1278.25
1063.05
870.906
702.571
557.756
435.936
335.701
254.589
189.459
137.024
94.2655
58.6761
28.3306
1.84739
-21.7038
-42.9199
-62.1819
-79.7531
-95.8477
-110.641
-124.238
-136.654
-147.817
-157.578
-165.646
-171.337
-174.516
-175.188
-173.182
-168.509
-161.422
-152.4
-142.091
-131.215
-120.45
-110.305
-101.044
-92.6712
-84.9793
-77.6628
-70.4627
-63.3005
-56.3272
-49.8543
-44.2105
-39.6176
-36.1417
-33.717
-32.2078
-31.4555
-31.3037
-31.6053
-32.2188
-33.0071
-33.8411
-34.6152
-35.2481
-35.707
-35.9925
-5473.39
-5020.87
-4401.72
-3728.06
-3011.24
-2347.75
-1739.02
-1181.57
-685.227
-267.011
58.1775
284.031
413.946
459.848
440.694
379.104
297.02
212.381
137.844
80.9531
44.687
27.7483
25.3123
30.6596
37.9266
43.5836
46.226
45.9701
43.4624
39.1532
33.1296
25.3827
16.069
5.53247
-5.78733
-17.4415
-29.0486
-40.3641
-51.3142
-61.9596
-72.4062
-82.71
-92.8196
-102.559
-111.63
-119.637
-126.202
-131.279
-134.447
-135.544
-134.545
-131.576
-126.905
-120.902
-113.981
-106.523
-98.8233
-91.0586
-83.2977
-75.5471
-67.817
-60.1825
-52.8145
-45.9599
-39.8783
-34.7692
-30.7285
-27.764
-25.7548
-24.5885
-24.1215
-24.2074
-24.7034
-25.4711
-26.3813
-27.3236
-28.2115
-29.0059
-29.7025
-30.3127
2850.81
2649.14
2404.89
2107.44
1693.56
1181.28
584.074
-67.0747
-729.347
-1355.67
-1900.3
-2329.45
-2629.78
-2808.56
-2885.14
-2880.15
-2809.44
-2683.52
-2510.52
-2298.43
-2056.81
-1796.3
-1528.91
-1267.65
-1024.67
-809.119
-625.649
-474.628
-353.738
-259.71
-188.926
-137.444
-101.372
-77.2009
-61.8297
-52.5783
-47.3576
-44.7954
-44.1942
-45.2636
-47.8251
-51.6474
-56.4234
-61.8018
-67.42
-72.9287
-78.0112
-82.3882
-85.8275
-88.1304
-89.199
-89.014
-87.6281
-85.1497
-81.7207
-77.4941
-72.6183
-67.2314
-61.4683
-55.4738
-49.4146
-43.4833
-37.8886
-32.8305
-28.4704
-24.908
-22.1752
-20.2459
-19.0533
-18.5013
-18.4854
-18.8933
-19.61
-20.5237
-21.5353
-22.5676
-23.5719
-24.5292
-25.4324
-26.2783
-4159.21
-4021.81
-3850.03
-3649.84
-3422.22
-3172.22
-2893.72
-2583.41
-2244.13
-1884.81
-1517.55
-1154.5
-806.337
-481.634
-186.744
73.9521
297.134
479.145
616.508
705.606
745.558
741.565
704.78
648.422
581.781
509.621
435.754
365.094
300.828
242.073
186.56
134.349
87.9136
50.4729
24.6005
11.0131
7.81827
10.9952
15.8341
18.6431
17.6938
13.053
5.77889
-2.87308
-11.8972
-20.6467
-28.7223
-35.8938
-42.0016
-46.4757
-49.6191
-51.5082
-52.2229
-51.8665
-50.562
-48.4464
-45.6663
-42.375
-38.7321
-34.9016
-31.049
-27.3356
-23.9084
-20.8899
-18.3677
-16.391
-14.9719
-14.092
-13.7121
-13.7652
-14.1822
-14.8826
-15.7845
-16.8116
-17.8981
-18.9919
-20.0604
-21.0891
-22.0717
-23.0215
7715.89
7605.56
7477.12
7308.43
7084.04
6820.46
6527.11
6210.96
5875.45
5520.94
5146.95
4752.52
4336.15
3896.81
3435.61
2957.03
2470.02
1988.23
1528.04
1106.37
738.822
437.327
207.727
49.2994
-44.4078
-86.1119
-93.4535
-85.9317
-78.8483
-78.167
-81.4773
-83.2106
-79.3734
-69.7768
-56.0417
-40.9865
-26.7007
-14.7518
-6.29921
-1.84376
-1.04464
-2.87093
-6.12324
-9.86999
-13.5435
-16.8431
-19.6836
-22.403
-24.6791
-26.8612
-28.5542
-29.6568
-30.1292
-29.971
-29.2224
-27.9555
-26.2652
-24.2612
-22.0607
-19.7822
-17.5399
-15.4378
-13.5648
-11.99
-10.7606
-9.90098
-9.41431
-9.28965
-9.48694
-9.96616
-10.6737
-11.5511
-12.54
-13.5871
-14.6503
-15.7052
-16.7461
-17.7819
-18.8194
-19.8552
-2368.3
-2319.14
-2262.65
-2206.06
-2124.78
-2042.21
-1962.08
-1890.23
-1829.17
-1775.69
-1722.44
-1661.06
-1584.02
-1486.55
-1366.62
-1225.06
-1067.05
-901.689
-739.757
-590.61
-460.206
-351.252
-263.468
-194.21
-140.424
-99.6309
-69.9736
-50.5988
-40.9063
-38.9612
-42.941
-51.0834
-62.5959
-76.7669
-92.6795
-107.671
-118.851
-124.565
-124.857
-120.942
-114.34
-106.199
-97.3223
-88.3665
-79.8435
-71.9768
-64.6122
-57.5487
-51.0618
-45.2114
-39.97
-35.2909
-31.1108
-27.3619
-23.9801
-20.912
-18.1184
-15.5765
-13.2784
-11.229
-9.44143
-7.93331
-6.72161
-5.81884
-5.22986
-4.94974
-4.96277
-5.24223
-5.75112
-6.44515
-7.27568
-8.19479
-9.16163
-10.1483
-11.1429
-12.1491
-13.1816
-14.2587
-15.3953
-16.558
-12773.2
-12004.7
-11021.4
-9993.05
-8903.12
-7890.26
-6988.23
-6196.62
-5497.42
-4877.97
-4334.4
-3863.27
-3458.13
-3108.96
-2803.87
-2532
-2284.78
-2056.61
-1845.19
-1650.65
-1474.35
-1317.41
-1179.25
-1057.46
-949.192
-851.872
-763.411
-682.734
-609.677
-543.767
-484.699
-431.383
-382.991
-338.5
-297.452
-259.694
-225.276
-194.504
-167.703
-144.864
-125.517
-108.99
-94.6703
-82.1629
-71.309
-61.8537
-53.8574
-46.9614
-40.9674
-35.7147
-31.0598
-26.8866
-23.1081
-19.6636
-16.5147
-13.6409
-11.0342
-8.69579
-6.63226
-4.85296
-3.36739
-2.18291
-1.30275
-0.724246
-0.437433
-0.423903
-0.657407
-1.10405
-1.72388
-2.47323
-3.31431
-4.21456
-5.15274
-6.12138
-7.12496
-8.17606
-9.29092
-10.4867
-11.7822
-13.1373
7353.12
6942.49
6370.19
5605.64
4550.97
3381.69
2234.02
1224.29
404.645
-248.228
-780.653
-1213.83
-1544.07
-1768.69
-1900.26
-1962.25
-1979.01
-1968.44
-1940.39
-1899.33
-1846.87
-1783.25
-1708.25
-1621.52
-1523.58
-1415.91
-1300.84
-1181.05
-1059.02
-937.463
-818.941
-705.885
-600.517
-504.458
-418.828
-344.175
-280.46
-227.136
-183.26
-147.647
-119.208
-96.79
-79.0507
-65.026
-53.8155
-44.8604
-37.6304
-31.6997
-26.7476
-22.5314
-18.8684
-15.6246
-12.7056
-10.0485
-7.61521
-5.38688
-3.35895
-1.53663
0.0689582
1.44431
2.5764
3.45529
4.0759
4.43961
4.55481
4.43746
4.11079
3.60324
2.94683
2.17295
1.31208
0.386186
-0.590725
-1.61373
-2.68667
-3.8199
-5.02822
-6.33492
-7.77257
-9.40844
-58.4018
-52.878
-47.7453
-42.949
-38.4956
-34.3702
-30.6035
-27.2162
-24.2092
-21.5547
-19.2129
-17.1384
-15.2838
-13.6087
-12.093
-10.7055
-9.43458
-8.27877
-7.24417
-6.34047
-5.57344
-4.94165
-4.43648
-4.04381
-3.74653
-3.5268
-3.36786
-3.25541
-3.17837
-3.12905
-3.10289
-3.09773
-3.11277
-3.14771
-3.20227
-3.27593
-3.3678
-3.47665
-3.60125
-3.74076
-3.89492
-4.06419
-4.24983
-4.45351
-4.6765
-4.91807
-5.17338
-5.43165
-5.67681
-5.89179
-6.06395
-6.18766
-6.26283
-6.29223
-6.28047
-6.23422
-6.16145
-6.06983
-5.96498
-5.84978
-5.72481
-5.58928
-5.44205
-5.28243
-5.11057
-4.9275
-4.73488
-4.53473
-4.32922
-4.12047
-3.91031
-3.7003
-3.49168
-3.28554
-3.0828
-2.88425
-2.69059
-2.50243
-2.32038
-2.14499
-1.97671
-1.81587
-1.66274
-1.51749
-1.38023
-1.25092
-1.12942
-1.01555
-0.909148
-0.810068
-0.718184
-0.633426
-0.555807
-0.485389
-0.422243
-0.36637
-0.317627
-0.275855
-0.240811
-0.212161
-0.189779
-0.172545
-0.159654
-0.150383
-0.143987
-0.139706
-0.136799
-0.134605
-0.13259
-0.130359
-0.127651
-0.124323
-0.120348
-0.115798
-0.110817
-0.105573
-0.100223
-0.0949007
-0.089715
-0.0847543
-0.0800776
-0.07571
-0.0716496
-0.0678846
-0.064405
-0.061202
-0.0582586
-0.0555463
-0.0530333
-0.0506978
-0.0485313
-0.0465298
-0.044682
-0.0429669
-0.0413639
-0.039865
-0.0384775
-0.0372137
-0.036078
-0.0350605
-0.0341427
-0.0333057
-0.0325353
-0.0318203
-0.0311478
-0.0305011
-0.0298618
-0.0292131
-0.0285414
-0.0278372
-0.0270976
-0.0263299
-0.0255544
-0.0247995
-0.0240915
-0.0234426
-0.0228453
-0.0222775
-0.0217155
-0.0211455
-0.0205688
-0.0199963
-0.0194395
-0.0189023
-0.0183797
-0.0178615
-0.0173395
-0.0168114
-0.0162813
-0.0157566
-0.0152444
-0.0147484
-0.0142691
-0.0138049
-0.013354
-0.0129136
-0.0124787
-0.0120407
-0.0115877
-0.0111086
-0.0105986
-0.0100628
-0.00951533
-0.00897296
-0.00844696
-0.00793729
-0.00743353
-0.00692161
-0.00639252
-0.00584647
-0.0052915