/*--------------------------------*- C++ -*----------------------------------*\
| =========                 |                                                 |
| \\      /  F ield         | OpenFOAM: The Open Source CFD Toolbox           |
|  \\    /   O peration     | Version:  2012                                  |
|   \\  /    A nd           | Website:  www.openfoam.com                      |
|    \\/     M anipulation  |                                                 |
\*---------------------------------------------------------------------------*/
FoamFile
{
    version     2.0;
    format      ascii;
    class       surfaceScalarField;
    location    "0.13";
    object      phi;
}
// * * * * * * * * * * * * * * * * * * * * * * * * * * * * * * * * * * * * * //

dimensions      [0 3 -1 0 0 0 0];
oriented        oriented;


internalField   nonuniform List<scalar> 
84340
(
-0.000346429
0.000444638
-9.82089e-05
-0.0011503
0.00101938
-0.000215509
-0.00196319
0.00122542
-0.000412531
-0.00244623
0.00116272
-0.000679682
-0.00253444
0.000980951
-0.000892738
-0.00233107
0.000778507
-0.000981878
-0.002033
0.000588784
-0.000886859
-0.00181265
0.000413507
-0.000633853
-0.00173531
0.00025191
-0.000329255
-0.0017652
0.000103036
-7.31421e-05
-0.00182991
-3.83507e-05
0.00010306
-0.00187239
-0.000180695
0.000223175
-0.00187224
-0.000321888
0.000321736
-0.00183275
-0.000458763
0.000419274
-0.0017619
-0.00057777
0.000506919
-0.00165929
-0.000665232
0.000562622
-0.00151387
-0.000712477
0.000567058
-0.00131399
-0.000718558
0.000518676
-0.00105278
-0.000693284
0.000432081
-0.000745899
-0.000634994
0.000328111
-0.000408694
-0.000563192
0.000225987
-5.93037e-05
-0.000488216
0.000138826
0.00028258
-0.000413753
7.18698e-05
0.00059207
-0.000339109
2.96193e-05
0.000848066
-0.000264221
8.22529e-06
0.00103645
-0.000194942
6.56066e-06
0.00115354
-0.000139743
2.26484e-05
0.0011996
-0.000101404
5.53479e-05
0.00118027
-8.28208e-05
0.000102152
0.00110026
-7.8785e-05
0.000158791
0.000967531
-8.44461e-05
0.000217177
0.000793039
-9.48275e-05
0.000269319
0.00058842
-0.000102101
0.00030672
0.000365819
-0.000105948
0.000328549
0.00013654
-0.000104073
0.000333353
-9.05439e-05
-9.27824e-05
0.000319866
-0.000300722
-7.87023e-05
0.00028888
-0.00048324
-6.11845e-05
0.000243703
-0.000633667
-3.96157e-05
0.000190043
-0.000755414
-1.44174e-05
0.000136165
-0.000851193
1.23414e-05
8.34376e-05
-0.000919277
3.52678e-05
3.28166e-05
-0.0009652
5.44179e-05
-8.49588e-06
-0.000994562
7.338e-05
-4.40181e-05
-0.00101044
9.02885e-05
-7.44124e-05
-0.00101413
0.000105036
-0.000101342
-0.00100654
0.000118857
-0.000126448
-0.000988464
0.000131992
-0.000150069
-0.00096008
0.000143821
-0.000172205
-0.000921284
0.000154092
-0.000192888
-0.000872414
0.000163089
-0.000211959
-0.000813802
0.000170539
-0.00022915
-0.000745656
0.000175957
-0.000244103
-0.000668151
0.000178881
-0.000256386
-0.000581476
0.000178839
-0.000265514
-0.000485875
0.000175356
-0.000270957
-0.000381691
0.000167976
-0.000272159
-0.000269413
0.000156282
-0.00026856
-0.000149712
0.000139923
-0.000259623
-2.34822e-05
0.000118632
-0.000244862
0.000108132
9.22596e-05
-0.000223873
0.000243647
6.08547e-05
-0.000196369
0.000381321
2.4545e-05
-0.000162219
0.000519072
-1.62462e-05
-0.000121504
0.0006545
-6.08372e-05
-7.4591e-05
0.000784968
-0.000108342
-2.21256e-05
0.000907724
-0.000157661
3.49056e-05
0.00102035
-0.000207536
9.49135e-05
0.001121
-0.000256697
0.000156045
0.00120903
-0.000304035
0.000216002
0.0012854
-0.00034878
0.000272415
0.00135288
-0.000390691
0.000323208
0.00141598
-0.000430151
0.000367055
0.00148031
-0.000468117
0.000403778
0.00155173
-0.000505941
0.00043452
0.00163524
-0.000545142
0.000461636
0.00173412
-0.000587258
0.000488378
0.00184942
-0.000633646
0.000518352
0.00198031
-0.000687068
0.000556176
-0.000739144
0.000599979
0.00211947
0.000254981
0.000189657
0.000638133
0.000636228
0.000990646
0.000872905
0.00133032
0.000823053
0.00165495
0.000656323
0.00195571
0.000477743
0.00220565
0.000338847
0.00237927
0.000239885
0.00246147
0.000169708
0.00244572
0.000118783
0.00232711
8.02605e-05
0.00209559
5.08225e-05
0.00173741
3.62949e-05
0.00124991
2.87394e-05
0.00065192
2.02195e-05
-1.22441e-05
-1.06794e-06
-0.00067896
-4.57614e-05
-0.00128244
-0.000115076
-0.00177053
-0.000205192
-0.00209383
-0.000311696
-0.00222654
-0.000430483
-0.00215762
-0.000557134
-0.00188748
-0.000683898
-0.00142798
-0.000798603
-0.000809147
-0.000883057
-8.1614e-05
-0.000922475
0.000693028
-0.000914385
0.00142586
-0.000834238
0.00200074
-0.000657702
0.00232262
-0.000400659
0.00236984
-0.000131671
0.00219371
8.13042e-05
0.00188041
0.000211197
0.001508
0.000266464
0.001133
0.000270927
0.000794524
0.000245693
0.000501739
0.000214083
0.000254545
0.000186009
4.98441e-05
0.000165085
-0.00011605
0.000151477
-0.000247584
0.000143875
-0.000352576
0.00014026
-0.000436726
0.000138569
-0.000501941
0.000138595
-0.000550706
0.000139053
-0.000585569
0.0001399
-0.000607332
0.000140621
-0.00061607
0.00014073
-0.000612558
0.000140309
-0.000597506
0.00013904
-0.000571167
0.00013675
-0.000533806
0.000133178
-0.000485859
0.00012801
-0.000427879
0.000120901
-0.000360527
0.000111487
-0.000284557
9.93861e-05
-0.000200815
8.42342e-05
-0.000110207
6.56739e-05
-1.38504e-05
4.35652e-05
8.71032e-05
1.7678e-05
0.00019174
-1.23779e-05
0.000298274
-4.56804e-05
0.000405654
-8.28343e-05
0.000512582
-0.000123175
0.000617924
-0.000166179
0.000720802
-0.00021122
0.000820754
-0.000257613
0.000917907
-0.000304689
0.00101307
-0.000351865
0.00110775
-0.000398712
0.00120397
-0.000444997
0.00130396
-0.000490678
0.00140969
-0.000535886
0.00152246
-0.000580887
0.00164259
-0.000626066
0.00176936
-0.000671915
0.00190111
-0.000719015
0.00203536
-0.000767892
0.00216845
-0.000820161
-0.000868765
0.00229807
9.26367e-06
0.000180393
0.000487585
0.000157906
0.00119144
0.000169045
0.00174588
0.00026862
0.00203637
0.000365827
0.00208561
0.000428502
0.00195345
0.00047101
0.0016781
0.00051524
0.00127443
0.000573376
0.000748721
0.00064449
0.00010874
0.000720241
-0.000630969
0.000790531
-0.00144083
0.00084616
-0.00229088
0.000878781
-0.00315154
0.000880879
-0.00399945
0.000846844
-0.00481485
0.000769644
-0.00557868
0.000648751
-0.00626946
0.000485588
-0.00686001
0.000278851
-0.00731382
2.33332e-05
-0.00758415
-0.000286808
-0.00763787
-0.000630175
-0.00744473
-0.000991744
-0.00699232
-0.00133547
-0.00630246
-0.00161234
-0.00544143
-0.00177542
-0.00449375
-0.00178192
-0.00355237
-0.00159908
-0.00269934
-0.00125369
-0.00198996
-0.000841054
-0.00144827
-0.000460386
-0.00107106
-0.000166012
-0.000836063
3.14698e-05
-0.000713631
0.000148495
-0.000676162
0.000208224
-0.000693581
0.000231502
-0.000739811
0.00023224
-0.000794581
0.000219855
-0.000844647
0.000201543
-0.000882936
0.000182164
-0.000907217
0.000164541
-0.00091823
0.000149582
-0.000916345
0.00013671
-0.000903086
0.000125794
-0.000879666
0.00011648
-0.000847482
0.000108437
-0.000808072
0.000101321
-0.000762483
9.47202e-05
-0.000711637
8.81947e-05
-0.000656438
8.15512e-05
-0.000597484
7.4224e-05
-0.000535217
6.57426e-05
-0.000469911
5.55956e-05
-0.000401777
4.33539e-05
-0.000330848
2.84577e-05
-0.000257186
1.05712e-05
-0.000180281
-1.12303e-05
-0.000100835
-3.58813e-05
-1.81284e-05
-6.50281e-05
6.7838e-05
-9.83442e-05
0.000157953
-0.000135796
0.000252346
-0.000177227
0.000351442
-0.000222271
0.00045564
-0.000270377
0.00056526
-0.000320839
0.000680489
-0.000372842
0.000801323
-0.000425523
0.000927509
-0.000478051
0.0010585
-0.000529699
0.00119341
-0.000579912
0.00133108
-0.000628349
0.00147011
-0.000674917
0.00160899
-0.000719769
0.0017462
-0.000763275
0.00188026
-0.000805967
0.00200971
-0.000848472
0.00213317
-0.000891348
0.00224879
-0.000935786
-0.000977997
0.00235803
0.000732827
-0.000552434
0.00176549
-0.000874753
0.0026776
-0.000743065
0.00357157
-0.000625349
0.00460366
-0.000666266
0.00583509
-0.000802928
0.00722899
-0.000922892
0.00868459
-0.000940357
0.0100905
-0.00083249
0.0113648
-0.000629886
0.0124664
-0.000381363
0.0133823
-0.000125361
0.0141115
0.000116995
0.0146534
0.000336834
0.0150037
0.000530651
0.0151533
0.000697256
0.0150867
0.000836173
0.0147902
0.000945322
0.014256
0.00101971
0.013473
0.00106189
0.0124337
0.00106266
0.0111422
0.00100462
0.00962401
0.000888057
0.00791621
0.000716052
0.00607708
0.00050367
0.00418625
0.000278493
0.0023376
7.32364e-05
0.000639027
-8.33504e-05
-0.000786001
-0.000174051
-0.00183727
-0.000202422
-0.00249162
-0.000186701
-0.00280859
-0.000143417
-0.00289219
-8.24127e-05
-0.00284767
-1.30503e-05
-0.00274931
5.01371e-05
-0.00263133
9.02421e-05
-0.00249598
9.61464e-05
-0.00233802
7.4285e-05
-0.00216
4.1829e-05
-0.00197165
1.31955e-05
-0.00178507
-4.4172e-06
-0.00160957
-1.09556e-05
-0.00145013
-9.85423e-06
-0.00130863
-4.79736e-06
-0.00118428
1.45222e-06
-0.00107524
7.43785e-06
-0.000979303
1.2497e-05
-0.000894296
1.63138e-05
-0.000818233
1.86571e-05
-0.00074936
1.9321e-05
-0.000685875
1.80664e-05
-0.000626272
1.462e-05
-0.000569229
8.69967e-06
-0.000513471
-1.63401e-07
-0.000457842
-1.22749e-05
-0.000401917
-2.74677e-05
-0.000344205
-4.71415e-05
-0.000283809
-7.16269e-05
-0.000218428
-0.000101262
-0.000147035
-0.000136422
-6.8117e-05
-0.000177262
1.97659e-05
-0.000223679
0.000117781
-0.000275242
0.000226678
-0.000331169
0.000346644
-0.000390342
0.000477189
-0.000451385
0.00061713
-0.000512783
0.00076464
-0.000573032
0.000917386
-0.000630797
0.00107273
-0.00068504
0.00122793
-0.000735119
0.00138042
-0.000780835
0.00152793
-0.000822427
0.00166868
-0.00086052
0.00180142
-0.000896016
0.00192542
-0.000929971
0.0020404
-0.000963448
0.00214645
-0.000997404
0.00224346
-0.00103279
-0.00106854
0.002334
-0.000796578
0.000244144
-0.00212322
0.000451888
-0.00332694
0.000460657
-0.00415989
0.000207597
-0.00458071
-0.00024544
-0.00467428
-0.000709363
-0.00459528
-0.00100189
-0.00451184
-0.00102379
-0.00453636
-0.000807976
-0.00468269
-0.000483553
-0.00488469
-0.00017936
-0.00505193
4.18822e-05
-0.00511173
0.00017679
-0.00501932
0.00024442
-0.00475318
0.000264517
-0.00430989
0.000253963
-0.00370047
0.000226757
-0.00294724
0.000192094
-0.00208042
0.000152885
-0.00114055
0.00012202
-0.000175796
9.79056e-05
0.000751031
7.77919e-05
0.00157214
6.69463e-05
0.00223355
5.46468e-05
0.00270456
3.26577e-05
0.00298038
2.67764e-06
0.00308361
-3.00004e-05
0.00305674
-5.6474e-05
0.00294896
-6.62698e-05
0.00279684
-5.0304e-05
0.00261364
-3.50489e-06
0.00239574
7.44814e-05
0.00213438
0.000178951
0.00182557
0.000295755
0.00147895
0.000396763
0.00111907
0.00045012
0.00077276
0.000442457
0.000459869
0.000387176
0.000190722
0.000310976
-3.24896e-05
0.000236407
-0.000212907
0.000176
-0.000353622
0.00012976
-0.000457937
9.44607e-05
-0.000528991
6.62565e-05
-0.00057122
4.36822e-05
-0.000590058
2.62754e-05
-0.000591343
1.37824e-05
-0.000580425
5.39561e-06
-0.000561473
-2.94595e-07
-0.000537978
-4.17431e-06
-0.000511765
-8.14652e-06
-0.000483577
-1.3568e-05
-0.000454531
-2.03459e-05
-0.000424923
-2.97713e-05
-0.000393092
-4.41054e-05
-0.000357546
-6.30134e-05
-0.000317442
-8.72459e-05
-0.000271397
-0.000117672
-0.000217546
-0.000155114
-0.000153799
-0.000200169
-7.80159e-05
-0.000253045
1.17067e-05
-0.000313401
0.00011672
-0.000380255
0.000237527
-0.000451976
0.000373576
-0.000526391
0.000523183
-0.000600993
0.000683622
-0.000673222
0.000851346
-0.000740756
0.00102231
-0.000801761
0.00119233
-0.000855062
0.00135744
-0.000900227
0.00151418
-0.000937574
0.00165985
-0.000968097
0.00179266
-0.000993335
0.00191182
-0.00101517
0.00201744
-0.0010356
0.00211041
-0.00105641
0.00219212
-0.00107912
0.00226356
-0.00110423
-0.00113396
0.00232897
0.000226655
1.74896e-05
0.000773206
-9.46635e-05
0.00160568
-0.000371815
0.00254382
-0.000730544
0.00337448
-0.0010761
0.00400431
-0.00133919
0.00445386
-0.00145144
0.00480909
-0.00137902
0.00515275
-0.00115164
0.00551864
-0.000849442
0.00589111
-0.000551832
0.00623091
-0.000297916
0.00649795
-9.02507e-05
0.00666212
8.02475e-05
0.00670663
0.000220009
0.00662893
0.000331668
0.00643874
0.000416942
0.00616384
0.000466994
0.00583464
0.00048209
0.00548761
0.000469049
0.00514474
0.000440771
0.00480767
0.000414861
0.00447391
0.000400711
0.00412559
0.000402967
0.00374295
0.000415293
0.00331613
0.000429501
0.00284189
0.000444238
0.00232373
0.000461689
0.00177307
0.000484385
0.00120962
0.000513151
0.00065976
0.000546353
0.000154294
0.000579948
-0.000273802
0.000607047
-0.000595725
0.000617678
-0.000800304
0.000601342
-0.000903216
0.000553032
-0.000938426
0.000477667
-0.000938664
0.000387413
-0.000923011
0.000295323
-0.000897416
0.000210812
-0.000860067
0.000138651
-0.000810534
8.02272e-05
-0.000751439
3.53657e-05
-0.000687996
2.81358e-06
-0.000621103
-2.32107e-05
-0.000554592
-4.02361e-05
-0.000492028
-4.87815e-05
-0.000435348
-5.12844e-05
-0.000385127
-5.05159e-05
-0.000340453
-4.88478e-05
-0.000300505
-4.80945e-05
-0.00026459
-4.94838e-05
-0.000231064
-5.38718e-05
-0.000198776
-6.20603e-05
-0.000167632
-7.52487e-05
-0.000136715
-9.39308e-05
-0.000103889
-0.000120072
-6.65518e-05
-0.000155009
-2.15486e-05
-0.000200117
3.46108e-05
-0.000256329
0.000105368
-0.000323803
0.000193608
-0.000401642
0.000301122
-0.000487769
0.000428168
-0.000579022
0.000573254
-0.000671477
0.000733203
-0.000760942
0.000903496
-0.000843514
0.00107878
-0.000916043
0.00125346
-0.000976438
0.00142219
-0.00102379
0.00158029
-0.00105833
0.00172405
-0.00108133
0.00185088
-0.00109492
0.00195941
-0.00110187
0.00204954
-0.0011053
0.00212228
-0.00110833
0.0021795
-0.00111363
0.00222349
-0.00112311
0.00225648
-0.00113721
-0.00115881
0.00228133
0.000114097
-9.66077e-05
0.000213701
-0.000194267
0.000147566
-0.000305679
-0.00017556
-0.000407418
-0.00080336
-0.000448302
-0.00167231
-0.000470244
-0.00262078
-0.000502968
-0.00344577
-0.000554033
-0.00398862
-0.000608793
-0.00419286
-0.000645203
-0.00409229
-0.000652396
-0.00375604
-0.000634167
-0.00324687
-0.000599417
-0.00261275
-0.000553879
-0.00189634
-0.000496404
-0.0011428
-0.000421864
-0.000398956
-0.000326905
0.000283943
-0.000215905
0.000854616
-8.85828e-05
0.00128299
4.06798e-05
0.00156067
0.000163084
0.00170764
0.000267897
0.00176417
0.000344172
0.00177903
0.000388111
0.00178482
0.000409506
0.00178852
0.000425795
0.00178399
0.000448767
0.00176638
0.000479304
0.00173755
0.000513212
0.00170487
0.000545831
0.00167808
0.00057315
0.00166658
0.000591441
0.00167669
0.000596938
0.00170828
0.000586091
0.00175256
0.000557064
0.00179473
0.000510859
0.00182106
0.000451339
0.00182411
0.000384362
0.00180319
0.000316244
0.00176153
0.000252475
0.00170317
0.000197009
0.00163136
0.000152032
0.00154864
0.00011809
0.00145702
9.44279e-05
0.00135446
7.93549e-05
0.00124345
7.07742e-05
0.0011284
6.62702e-05
0.00101382
6.32953e-05
0.000903729
5.95732e-05
0.000801478
5.34033e-05
0.000709575
4.38096e-05
0.000629621
3.04702e-05
0.000562299
1.34502e-05
0.000507398
-7.15996e-06
0.000464049
-3.18997e-05
0.000431921
-6.18036e-05
0.00041069
-9.88418e-05
0.000401383
-0.000145703
0.00040622
-0.000204954
0.000428298
-0.000278407
0.000470858
-0.000366363
0.000536349
-0.000467133
0.000625566
-0.000576987
0.000737116
-0.000690572
0.000867355
-0.000801716
0.00101082
-0.000904406
0.001161
-0.000993694
0.00131123
-0.00106628
0.00145548
-0.00112069
0.00158879
-0.0011571
0.00170753
-0.00117707
0.00180933
-0.00118314
0.00189306
-0.00117865
0.00195865
-0.00116746
0.00200701
-0.00115367
0.00203991
-0.00114123
0.00205966
-0.00113338
0.00206878
-0.00113223
0.00206995
-0.00113839
-0.00115281
0.00206395
-0.000253217
0.00015661
-0.000585424
0.000137939
-0.000924204
3.31009e-05
-0.00130441
-2.72157e-05
-0.00168902
-6.36893e-05
-0.00203838
-0.000120884
-0.00233434
-0.000207009
-0.00257954
-0.000308831
-0.00277813
-0.000410202
-0.00292151
-0.000501824
-0.00299221
-0.000581693
-0.00297546
-0.000650924
-0.00286474
-0.000710138
-0.00266195
-0.000756661
-0.00237667
-0.000781684
-0.00202847
-0.000770064
-0.00164738
-0.000708
-0.00127486
-0.00058842
-0.000949298
-0.000414148
-0.000707245
-0.000201373
-0.000565817
2.16552e-05
-0.00051603
0.00021811
-0.000527921
0.000356063
-0.000564556
0.000424746
-0.000594069
0.000439019
-0.000591622
0.000423348
-0.000536608
0.000393754
-0.000414921
0.000357617
-0.000225517
0.000323808
3.32828e-05
0.000287031
0.000343079
0.000263354
0.000682696
0.000251824
0.00103217
0.000247465
0.001375
0.000243261
0.0016972
0.000234863
0.00198321
0.000224851
0.00222168
0.000212871
0.00240586
0.000200182
0.0025333
0.000188803
0.00260519
0.000180579
0.00262553
0.00017667
0.00260015
0.000177415
0.00253594
0.000182302
0.00244029
0.000190075
0.00232075
0.000198898
0.00218482
0.000206698
0.00203976
0.000211327
0.00189222
0.000210835
0.00174798
0.000203815
0.00161165
0.00018974
0.00148637
0.00016909
0.00137362
0.000143219
0.00127323
0.000113835
0.00118387
8.2206e-05
0.0011036
4.83672e-05
0.00103139
1.04122e-05
0.000967671
-3.51269e-05
0.000914883
-9.29152e-05
0.000876873
-0.000166944
0.000858137
-0.00025967
0.000862512
-0.000370737
0.000891918
-0.000496538
0.000945521
-0.00063059
0.00101956
-0.00076461
0.00110789
-0.000890045
0.00120312
-0.000999634
0.00129796
-0.00108854
0.00138641
-0.00115473
0.0014644
-0.00119867
0.00152989
-0.00122259
0.00158252
-0.0012297
0.00162308
-0.0012237
0.00165301
-0.00120859
0.00167406
-0.0011885
0.00168798
-0.00116759
0.00169642
-0.00114967
0.00170077
-0.00113773
0.00170206
-0.00113352
0.00170111
-0.00113744
-0.00114882
0.00169712
0.000465477
-0.000308867
0.00116201
-0.000558592
0.0017021
-0.00050699
0.00205278
-0.000377897
0.00232358
-0.000334489
0.0026318
-0.000429103
0.00303954
-0.000614747
0.00352627
-0.000795566
0.00402481
-0.00090874
0.00446632
-0.000943329
0.00480036
-0.00091574
0.00499727
-0.000847834
0.005045
-0.000757865
0.0049469
-0.000658564
0.00472203
-0.000556814
0.00440697
-0.000454997
0.0040513
-0.000352337
0.003709
-0.000246121
0.0034266
-0.000131741
0.00323212
-6.89263e-06
0.00312631
0.000127464
0.00307998
0.000264442
0.00304451
0.000391532
0.00297444
0.000494818
0.00285121
0.000562247
0.00269019
0.000584365
0.00252584
0.000558105
0.00238995
0.000493509
0.00230182
0.000411937
0.00225441
0.000334444
0.00224473
0.000273034
0.00226691
0.000229638
0.00231299
0.000201384
0.00236903
0.000187228
0.00242407
0.000179825
0.00247272
0.000176193
0.00251098
0.000174617
0.00253577
0.000175385
0.00254751
0.00017707
0.00254677
0.000181316
0.00253452
0.00018892
0.00251149
0.000200448
0.00247806
0.000215732
0.00243457
0.000233559
0.00238103
0.000252444
0.00231745
0.00027028
0.00224412
0.000284651
0.00216172
0.000293235
0.00207133
0.000294212
0.00197442
0.000286648
0.00187275
0.000270753
0.00176817
0.0002478
0.00166243
0.000219578
0.00155723
0.000187408
0.00145456
0.000151041
0.00135697
0.000108001
0.00126616
5.56803e-05
0.00119065
-1.7405e-05
0.00113306
-0.000109354
0.00109711
-0.000223721
0.00108438
-0.000358011
0.00109352
-0.000505678
0.00112009
-0.000657162
0.00115725
-0.000801771
0.00119712
-0.000929912
0.00123247
-0.00103498
0.0012582
-0.00111427
0.00127216
-0.00116868
0.00127498
-0.00120149
0.00126936
-0.00121697
0.00125901
-0.00121935
0.00124773
-0.00121242
0.00123875
-0.00119961
0.00123439
-0.00118414
0.00123585
-0.00116905
0.00124321
-0.00115703
0.00125555
-0.00115006
0.00127123
-0.0011492
0.00128829
-0.0011545
-0.00116547
0.00130494
-0.0001835
-0.000125368
-0.000572105
-0.000169988
-0.00109389
1.47947e-05
-0.00172457
0.000252779
-0.00245312
0.000394065
-0.00323076
0.000348533
-0.00393297
8.74675e-05
-0.00442781
-0.000300727
-0.00464726
-0.000689292
-0.0046087
-0.000981887
-0.00438067
-0.00114377
-0.00403724
-0.00119127
-0.00363775
-0.00115736
-0.00322717
-0.00106914
-0.00283979
-0.000944198
-0.00249933
-0.000795454
-0.00221646
-0.000635201
-0.00198723
-0.000475358
-0.00179378
-0.000325186
-0.00162196
-0.000178714
-0.00144504
-4.94609e-05
-0.00124569
6.5101e-05
-0.00101674
0.00016258
-0.000760102
0.000238176
-0.000485209
0.000287354
-0.000208293
0.000307449
4.857e-05
0.000301242
0.00026461
0.000277469
0.000429415
0.000247132
0.000544262
0.000219597
0.00061661
0.000200686
0.000661073
0.000185175
0.000691454
0.000171004
0.000721847
0.000156835
0.00076242
0.000139251
0.000820942
0.000117671
0.000901645
9.3914e-05
0.00100548
7.15477e-05
0.00112816
5.43893e-05
0.00126386
4.56154e-05
0.0014058
4.698e-05
0.00154716
5.90925e-05
0.00167935
8.35364e-05
0.00180309
0.000109828
0.00191138
0.000144146
0.00199941
0.000182256
0.00206366
0.000220393
0.0021013
0.000255604
0.00211025
0.000285255
0.00208971
0.000307192
0.00204056
0.000319903
0.00196582
0.000322536
0.00187075
0.000314654
0.00176249
0.000295664
0.00164943
0.000264102
0.00154022
0.000217205
0.00144471
0.000151191
0.001365
6.2312e-05
0.00130644
-5.07933e-05
0.00126938
-0.00018666
0.00125086
-0.000339498
0.00124503
-0.000499849
0.00124417
-0.000656295
0.00124025
-0.000797853
0.00122678
-0.000916441
0.00120025
-0.00100845
0.0011608
-0.00107482
0.00111172
-0.00111961
0.00105824
-0.00114801
0.00100603
-0.00116476
0.000960096
-0.00117341
0.000924184
-0.0011765
0.000900581
-0.001176
0.000890119
-0.00117368
0.000892277
-0.00117121
0.000905369
-0.00117013
0.00092688
-0.00117158
0.000953919
-0.00117624
0.000983764
-0.00118434
-0.00119643
0.00101472
-9.50923e-05
-3.02754e-05
-0.000179021
-8.60584e-05
-1.57305e-05
-0.000148496
0.000368819
-0.00013177
0.000759914
2.96973e-06
0.000962771
0.000145676
0.00089391
0.000156329
0.000594999
-1.81522e-06
0.000174633
-0.000268926
-0.000251153
-0.000556101
-0.000588233
-0.000806688
-0.00077577
-0.00100373
-0.000784075
-0.00114905
-0.000613241
-0.00123998
-0.000295673
-0.00126177
0.000104698
-0.00119582
0.00050855
-0.00103905
0.000847547
-0.000814355
0.00108378
-0.000561414
0.00122461
-0.000319552
0.00129027
-0.000115122
0.00131506
4.03157e-05
0.00133004
0.000147596
0.00135694
0.000211279
0.00140329
0.000241011
0.00146285
0.000247884
0.00151935
0.00024474
0.00155527
0.000241553
0.00156016
0.000242245
0.00153289
0.000246865
0.00147399
0.000259584
0.00138602
0.000273149
0.00127638
0.000280644
0.00115936
0.000273849
0.00104997
0.000248647
0.000962304
0.000205334
0.000907726
0.000148492
0.000883831
9.54429e-05
0.000887823
5.03974e-05
0.000914164
1.92748e-05
0.000961201
-5.66479e-08
0.00102411
-3.81999e-06
0.00109979
7.85534e-06
0.00117697
3.26517e-05
0.00125191
6.92063e-05
0.00131985
0.000114313
0.00137841
0.000161839
0.00142463
0.000209375
0.00145629
0.000253602
0.00147192
0.000291561
0.00147114
0.000320681
0.00145502
0.000338651
0.00142647
0.000343207
0.00139026
0.000331879
0.00135251
0.00030185
0.00131962
0.00025009
0.00129674
0.000174071
0.00128789
7.1163e-05
0.00128932
-5.22236e-05
0.00129874
-0.000196081
0.00130981
-0.00035056
0.00131505
-0.000505096
0.00130763
-0.000648867
0.00128298
-0.000773206
0.00124011
-0.000873572
0.00118178
-0.000950125
0.00111358
-0.00100662
0.00104223
-0.00104826
0.000973969
-0.00107975
0.000913534
-0.00110432
0.000863978
-0.00112386
0.000826899
-0.00113943
0.000802779
-0.00115188
0.000791211
-0.00116211
0.000791051
-0.00117105
0.000800579
-0.00117965
0.000817734
-0.00118873
0.000840418
-0.00119892
0.000866845
-0.00121077
-0.00122517
0.00089558
-0.000261609
0.000231334
-0.000610277
0.000262609
-0.000812747
5.3974e-05
-0.000816895
-0.000127622
-0.000627546
-0.000186379
-0.000310213
-0.000171657
-1.40077e-05
-0.000139876
0.00010953
-0.000125353
-8.34938e-06
-0.000151047
-0.000347279
-0.000217171
-0.000834488
-0.000319478
-0.00139217
-0.000446049
-0.00196036
-0.000580866
-0.00249541
-0.000704923
-0.00296524
-0.000791932
-0.0033493
-0.000811773
-0.00363973
-0.000748614
-0.00384102
-0.000613068
-0.00396594
-0.000436493
-0.00403023
-0.000255263
-0.00404693
-9.8427e-05
-0.00402216
1.55462e-05
-0.00395856
8.39941e-05
-0.00385927
0.000111997
-0.00372629
0.000108028
-0.00356757
8.9161e-05
-0.00339655
7.37198e-05
-0.00322351
6.85146e-05
-0.00305369
7.24275e-05
-0.002885
7.81764e-05
-0.00270628
8.08575e-05
-0.00251374
8.06171e-05
-0.00231018
7.70818e-05
-0.00210125
6.49182e-05
-0.00189141
3.88045e-05
-0.00168655
4.69378e-07
-0.00148816
-4.98978e-05
-0.00128827
-0.000104444
-0.00108489
-0.000152987
-0.000875813
-0.000189798
-0.000665636
-0.000210234
-0.000457811
-0.000211644
-0.000256401
-0.000193555
-6.62447e-05
-0.000157505
0.000109716
-0.000106754
0.000269402
-4.53731e-05
0.000409921
2.13191e-05
0.000531037
8.82595e-05
0.00063404
0.0001506
0.000721464
0.000204137
0.000796781
0.000245364
0.000864036
0.000271396
0.000927459
0.000279784
0.000991008
0.000268331
0.00105772
0.000235134
0.00112906
0.000178757
0.00120431
9.88211e-05
0.00127866
-3.18643e-06
0.00134957
-0.000123134
0.00140837
-0.000254887
0.00144794
-0.000390124
0.00146272
-0.000519877
0.00145028
-0.000636432
0.0014122
-0.000735129
0.00135384
-0.000815206
0.00128287
-0.000879163
0.00120728
-0.00093102
0.00113352
-0.000974503
0.00106584
-0.00101207
0.00100648
-0.00104496
0.000956339
-0.00107372
0.000915661
-0.00109875
0.000884336
-0.00112056
0.000862019
-0.00113979
0.000848122
-0.00115716
0.000841833
-0.00117337
0.000842182
-0.00118908
0.000848155
-0.00120489
0.000858771
-0.00122139
-0.00123918
0.000872785
0.000260005
-2.86714e-05
0.000504293
1.83213e-05
0.00061692
-5.86532e-05
0.000813667
-0.000324369
0.00122304
-0.000595751
0.00182149
-0.000770112
0.00254183
-0.000860217
0.00331585
-0.000899371
0.00406892
-0.000904116
0.00473663
-0.000884882
0.00526738
-0.00085023
0.0056253
-0.000803969
0.00579304
-0.000748602
0.00577564
-0.000687521
0.00560852
-0.000624817
0.00535676
-0.000560012
0.00508978
-0.000481634
0.00484876
-0.000372045
0.00464931
-0.000237047
0.00449073
-9.66814e-05
0.0043454
4.69077e-05
0.00419046
0.00017048
0.00399727
0.000277192
0.00374205
0.000367216
0.00340914
0.000440935
0.00299861
0.000499691
0.00252845
0.000543883
0.00202707
0.000569891
0.00152879
0.00057071
0.00106611
0.000540851
0.000664402
0.000482569
0.000339215
0.000405805
9.52062e-05
0.000321091
-7.36673e-05
0.000233792
-0.000183025
0.000148163
-0.000237646
5.50902e-05
-0.000246218
-4.13263e-05
-0.000225221
-0.000125441
-0.000182499
-0.000195709
-0.000124957
-0.00024734
-5.79125e-05
-0.000277279
1.50516e-05
-0.000284609
9.18938e-05
-0.000270397
0.000171656
-0.000237267
0.000253803
-0.000188901
0.00033834
-0.00012991
0.000424731
-6.50725e-05
0.000512284
7.06913e-07
0.000600729
6.21549e-05
0.000690431
0.000114435
0.000782194
0.000153602
0.000877085
0.000176505
0.000976005
0.000180863
0.00107911
0.000165224
0.00118517
0.000129077
0.00129102
7.29028e-05
0.00139051
-6.68242e-07
0.00148094
-9.36084e-05
0.00155372
-0.00019592
0.00160229
-0.000303453
0.00162215
-0.000409986
0.00161218
-0.000509912
0.00157526
-0.000599506
0.00151768
-0.000677554
0.00144754
-0.000745069
0.00137257
-0.000804191
0.00129852
-0.000856962
0.00122866
-0.000904652
0.00116439
-0.000947799
0.00110605
-0.000986623
0.00105372
-0.00102139
0.00100751
-0.00105253
0.000967587
-0.00108063
0.000934113
-0.00110632
0.000907133
-0.00113017
0.000886536
-0.00115277
0.000872061
-0.0011746
0.000863315
-0.00119615
0.000859764
-0.00121784
-0.00124
0.000860583
-9.77718e-05
6.91004e-05
-0.000427087
0.000347636
-0.000982421
0.000496681
-0.00167309
0.000366297
-0.00242194
0.0001531
-0.00317463
-1.74236e-05
-0.00389548
-0.000139364
-0.00455756
-0.00023729
-0.00514707
-0.000314609
-0.00564508
-0.000386867
-0.00604738
-0.000447928
-0.00635252
-0.000498832
-0.00655578
-0.000545341
-0.00664493
-0.000598371
-0.00659985
-0.000669896
-0.00641508
-0.000744783
-0.00613395
-0.000762763
-0.00583133
-0.000674673
-0.00555613
-0.000512238
-0.00530753
-0.000345282
-0.00505481
-0.000205816
-0.00478981
-9.45179e-05
-0.00449264
-1.99779e-05
-0.00417022
4.47907e-05
-0.0038267
9.7415e-05
-0.00346372
0.000136715
-0.00308213
0.000162294
-0.00268594
0.000173698
-0.00228522
0.000169987
-0.00189558
0.000151209
-0.00153271
0.000119702
-0.00120634
7.94333e-05
-0.000919182
3.39346e-05
-0.000670604
-1.47854e-05
-0.00045626
-6.61815e-05
-0.000280497
-0.000120672
-0.000152251
-0.000169572
-7.0618e-05
-0.000207074
-2.8061e-05
-0.000238266
-1.74887e-05
-0.000257912
-2.99384e-05
-0.000264829
-5.54002e-05
-0.000259146
-8.38325e-05
-0.000241965
-0.000105995
-0.000215105
-0.000114052
-0.000180844
-0.000102174
-0.000141788
-6.66828e-05
-0.000100563
-5.72518e-06
-6.02507e-05
7.93169e-05
-2.28873e-05
0.000186571
7.18074e-06
0.000312767
2.7405e-05
0.000453687
3.55858e-05
0.000604498
3.00519e-05
0.000759832
9.89054e-06
0.000913566
-2.46584e-05
0.0010606
-7.41326e-05
0.00119525
-0.000135322
0.00130735
-0.000205707
0.00139298
-0.000281548
0.00144858
-0.00035905
0.00147353
-0.000434942
0.00147063
-0.000507005
0.00144544
-0.000574318
0.00140491
-0.00063703
0.00135559
-0.000695744
0.00130233
-0.000750931
0.00124806
-0.00080269
0.0011943
-0.00085089
0.00114192
-0.000895428
0.0010917
-0.000936403
0.00104444
-0.00097412
0.00100091
-0.001009
0.00096177
-0.0010415
0.000927498
-0.00107204
0.000898365
-0.00110104
0.00087447
-0.00112887
0.000855756
-0.00115589
0.000842028
-0.00118242
0.000832944
-0.00120875
-0.00123504
0.000827984
-0.000296706
0.000365806
-0.000522901
0.000573832
-0.000626549
0.000600329
-0.000849076
0.000588824
-0.00126485
0.000568872
-0.00184051
0.000558235
-0.00253373
0.00055386
-0.0033062
0.000535176
-0.00409652
0.000475716
-0.00485115
0.000367767
-0.00550739
0.000208302
-0.00601255
6.33224e-06
-0.00632999
-0.000227897
-0.00644116
-0.000487207
-0.00635355
-0.000757508
-0.00610459
-0.000993738
-0.00575028
-0.00111707
-0.00533901
-0.00108595
-0.00489636
-0.000954887
-0.0044304
-0.00081124
-0.00394401
-0.000692207
-0.00345478
-0.000583746
-0.00299349
-0.000481265
-0.00256643
-0.000382271
-0.00218528
-0.000283737
-0.00185666
-0.000191904
-0.00158233
-0.000112033
-0.00136257
-4.60625e-05
-0.00119749
4.90352e-06
-0.00108663
4.03512e-05
-0.00102734
6.04105e-05
-0.0010135
6.55906e-05
-0.00103651
5.69495e-05
-0.00108748
3.61884e-05
-0.00115853
4.86641e-06
-0.0012444
-3.48035e-05
-0.00133362
-8.03551e-05
-0.00141183
-0.000128861
-0.00147732
-0.000172782
-0.00152131
-0.000213918
-0.00154016
-0.000245977
-0.00153353
-0.000265778
-0.00150308
-0.000272413
-0.00145094
-0.000267247
-0.00137857
-0.000253214
-0.00128662
-0.00023374
-0.00117516
-0.000212018
-0.00104463
-0.000190787
-0.000894997
-0.000172517
-0.000728671
-0.000159145
-0.000548908
-0.000152358
-0.000359831
-0.000153491
-0.000166562