/*--------------------------------*- C++ -*----------------------------------*\
| =========                 |                                                 |
| \\      /  F ield         | OpenFOAM: The Open Source CFD Toolbox           |
|  \\    /   O peration     | Version:  2012                                  |
|   \\  /    A nd           | Website:  www.openfoam.com                      |
|    \\/     M anipulation  |                                                 |
\*---------------------------------------------------------------------------*/
FoamFile
{
    version     2.0;
    format      ascii;
    class       volVectorField;
    location    "0.13";
    object      U;
}
// * * * * * * * * * * * * * * * * * * * * * * * * * * * * * * * * * * * * * //

dimensions      [0 1 -1 0 0 0 0];


internalField   nonuniform List<vector> 
42400
(
(-9.35783 7.85334 3.17265e-17)
(-20.3011 13.9896 4.62905e-17)
(-23.6576 12.0686 -4.73225e-17)
(-25.688 8.80844 0)
(-27.158 8.297 0)
(-27.235 8.8038 -2.35436e-19)
(-25.2596 8.89898 0)
(-22.0092 7.86269 2.85241e-19)
(-18.6898 5.84536 0)
(-15.8405 3.21827 3.18017e-19)
(-13.1069 0.149149 3.27626e-19)
(-9.71404 -3.48125 -3.32717e-19)
(-5.128 -7.84225 -2.57261e-17)
(0.386208 -12.7491 2.6227e-17)
(5.67906 -17.364 -3.2534e-19)
(9.3289 -20.419 0)
(10.5248 -20.9029 0)
(9.39259 -18.6658 0)
(6.679 -14.4009 0)
(3.30911 -9.13675 0)
(0.101615 -3.81521 0)
(-2.40757 0.909022 -4.09072e-19)
(-3.98972 4.69675 -1.79811e-18)
(-4.68293 7.45859 6.84617e-20)
(-4.65634 9.23943 1.02818e-18)
(-4.06287 10.0763 -3.16564e-19)
(-2.98553 9.97127 -2.96677e-19)
(-1.49301 8.97313 5.4962e-19)
(0.271999 7.25809 0)
(2.05276 5.13183 0)
(3.53607 2.9565 3.19984e-18)
(4.47193 1.04098 -3.2355e-18)
(4.75304 -0.437863 2.7127e-19)
(4.42454 -1.4495 -2.85379e-18)
(3.6382 -2.07443 2.69973e-18)
(2.58288 -2.43283 0)
(1.43176 -2.61693 0)
(0.314271 -2.6746 0)
(-0.697686 -2.63447 0)
(-1.5785 -2.52896 -7.67265e-19)
(-2.32047 -2.38815 7.69878e-19)
(-2.92004 -2.22327 -2.96537e-19)
(-3.38589 -2.04198 1.99497e-19)
(-3.74191 -1.85514 1.11328e-19)
(-4.01137 -1.66722 9.75945e-21)
(-4.20904 -1.47718 -1.57476e-19)
(-4.34553 -1.28264 3.39359e-19)
(-4.42846 -1.08235 -1.84708e-19)
(-4.46163 -0.875745 -1.98482e-21)
(-4.44661 -0.663174 1.72912e-19)
(-4.38434 -0.446254 -3.15559e-19)
(-4.27519 -0.227749 3.46976e-20)
(-4.11888 -0.0109225 1.03843e-19)
(-3.91455 0.200872 6.9343e-21)
(-3.66118 0.40424 0)
(-3.35795 0.595784 0)
(-3.00451 0.772187 0)
(-2.60126 0.930307 -2.14674e-20)
(-2.14962 1.06728 -2.43006e-20)
(-1.65225 1.18056 0)
(-1.11326 1.26808 -3.57461e-19)
(-0.538556 1.32837 3.80866e-19)
(0.0642548 1.36054 3.86911e-19)
(0.685494 1.3647 -3.79546e-19)
(1.31331 1.34199 0)
(1.93384 1.29478 0)
(2.5315 1.22683 3.32986e-19)
(3.08985 1.1436 -3.2545e-19)
(3.59331 1.05216 -4.50931e-20)
(4.0292 0.960985 0)
(4.39093 0.878819 0)
(4.68097 0.813022 -2.99689e-20)
(4.91222 0.76802 -2.48082e-20)
(5.10657 0.744727 0)
(5.29023 0.741291 -1.48642e-20)
(5.48796 0.754359 -1.94745e-21)
(5.71931 0.780298 1.88898e-21)
(5.99174 0.81037 3.01663e-21)
(6.33821 0.854649 -9.86989e-20)
(6.61763 0.844344 -1.65163e-19)
(-26.2272 23.1874 0)
(-62.2443 61.83 -1.739e-17)
(-78.6274 74.4242 1.77105e-17)
(-68.8579 70.6536 0)
(-50.6569 55.2171 0)
(-31.4237 40.0559 1.6729e-17)
(-15.7136 28.0439 -1.68791e-17)
(-3.82281 18.9151 -2.88768e-19)
(5.10635 11.7019 0)
(11.872 5.71444 -3.22713e-19)
(16.9887 0.547383 -3.32736e-19)
(20.6323 -3.95221 -5.57998e-17)
(22.6335 -7.71192 -1.7971e-18)
(22.7909 -10.6702 6.0852e-17)
(21.3467 -13.0597 6.29239e-17)
(19.0842 -15.3376 -6.322e-17)
(16.7875 -17.7404 0)
(14.7815 -20.083 5.69106e-19)
(13.0798 -22.0066 0)
(11.6387 -23.1789 0)
(10.3963 -23.3683 0)
(9.23833 -22.4176 -4.82059e-17)
(8.05347 -20.1885 3.63699e-18)
(6.74671 -16.6579 4.74522e-17)
(5.39114 -12.0271 0)
(4.27297 -6.81851 2.92948e-20)
(3.71718 -1.67392 2.98158e-19)
(3.75139 2.9026 -5.51444e-19)
(4.05005 6.58707 -2.73847e-17)
(4.29037 9.0498 2.76817e-17)
(4.30709 10.0989 -2.44597e-19)
(4.09657 9.80478 -2.0679e-19)
(3.76057 8.53298 -1.27076e-17)
(3.37566 6.75148 1.27247e-17)
(2.95168 4.87993 7.87115e-18)
(2.46644 3.21429 -7.85064e-18)
(1.89784 1.90032 0)
(1.2436 0.953744 5.99294e-20)
(0.537309 0.322968 0)
(-0.170568 -0.0706591 6.62056e-20)
(-0.829419 -0.298761 -1.31027e-18)
(-1.4048 -0.418436 1.36149e-18)
(-1.88812 -0.480031 -3.21334e-20)
(-2.27817 -0.510726 2.02387e-20)
(-2.57973 -0.520061 -2.64875e-21)
(-2.80378 -0.513345 5.41847e-21)
(-2.96089 -0.492232 -1.40499e-21)
(-3.05703 -0.455235 -1.5211e-19)
(-3.09653 -0.401842 1.52559e-19)
(-3.08395 -0.333844 0)
(-3.02216 -0.253383 -6.85566e-21)
(-2.91202 -0.162498 1.40214e-23)
(-2.75408 -0.0639623 -1.46682e-19)
(-2.54909 0.0387508 1.41652e-19)
(-2.29808 0.141884 2.72879e-20)
(-2.00242 0.241682 -3.95434e-19)
(-1.66402 0.334567 4.53883e-19)
(-1.28546 0.417383 2.14562e-20)
(-0.870406 0.487469 2.42899e-20)
(-0.423272 0.542598 -5.6027e-19)
(0.0506636 0.581752 5.51268e-19)
(0.544549 0.604325 -2.95231e-20)
(1.05027 0.610759 -4.05974e-20)
(1.55938 0.603027 0)
(2.06281 0.583899 4.78845e-19)
(2.55167 0.556997 -1.33869e-20)
(3.01823 0.526615 -5.92034e-19)
(3.45701 0.497315 0)
(3.86583 0.47344 1.07294e-19)
(4.24635 0.458681 -5.68624e-20)
(4.60375 0.455852 -3.36033e-19)
(4.94542 0.466899 3.57254e-19)
(5.27896 0.492932 2.73057e-19)
(5.61055 0.534033 -2.75888e-19)
(5.944 0.588814 4.40683e-20)
(6.2808 0.653853 -1.27228e-19)
(6.62157 0.724292 8.4587e-20)
(6.961 0.789591 -3.01533e-21)
(7.32355 0.856435 4.91444e-20)
(7.57363 0.871271 -2.60196e-20)
(-8.75388 7.14223 -1.60046e-17)
(-17.6705 14.0015 -2.45474e-19)
(-17.1492 20.4489 6.25654e-20)
(-15.5345 21.1511 -2.30961e-19)
(-13.5913 22.9823 0)
(-12.8168 23.6715 -3.16522e-17)
(-12.9588 23.383 5.95965e-17)
(-13.479 22.6358 -2.78592e-17)
(-14.4725 21.2627 2.03648e-17)
(-15.8086 19.3913 -2.91918e-18)
(-17.3973 17.0287 -1.84667e-17)
(-19.1319 14.1276 -2.64541e-19)
(-20.8374 10.6434 -2.74192e-19)
(-22.2049 6.54528 1.31377e-17)
(-22.88 1.76792 -1.33808e-17)
(-22.5678 -3.75988 -7.07528e-19)
(-21.1122 -10.0088 -1.15379e-17)
(-18.5116 -16.8549 3.78177e-19)
(-14.8325 -24.1376 1.13879e-17)
(-10.1253 -31.717 -2.09029e-20)
(-4.39252 -39.4347 -1.95734e-20)
(2.39419 -47.0834 -4.518e-20)
(10.1627 -54.2754 0)
(18.4591 -60.4444 -3.15445e-19)
(26.3944 -64.7808 -1.20528e-18)
(32.7892 -66.341 5.216e-18)
(36.5088 -64.4574 -3.78323e-18)
(36.3651 -58.648 6.7847e-18)
(31.2939 -48.5431 -6.89713e-18)
(22.0472 -35.405 -6.43119e-18)
(11.5532 -22.1919 1.15437e-17)
(2.70572 -11.4465 -1.04829e-18)
(-3.28012 -4.05527 -3.98919e-18)
(-6.61938 0.308032 0)
(-8.07557 2.43783 0)
(-8.40104 3.10752 9.81033e-20)
(-8.14092 2.92995 0)
(-7.63449 2.34087 -1.45819e-19)
(-7.06865 1.62208 -9.41391e-21)
(-6.53077 0.932829 -2.07378e-19)
(-6.05099 0.346726 -1.74911e-20)
(-5.62968 -0.116916 0)
(-5.25757 -0.466575 0)
(-4.92165 -0.718252 1.41517e-19)
(-4.61104 -0.887595 -1.50388e-19)
(-4.31759 -0.989625 -2.41544e-20)
(-4.03562 -1.03703 0)
(-3.76096 -1.04158 0)
(-3.48989 -1.01358 -2.9318e-20)
(-3.21912 -0.961651 2.917e-20)
(-2.9456 -0.893346 6.85897e-21)
(-2.66628 -0.815454 0)
(-2.37802 -0.733646 2.37057e-19)
(-2.07773 -0.65266 -2.04731e-19)
(-1.76267 -0.576341 5.17864e-19)
(-1.43051 -0.507781 -5.2779e-19)
(-1.07915 -0.449222 6.0755e-19)
(-0.706901 -0.401744 -1.30725e-18)
(-0.313492 -0.366445 1.36534e-18)
(0.100283 -0.343235 2.7318e-20)
(0.533608 -0.330468 -7.05266e-19)
(0.985072 -0.325561 -7.26691e-19)
(1.45228 -0.325096 7.54255e-19)
(1.93177 -0.325668 0)
(2.41979 -0.323277 -6.05468e-19)
(2.91225 -0.313813 1.38925e-20)
(3.40481 -0.293508 7.95443e-19)
(3.89306 -0.259238 0)
(4.37263 -0.2088 -1.35506e-19)
(4.83923 -0.141146 -4.39502e-19)
(5.28881 -0.056543 4.21421e-19)
(5.71777 0.0433244 0)
(6.12332 0.155364 0)
(6.50377 0.275247 3.45154e-20)
(6.85866 0.397765 -2.91995e-20)
(7.18856 0.517232 -1.58118e-19)
(7.49499 0.628319 2.585e-19)
(7.77763 0.724534 0)
(8.0487 0.808314 -2.22844e-20)
(8.2554 0.858508 -9.34264e-20)
(25.0247 -15.5958 1.18444e-16)
(56.205 -31.5189 -1.72904e-16)
(60.1507 -30.9829 8.67722e-17)
(53.3 -19.0405 7.93924e-17)
(45.5498 -8.13882 -8.10669e-17)
(41.9192 1.63892 0)
(40.6362 10.8344 1.35635e-16)
(39.4765 20.5494 -1.38221e-16)
(37.1866 31.012 1.17903e-16)
(33.6641 41.7163 -1.20287e-16)
(29.4425 51.9394 9.85848e-17)
(25.1349 61.0635 -1.88619e-16)
(21.1958 68.6847 1.6706e-16)
(17.9135 74.6135 -1.45475e-16)
(15.4266 78.7538 1.2367e-16)
(13.7457 81.0483 -5.67536e-17)
(12.8197 81.4847 -3.50586e-17)
(12.5858 80.0535 6.08298e-17)
(13.0104 76.7401 -2.59485e-17)
(14.1025 71.5111 2.16189e-20)
(15.8839 64.311 3.32526e-19)
(18.3322 55.1417 -4.01385e-19)
(21.2915 44.207 1.64591e-19)
(24.3572 31.9979 -4.75207e-20)
(26.8393 19.3729 0)
(27.9208 7.469 8.22433e-21)
(26.9486 -2.65222 0)
(23.6419 -10.2364 3.66381e-18)
(18.2567 -14.8813 1.61699e-18)
(11.7828 -16.7844 -5.44347e-18)
(5.53773 -16.6425 -7.2196e-18)
(0.466407 -15.2801 7.12253e-18)
(-3.0551 -13.4718 -1.2616e-19)
(-5.09022 -11.8034 -2.3786e-19)
(-6.02059 -10.5038 -7.02956e-18)
(-6.33557 -9.52109 7.24319e-18)
(-6.35277 -8.69906 0)
(-6.17962 -7.94642 5.16771e-18)
(-5.85071 -7.22658 -5.1094e-18)
(-5.42383 -6.51703 1.20956e-19)
(-4.97009 -5.82125 -8.21549e-20)
(-4.53858 -5.15639 0)
(-4.14965 -4.54184 0)
(-3.80524 -3.99151 0)
(-3.4997 -3.50981 -9.89087e-21)
(-3.2254 -3.09427 5.55335e-19)
(-2.97512 -2.73841 -5.29986e-19)
(-2.74259 -2.43489 0)
(-2.52211 -2.17686 0)
(-2.30826 -1.95844 -1.30056e-19)
(-2.0955 -1.77461 1.04266e-19)
(-1.87831 -1.62112 -2.74745e-19)
(-1.65172 -1.49468 1.87449e-19)
(-1.41077 -1.39286 -5.5247e-20)
(-1.15079 -1.3138 3.20714e-19)
(-0.868184 -1.25661 -4.1355e-19)
(-0.559944 -1.21974 7.9948e-19)
(-0.222572 -1.20072 -7.36235e-19)
(0.14772 -1.19585 0)
(0.553544 -1.20074 5.06382e-20)
(0.995671 -1.21131 8.04276e-19)
(1.47359 -1.22212 -4.51663e-20)
(1.98494 -1.2272 -1.60653e-18)
(2.52486 -1.22038 1.47965e-18)
(3.08604 -1.19584 -6.55879e-19)
(3.65899 -1.14873 -7.11198e-19)
(4.23269 -1.07574 5.28893e-19)
(4.79548 -0.975552 8.05248e-20)
(5.3361 -0.849052 6.00389e-19)
(5.84469 -0.699318 -5.88627e-19)
(6.31368 -0.53132 1.28935e-19)
(6.73821 -0.351422 5.29036e-19)
(7.11636 -0.166724 -4.55259e-19)
(7.44888 0.015635 0)
(7.73872 0.189119 3.30668e-19)
(7.99026 0.348259 -1.00091e-19)
(8.20878 0.489063 -6.01426e-19)
(8.39865 0.608192 2.43582e-19)
(8.57189 0.708094 -1.86965e-19)
(8.69769 0.777601 1.80667e-19)
(-5.09591 0.769206 -3.65434e-17)
(-24.5556 7.43085 0)
(-45.8069 14.5477 0)
(-51.5718 11.2927 -1.32709e-19)
(-39.424 -0.793023 0)
(-20.3065 -15.3512 0)
(-3.61559 -26.5241 0)
(4.88618 -31.5762 -6.6591e-19)
(4.49561 -30.9109 0)
(-1.89105 -26.8364 3.64736e-19)
(-10.57 -21.6819 -2.92358e-17)
(-18.9582 -16.7611 4.9798e-17)
(-25.8699 -12.4363 -1.94726e-17)
(-30.9823 -8.57426 0)
(-34.3531 -4.93806 -2.53253e-19)
(-36.2083 -1.3392 4.29137e-19)
(-36.8027 2.35203 0)
(-36.3339 6.16892 2.44925e-17)
(-34.9191 10.0475 -5.32104e-17)
(-32.644 13.8226 -2.42801e-18)
(-29.5227 17.2656 3.17572e-17)
(-25.6341 20.0673 2.85094e-19)
(-21.0284 21.9065 0)
(-15.8453 22.4972 -3.43227e-17)
(-10.3368 21.7442 3.48757e-17)
(-4.87195 19.8159 -3.13052e-17)
(0.127739 17.1095 3.1791e-17)
(4.31209 14.1525 2.67831e-17)
(7.45355 11.4677 -2.68629e-17)
(9.39737 9.38444 0)
(10.0036 7.99053 -1.6362e-17)
(9.18006 7.30516 1.65755e-17)
(6.96292 7.36288 2.8738e-19)
(3.67441 7.98318 -6.06635e-18)
(0.123903 8.57563 6.37119e-18)
(-2.61025 8.44879 -1.13611e-19)
(-3.87528 7.36442 -1.71253e-20)
(-3.84711 5.60673 -2.64102e-19)
(-3.18377 3.67423 2.65737e-19)
(-2.47859 1.97249 -3.82349e-19)
(-2.01078 0.670118 -4.80071e-20)
(-1.80082 -0.243376 5.48495e-19)
(-1.75207 -0.850638 0)
(-1.76162 -1.23871 -3.42394e-20)
(-1.76535 -1.47361 6.35699e-19)
(-1.74023 -1.59994 -1.36952e-18)
(-1.68512 -1.64968 1.33198e-18)
(-1.6053 -1.64831 -6.21861e-19)
(-1.50522 -1.61668 0)
(-1.38755 -1.57149 -4.18416e-20)
(-1.25307 -1.52436 5.98051e-19)
(-1.10062 -1.48218 -6.09431e-19)
(-0.928679 -1.45055 -1.98213e-20)
(-0.735257 -1.43373 5.1984e-19)
(-0.515455 -1.43224 -4.08412e-19)
(-0.261726 -1.44474 4.83056e-19)
(0.0324336 -1.471 4.99269e-19)
(0.372653 -1.51094 -9.60101e-19)
(0.764241 -1.56221 8.38249e-19)
(1.21141 -1.62038 -8.76321e-19)
(1.71561 -1.67889 0)
(2.2746 -1.72945 4.84575e-20)
(2.88171 -1.76271 7.39284e-19)
(3.52565 -1.76924 -6.32758e-19)
(4.19096 -1.74078 -1.68409e-19)
(4.85926 -1.67132 0)
(5.51103 -1.55807 -6.44462e-19)
(6.12762 -1.40189 5.57952e-19)
(6.69302 -1.20732 7.63219e-20)
(7.19534 -0.982102 6.71875e-20)
(7.62752 -0.736295 -1.2974e-19)
(7.98755 -0.481312 -2.36467e-21)
(8.27808 -0.228792 4.89672e-19)
(8.50567 0.0104735 -4.2357e-19)
(8.6796 0.2275 4.44099e-20)
(8.81066 0.415869 0)
(8.90951 0.571952 3.48506e-19)
(8.98628 0.69501 -2.70407e-19)
(9.04845 0.788097 0)
(9.09584 0.843531 1.94502e-19)
(-3.88591 3.03899 7.7192e-20)
(2.0236 0.884361 1.35953e-17)
(23.8154 -8.30633 -1.33875e-17)
(54.7864 -22.892 2.75202e-17)
(86.0215 -37.054 -1.39454e-17)
(108.297 -46.769 -1.72568e-19)
(114.668 -47.7083 -1.74946e-17)
(103.564 -38.5346 1.85359e-17)
(80.6051 -22.2139 2.5754e-19)
(55.3945 -4.29873 -8.55636e-20)
(35.3661 10.5481 2.55971e-17)
(22.7027 20.6327 2.84961e-17)
(16.0133 26.5239 -5.62432e-17)
(13.1711 29.3834 5.95425e-17)
(12.5454 30.1583 -1.20074e-16)
(12.9814 29.5424 6.13701e-17)
(13.6634 28.0841 0)
(14.1041 26.2187 0)
(14.1002 24.2669 -5.38841e-17)
(13.6195 22.4534 4.79843e-18)
(12.746 20.9377 4.99387e-17)
(11.4359 19.7531 -3.94652e-17)
(9.78714 18.8792 7.43378e-17)
(7.89128 18.1677 -3.47924e-17)
(5.8543 17.4174 -2.39121e-17)
(3.81285 16.469 5.13877e-18)
(1.80423 15.2677 1.91415e-17)
(-0.230003 13.863 -2.38796e-19)
(-2.38397 12.3578 1.99126e-19)
(-4.70299 10.8587 -3.28868e-19)
(-7.12683 9.44136 0)
(-9.47907 8.14726 -1.82565e-18)
(-11.4769 6.97861 3.13398e-18)
(-12.7697 5.87179 -1.26205e-18)
(-13.0556 4.72155 0)
(-12.2799 3.47559 3.6962e-19)
(-10.7265 2.19013 -3.92792e-19)
(-8.86113 0.977242 0)
(-7.07618 -0.063657 0)
(-5.56206 -0.881326 1.6072e-19)
(-4.33524 -1.47309 -1.68405e-19)
(-3.33623 -1.86805 5.65323e-20)
(-2.50436 -2.10934 0)
(-1.81161 -2.23061 -4.58813e-19)
(-1.25467 -2.25126 -4.43438e-20)
(-0.834639 -2.1842 6.13708e-19)
(-0.543991 -2.04897 6.7973e-20)
(-0.360637 -1.87435 -1.07522e-19)
(-0.249954 -1.68572 0)
(-0.176259 -1.5043 7.3187e-19)
(-0.110382 -1.34459 -1.366e-18)
(-0.0321133 -1.2155 7.11612e-19)
(0.0725046 -1.12024 7.43947e-20)
(0.21329 -1.05899 6.30293e-19)
(0.396923 -1.03317 -1.032e-19)
(0.629902 -1.04523 -9.85349e-19)
(0.921306 -1.09421 3.55682e-19)
(1.28064 -1.17677 0)
(1.71632 -1.28667 0)
(2.2337 -1.41447 -3.72698e-20)
(2.83292 -1.54744 -3.34864e-20)
(3.50712 -1.67029 0)
(4.24147 -1.76659 -5.33511e-19)
(5.01346 -1.82077 5.23621e-19)
(5.79477 -1.82017 6.36778e-19)
(6.55438 -1.75687 6.52933e-20)
(7.26223 -1.62875 -4.66884e-19)
(7.89275 -1.43972 5.36995e-19)
(8.42732 -1.19899 -5.24266e-19)
(8.8556 -0.919792 -1.14949e-20)
(9.17557 -0.617931 -4.05034e-19)
(9.39284 -0.310213 3.97232e-19)
(9.5192 -0.0130561 3.47009e-19)
(9.57097 0.258838 -4.32507e-19)
(9.56688 0.493693 2.88161e-19)
(9.52591 0.683769 -3.22839e-19)
(9.46465 0.825476 2.73725e-19)
(9.39752 0.921352 -5.14673e-19)
(9.32494 0.971198 1.27352e-20)
(9.28328 0.994864 1.30149e-20)
(3.59621 -2.29777 2.03341e-18)
(11.4027 -3.94962 -4.5799e-20)
(17.5017 -9.61562 1.16085e-18)
(22.0944 -11.7126 -4.50201e-18)
(21.6603 -14.7974 3.4473e-18)
(19.9949 -18.5718 -7.68181e-18)
(19.0558 -23.7119 -1.92725e-18)
(19.3834 -29.3108 9.67969e-18)
(19.8879 -33.555 -1.24611e-17)
(18.8908 -34.951 1.19181e-17)
(15.6057 -33.1137 -1.35011e-17)
(10.4204 -28.6292 1.36672e-17)
(4.21345 -22.4031 -1.41732e-17)
(-2.17975 -15.2633 1.41139e-17)
(-8.04531 -7.90344 -3.46982e-19)
(-12.7379 -0.957566 -3.46571e-19)
(-15.6854 4.98862 -2.73731e-17)
(-16.5239 9.46622 2.78807e-17)
(-15.294 12.234 6.31244e-19)
(-12.5889 13.4207 -2.90183e-19)
(-9.4576 13.5235 -2.40982e-17)
(-7.06062 13.2073 2.39142e-17)
(-6.00671 13.008 0)
(-6.14392 13.1274 2.8829e-19)
(-6.93177 13.5136 0)
(-7.88944 14.006 0)
(-8.83973 14.4817 2.46435e-19)
(-9.75908 14.8933 1.69595e-17)
(-10.6307 15.2239 -1.73398e-17)
(-11.3989 15.4574 -1.35139e-17)
(-11.9763 15.5812 1.3966e-17)
(-12.2577 15.5844 -2.19918e-19)
(-12.1348 15.4492 1.81104e-19)
(-11.5168 15.1461 0)
(-10.3704 14.6318 2.36837e-19)
(-8.75191 13.8729 0)
(-6.80997 12.8751 0)
(-4.74553 11.6928 1.52274e-19)
(-2.75288 10.4188 0)
(-0.981541 9.15522 0)
(0.47564 7.98443 -2.51202e-18)
(1.58032 6.95347 2.43689e-18)
(2.33836 6.07505 0)
(2.78684 5.34081 0)
(2.97391 4.72043 0)
(2.95662 4.18014 1.13097e-19)
(2.80157 3.69968 -6.75412e-20)
(2.57239 3.26307 -1.26405e-18)
(2.323 2.86103 1.32416e-18)
(2.09237 2.4871 -1.09267e-18)
(1.90482 2.13865 1.20642e-18)
(1.77304 1.815 -1.07323e-19)
(1.70286 1.5157 -5.09235e-20)
(1.69774 1.23751 0)
(1.76221 0.973654 0)
(1.90352 0.714634 4.14077e-19)
(2.1329 0.45129 -1.53802e-20)
(2.46345 0.176052 -3.95625e-19)
(2.90763 -0.113259 2.80093e-19)
(3.47292 -0.411642 -2.66097e-19)
(4.15708 -0.706821 -3.81673e-19)
(4.94453 -0.980825 2.9279e-20)
(5.80543 -1.21293 7.17568e-19)
(6.69797 -1.38337 -3.56156e-19)
(7.57355 -1.47693 -1.75962e-20)
(8.38382 -1.48562 -5.77617e-20)
(9.08741 -1.40975 -3.94466e-19)
(9.65493 -1.2573 7.84205e-19)
(10.0711 -1.04217 -3.89296e-19)
(10.3342 -0.781812 -5.56151e-20)
(10.4542 -0.495206 -3.66382e-19)
(10.4498 -0.20133 3.9384e-19)
(10.3458 0.0818707 0)
(10.1707 0.33836 4.26415e-20)
(9.95337 0.555006 0)
(9.72099 0.722787 -2.56149e-19)
(9.49539 0.837456 8.836e-21)
(9.29204 0.901833 2.3234e-19)
(9.11063 0.914436 -1.63996e-19)
(8.98912 0.918684 -4.2678e-20)
(-6.17897 2.43842 1.43943e-17)
(-9.46387 1.67188 -2.16306e-17)
(-4.47895 -1.61124 1.17168e-19)
(0.725689 -7.55319 -1.68429e-17)
(3.89785 -11.1321 1.72124e-17)
(5.78616 -14.1064 -1.18288e-17)
(7.45418 -16.7406 2.17637e-17)
(9.43193 -19.1785 -9.4761e-18)
(11.8247 -21.5696 5.07971e-18)
(14.6483 -23.9355 -4.91702e-18)
(17.9381 -26.2188 0)
(21.7228 -28.2816 2.61282e-19)
(25.8497 -29.9955 -1.34949e-19)
(29.8222 -31.1675 0)
(32.7968 -31.3329 0)
(33.7184 -29.9514 0)
(31.6963 -26.7387 0)
(26.415 -21.7573 5.39377e-20)
(18.341 -15.497 0)
(8.67809 -8.81838 6.56772e-18)
(-0.844242 -2.78599 -6.09865e-18)
(-8.3671 1.60119 -1.43423e-17)
(-12.6044 3.83714 1.48898e-17)
(-13.5334 4.18284 1.36569e-17)
(-12.405 3.48678 -1.4269e-17)
(-10.8072 2.65681 1.2465e-17)
(-9.64073 2.23207 -1.28866e-17)
(-8.94897 2.33273 1.15065e-17)
(-8.47846 2.88934 -5.49192e-19)
(-8.04114 3.80384 -1.11054e-17)
(-7.53804 4.96485 0)
(-6.91223 6.24346 -2.64725e-19)
(-6.12606 7.51438 -2.56397e-19)
(-5.16406 8.6779 0)
(-4.044 9.66855 -2.35718e-19)
(-2.82518 10.4469 0)
(-1.59566 10.9954 0)
(-0.450283 11.3213 -5.25035e-18)
(0.532868 11.4499 9.424e-18)
(1.30319 11.4119 -4.47296e-18)
(1.84032 11.2364 -3.28755e-18)
(2.15193 10.9491 3.41733e-18)
(2.26666 10.5707 9.40956e-20)
(2.22569 10.1179 0)
(2.07595 9.60389 -2.25297e-18)
(1.86441 9.04085 1.9924e-18)
(1.63527 8.44131 0)
(1.42775 7.8172 0)
(1.27283 7.18043 1.24533e-18)
(1.1899 6.54341 -1.40292e-18)
(1.18553 5.91843 -1.16048e-18)
(1.25453 5.31644 1.08013e-18)
(1.384 4.74487 8.1763e-19)
(1.56018 4.20535 -1.41109e-18)
(1.77607 3.69259 6.44568e-19)
(2.03793 3.19521 1.17307e-19)
(2.36734 2.69918 0)
(2.79682 2.19244 -3.32616e-20)
(3.35769 1.67049 1.90491e-19)
(4.06938 1.13855 -3.4869e-19)
(4.92929 0.612681 1.61504e-19)
(5.90788 0.11703 0)
(6.95112 -0.321251 1.74676e-20)
(7.98928 -0.677838 0)
(8.94939 -0.936168 1.75809e-20)
(9.76813 -1.09022 9.67141e-21)
(10.4016 -1.14454 2.2135e-20)
(10.8294 -1.11186 2.58288e-19)
(11.0534 -1.00955 -2.26539e-19)
(11.0926 -0.856209 2.61333e-20)
(10.9769 -0.669481 2.49397e-19)
(10.7417 -0.465361 -3.05083e-19)
(10.4247 -0.258353 2.25708e-19)
(10.0633 -0.0617713 -2.19499e-19)
(9.69214 0.112496 2.29034e-19)
(9.34086 0.254913 -1.77707e-19)
(9.03087 0.359568 -1.95618e-19)
(8.77321 0.425209 1.8964e-19)
(8.56705 0.451785 -5.05562e-20)
(8.42368 0.473994 4.92442e-20)
(9.74824 -3.38827 3.64249e-17)
(26.5201 -5.84815 5.0738e-17)
(32.2065 -7.84828 -1.00021e-16)
(32.0472 -3.6962 9.44839e-17)
(29.505 -1.71336 -4.62211e-17)
(29.9029 -0.392084 -1.05115e-19)
(33.0042 0.149076 3.40127e-17)
(37.0044 0.584361 -6.48888e-17)
(40.3458 1.50306 3.84298e-18)
(42.2632 2.97402 2.7147e-17)
(42.6553 4.74881 -3.02825e-19)
(41.7059 6.52488 -1.87877e-17)
(39.6713 8.06618 1.9132e-17)
(36.8359 9.19262 -1.50731e-17)
(33.456 9.82244 1.53489e-17)
(29.7214 10.0114 1.21458e-17)
(25.7569 9.95497 -1.23607e-17)
(21.6141 9.95673 -5.35718e-20)
(17.2722 10.3004 0)
(12.6934 11.1806 -6.72767e-18)
(7.92515 12.657 6.69225e-18)
(3.20847 14.5365 2.12746e-19)
(-1.05228 16.3918 2.22325e-18)
(-4.49793 17.7471 -2.38878e-18)
(-6.89365 18.2638 1.90952e-19)
(-8.00032 17.8487 0)
(-7.63128 16.6631 -2.80971e-20)
(-6.01916 15.0516 1.18849e-19)
(-3.87202 13.4206 5.7424e-18)
(-1.92576 12.0922 -5.82548e-18)
(-0.554237 11.2165 -6.8571e-18)
(0.240743 10.7879 7.15198e-18)
(0.628952 10.6987 1.6561e-19)
(0.789066 10.8035 7.00322e-18)
(0.846099 10.9755 -1.35802e-17)
(0.868303 11.138 6.66368e-18)
(0.881048 11.2566 5.70185e-18)
(0.879788 11.3208 -5.82193e-18)
(0.848958 11.3331 7.57667e-20)
(0.774632 11.3055 7.21898e-20)
(0.650583 11.245 -1.20991e-19)
(0.478998 11.1564 3.43258e-18)
(0.271326 11.0378 -5.0485e-19)
(0.0495266 10.8816 -3.02822e-18)
(-0.159352 10.6761 2.46673e-18)
(-0.325285 10.4076 -2.31719e-18)
(-0.418737 10.0639 0)
(-0.417277 9.63754 -1.56467e-18)
(-0.311527 9.1293 1.58612e-18)
(-0.109003 8.54961 -1.0237e-18)
(0.165999 7.91822 2.26583e-19)
(0.478248 7.26044 1.40786e-19)
(0.79289 6.60091 1.23707e-19)
(1.08926 5.95667 1.09808e-19)
(1.37216 5.33267 5.35575e-19)
(1.67506 4.72117 -3.7241e-20)
(2.0521 4.10484 0)
(2.565 3.47276 2.19719e-19)
(3.26344 2.8227 -1.59373e-19)
(4.16267 2.15915 0)
(5.23837 1.5008 4.7027e-20)
(6.42792 0.875413 -4.49048e-20)
(7.64054 0.312002 0)
(8.77532 -0.165438 -5.97178e-22)
(9.74163 -0.542847 0)
(10.4761 -0.817981 9.50698e-20)
(10.9517 -0.998885 -2.48379e-19)
(11.1759 -1.09984 1.25796e-19)
(11.1815 -1.13664 -2.57035e-20)
(11.0144 -1.12314 -2.61492e-20)
(10.723 -1.07008 1.63937e-19)
(10.3523 -0.985843 -1.34559e-19)
(9.94228 -0.878086 1.87927e-20)
(9.52722 -0.755114 1.90617e-20)
(9.13573 -0.626181 -4.22746e-20)
(8.7892 -0.500744 -2.25203e-20)
(8.50008 -0.38713 -1.88467e-19)
(8.27087 -0.29153 -8.92793e-21)
(8.09628 -0.215327 1.87877e-19)
(7.96865 -0.15011 4.37079e-20)
(11.85 -5.52524 0)
(16.8922 -9.07308 -2.02266e-19)
(3.97242 -6.06032 1.3805e-19)
(-9.22308 -3.92851 -3.65047e-18)
(-10.895 -7.15412 9.92183e-18)
(-0.724004 -15.691 -1.52403e-17)
(15.5649 -26.5306 9.23706e-18)
(29.7584 -35.8534 0)
(37.7606 -41.2059 3.4e-19)
(39.842 -42.3918 -1.61966e-17)
(37.8639 -40.5338 1.68717e-17)
(33.661 -36.9428 1.68758e-17)
(28.5912 -32.5809 -3.37707e-17)
(23.4553 -28.0451 9.54657e-19)
(18.5622 -23.6953 1.0123e-18)
(13.9457 -19.7226 1.58351e-17)
(9.53994 -16.1625 -7.57687e-20)
(5.25676 -12.9635 -1.29844e-17)
(1.03615 -10.0088 1.32675e-17)
(-3.09888 -7.23559 1.50439e-19)
(-7.00497 -4.58467 -3.86397e-20)
(-10.4423 -2.06674 -2.80451e-19)
(-13.1372 0.251391 -7.4841e-18)
(-14.8444 2.25172 1.4911e-18)
(-15.3908 3.81184 6.20402e-18)
(-14.7239 4.85303 -2.71519e-20)
(-13.0076 5.38447 -2.94294e-18)
(-10.6501 5.50427 5.31762e-18)
(-8.15105 5.33945 -4.04094e-18)
(-5.88739 5.0113 1.7561e-18)
(-4.03612 4.62074 0)
(-2.6189 4.2427 -1.49952e-18)
(-1.57834 3.9283 2.82046e-18)
(-0.831263 3.71098 -1.27871e-18)
(-0.296779 3.61246 6.18478e-19)
(0.0942755 3.64342 -6.83955e-19)
(0.391159 3.80712 8.88401e-20)
(0.617694 4.10212 0)
(0.774627 4.51686 9.79773e-20)
(0.851254 5.0317 2.71543e-20)
(0.838984 5.61824 -8.23537e-20)
(0.734828 6.24652 -1.37435e-20)
(0.543503 6.88118 1.24078e-20)
(0.283442 7.49429 0)
(-0.0154254 8.06156 0)
(-0.322691 8.5478 -3.27373e-19)
(-0.606694 8.92056 2.93615e-19)
(-0.836716 9.15594 6.01855e-20)
(-0.98886 9.2363 3.08934e-19)
(-1.04967 9.15249 -6.02343e-19)
(-1.01809 8.90704 3.04456e-19)
(-0.90425 8.51555 0)
(-0.723229 8.00476 -2.53873e-19)
(-0.484082 7.40694 2.52073e-19)
(-0.177836 6.75197 0)
(0.228746 6.06117 -1.67451e-19)
(0.787908 5.34804 1.48393e-19)
(1.54877 4.61508 -5.92947e-20)
(2.53747 3.86324 6.53068e-20)
(3.74176 3.10562 0)
(5.10011 2.36212 9.24067e-21)
(6.51042 1.65676 5.23303e-22)
(7.85094 1.01389 -3.77483e-20)
(9.00659 0.452389 1.25545e-20)
(9.89403 -0.0182832 2.45992e-20)
(10.4774 -0.398884 0)
(10.7692 -0.697853 -4.91846e-21)
(10.8173 -0.926739 0)
(10.6853 -1.09589 0)
(10.4346 -1.21226 1.21672e-19)
(10.1151 -1.2798 -1.18651e-19)
(9.76383 -1.30136 -1.23417e-19)
(9.40758 -1.28075 -2.86275e-20)
(9.06661 -1.22398 1.22843e-19)
(8.75593 -1.13927 1.76323e-19)
(8.48532 -1.03629 -1.52329e-19)
(8.25868 -0.924871 2.03923e-20)
(8.07437 -0.813427 1.72018e-19)
(7.92694 -0.707186 -3.85468e-19)
(7.80923 -0.615935 1.27589e-19)
(1.51304 -1.11937 -4.66328e-17)
(-0.686857 -0.799369 3.50311e-17)
(-10.3152 3.08356 3.58259e-17)
(-24.791 10.4688 -3.66574e-17)
(-40.014 18.9777 -1.29028e-19)
(-48.4077 24.0024 -1.20737e-19)
(-42.5938 21.8226 0)
(-23.7856 13.0449 -3.75734e-17)
(-0.0606885 1.5287 3.86875e-17)
(19.9733 -8.61091 0)
(32.1805 -15.306 3.29792e-17)
(36.9702 -18.4936 -6.4984e-17)
(36.4522 -18.801 2.18663e-18)
(32.5162 -16.8065 5.81681e-17)
(26.4478 -13.0792 -2.85635e-17)
(19.2354 -8.30241 -8.30247e-20)
(11.8081 -3.2521 -1.59587e-19)
(4.98252 1.33557 0)
(-0.723686 5.01184 -1.86148e-17)
(-5.13093 7.64332 1.88673e-17)
(-8.30522 9.36302 -8.41868e-20)
(-10.4131 10.3775 -1.21645e-17)
(-11.624 10.9372 1.23212e-17)
(-12.0387 11.1853 -8.44964e-18)
(-11.7534 11.2385 8.56375e-18)
(-10.9029 11.1423 2.68735e-20)
(-9.71596 10.9426 -3.98012e-18)
(-8.4677 10.6668 1.24785e-18)
(-7.37916 10.3248 4.54276e-18)
(-6.57266 9.92956 -8.781e-19)
(-6.07123 9.50953 -9.5389e-19)
(-5.78911 9.02979 1.7236e-19)
(-5.58057 8.46275 -2.19895e-19)
(-5.2701 7.76018 0)
(-4.73671 6.95604 3.16228e-20)
(-3.9501 6.12669 2.89602e-20)
(-2.97553 5.36873 0)
(-1.94778 4.75354 1.21099e-18)
(-1.01516 4.31708 -1.23725e-18)
(-0.287903 4.0749 -1.72943e-20)
(0.180808 4.02869 0)
(0.388637 4.16195 1.37582e-20)
(0.363895 4.44373 1.04766e-18)
(0.148578 4.82573 -1.01057e-18)
(-0.206092 5.25378 0)
(-0.644356 5.68619 -7.82767e-19)
(-1.11407 6.08931 8.54885e-19)
(-1.56909 6.43483 0)
(-1.97104 6.69857 0)
(-2.28958 6.86216 -6.96003e-21)
(-2.50151 6.91431 -4.33357e-21)
(-2.58895 6.85108 0)
(-2.5357 6.67591 2.47922e-19)
(-2.32256 6.39847 -2.46111e-19)
(-1.92388 6.03218 -1.63816e-19)
(-1.30914 5.59117 3.51057e-20)
(-0.45133 5.08867 2.84121e-19)
(0.65992 4.53774 -2.81759e-19)
(2.00007 3.94846 -1.50156e-20)
(3.50288 3.33326 1.19414e-19)
(5.06711 2.71267 -1.11264e-20)
(6.56905 2.10792 0)
(7.88691 1.53856 0)
(8.92826 1.02015 8.54938e-20)
(9.65047 0.561631 -9.47842e-20)
(10.0659 0.165142 0)
(10.2292 -0.171914 2.9735e-21)
(10.213 -0.453658 0)
(10.0846 -0.683245 -3.6731e-20)
(9.8933 -0.862215 3.5853e-20)
(9.66977 -0.991415 -1.29186e-20)
(9.43171 -1.07241 -1.52768e-19)
(9.1905 -1.10849 1.32724e-19)
(8.95487 -1.10497 -1.88643e-20)
(8.732 -1.06888 0)
(8.52716 -1.00829 0)
(8.34333 -0.931332 0)
(8.18128 -0.845233 2.02361e-19)
(8.04003 -0.757283 3.0105e-20)
(7.91977 -0.6785 -3.65931e-19)
(-4.47143 0.86011 -2.59255e-17)
(0.428761 -3.86652 -3.72579e-17)
(17.6271 -9.50871 3.8097e-17)
(30.8864 -16.0541 -3.57181e-17)
(34.1592 -16.2005 3.64427e-17)
(31.0476 -13.5082 -4.79679e-20)
(26.9512 -10.3675 -4.87512e-20)
(25.1755 -8.53756 0)
(26.9248 -9.13397 -2.46744e-19)
(32.2475 -12.2721 0)
(40.4764 -17.2653 -6.79477e-20)
(50.42 -23.3098 1.61635e-17)
(60.6353 -29.7363 -1.65797e-17)
(69.5393 -35.7348 -1.14567e-17)
(75.1553 -40.2759 1.18481e-17)
(75.4576 -42.4601 -7.25886e-18)
(69.6493 -42.0101 7.32406e-18)
(58.9187 -39.3805 0)
(45.8082 -35.5034 0)
(32.9116 -31.3578 0)
(21.9681 -27.6247 5.00552e-20)
(13.6957 -24.6163 1.09237e-18)
(8.04972 -22.3208 7.11403e-19)
(4.59255 -20.6147 -3.85495e-18)
(2.68173 -19.2788 2.32847e-18)
(1.6258 -18.1071 0)
(0.806649 -16.9235 7.18928e-20)
(-0.17245 -15.6418 0)
(-1.42549 -14.2747 -3.30973e-18)
(-2.85553 -12.8782 3.31986e-18)
(-4.2609 -11.4794 -4.69063e-21)
(-5.40688 -10.1422 0)
(-6.09981 -8.90835 2.50664e-18)
(-6.19257 -7.87001 -4.72715e-18)
(-5.66191 -7.05294 2.26317e-18)
(-4.63743 -6.43327 -1.76894e-18)
(-3.34123 -5.93605 3.39305e-18)
(-2.01251 -5.4636 -1.62169e-18)
(-0.846393 -4.9326 0)
(0.0406705 -4.29437 0)
(0.592394 -3.5376 0)
(0.802941 -2.68019 1.12775e-18)
(0.704313 -1.74993 -3.28877e-18)
(0.353845 -0.784447 2.10998e-18)
(-0.177391 0.175905 0)
(-0.812298 1.0947 -1.71008e-18)
(-1.47667 1.9373 1.66509e-18)
(-2.10611 2.67647 1.36044e-18)
(-2.64817 3.29742 -2.34562e-19)
(-3.06306 3.79639 -1.46266e-19)
(-3.32148 4.17721 -1.38031e-19)
(-3.40021 4.44848 -9.01412e-19)
(-3.2781 4.62056 0)
(-2.93426 4.70323 0)
(-2.34964 4.70422 -4.51456e-19)
(-1.51221 4.62864 4.90358e-19)
(-0.425417 4.4792 0)
(0.88257 4.25589 0)
(2.35309 3.9644 2.0053e-20)
(3.89722 3.6149 2.79878e-20)
(5.40456 3.21681 0)
(6.76315 2.78512 0)
(7.88204 2.33862 -2.14214e-20)
(8.71205 1.89602 -1.64191e-20)
(9.25542 1.47347 9.8195e-20)
(9.55773 1.08288 -1.36969e-19)
(9.68553 0.731747 2.65618e-20)
(9.70187 0.424071 1.58962e-20)
(9.65162 0.16143 3.15072e-20)
(9.56019 -0.0562275 -6.59313e-20)
(9.44017 -0.230222 4.76274e-21)
(9.2987 -0.362956 5.30668e-20)
(9.14184 -0.45776 -1.45239e-19)
(8.97585 -0.518746 -1.58858e-20)
(8.80687 -0.550627 3.2026e-19)
(8.64029 -0.558483 -1.8316e-19)
(8.48043 -0.547352 0)
(8.3304 -0.522098 -4.46322e-20)
(8.19205 -0.48903 0)
(8.0678 -0.454181 1.92523e-19)
(-1.27017 1.58821 0)
(1.56996 2.2355 1.1696e-19)
(9.68058 0.511523 -1.12728e-19)
(16.2912 -0.444946 -4.86613e-17)
(18.9833 -0.0132135 9.66776e-17)
(20.3675 2.17067 -4.80356e-17)
(21.2654 5.25887 4.9134e-20)
(21.793 8.88038 0)
(21.8003 12.754 0)
(21.268 16.6084 0)
(20.1912 20.0799 6.81277e-20)
(18.4715 22.8532 -1.10078e-19)
(16.0534 24.7944 0)
(13.0045 25.8737 1.72349e-19)
(9.48695 26.1779 1.81768e-19)
(5.71942 25.9741 2.68378e-17)
(1.97401 25.5729 -2.69824e-17)
(-1.53463 25.1971 -2.8849e-19)
(-4.71049 24.945 0)
(-7.49484 24.8217 2.46683e-19)
(-9.76921 24.7077 -1.20502e-19)
(-11.3955 24.4009 1.16541e-17)
(-12.3057 23.7433 -2.67131e-18)
(-12.5714 22.6388 -9.05306e-18)
(-12.4158 21.0486 -1.1917e-19)
(-12.133 19.0073 1.11171e-19)
(-11.9323 16.6306 -1.21489e-18)
(-11.7671 14.0698 8.08386e-19)
(-11.3226 11.4441 1.39989e-19)