/*--------------------------------*- C++ -*----------------------------------*\
| =========                 |                                                 |
| \\      /  F ield         | OpenFOAM: The Open Source CFD Toolbox           |
|  \\    /   O peration     | Version:  2012                                  |
|   \\  /    A nd           | Website:  www.openfoam.com                      |
|    \\/     M anipulation  |                                                 |
\*---------------------------------------------------------------------------*/
FoamFile
{
    version     2.0;
    format      ascii;
    class       surfaceScalarField;
    location    "0.68";
    object      phi;
}
// * * * * * * * * * * * * * * * * * * * * * * * * * * * * * * * * * * * * * //

dimensions      [0 3 -1 0 0 0 0];
oriented        oriented;


internalField   nonuniform List<scalar> 
84340
(
0.000252391
-9.26571e-05
-0.000159734
0.00079476
-0.000275045
-0.000267324
0.0015498
-0.000502474
-0.000252562
0.00244862
-0.000647448
-0.000251381
0.0033634
-0.00065189
-0.000262886
0.00418753
-0.000576306
-0.000247822
0.00485373
-0.000460388
-0.000205816
0.00533552
-0.000322946
-0.000158842
0.00563525
-0.000168127
-0.000131608
0.00577233
3.75094e-06
-0.000140828
0.00577706
0.000188412
-0.000193142
0.00568402
0.000378329
-0.00028529
0.00552531
0.000565398
-0.00040669
0.00532554
0.000741159
-0.000541387
0.00509896
0.000895078
-0.000668497
0.00484979
0.0010143
-0.000765124
0.0045757
0.0010876
-0.000813508
0.00428022
0.00110371
-0.00080823
0.00396814
0.00106712
-0.000755046
0.00365109
0.000986157
-0.000669098
0.00334682
0.00087213
-0.000567864
0.0030753
0.000736131
-0.000464616
0.00285359
0.000588201
-0.000366487
0.00269246
0.000436078
-0.000274946
0.00259454
0.00028727
-0.00018935
0.00256306
0.000140255
-0.000108773
0.00258544
1.10013e-05
-3.33841e-05
0.00264376
-9.34142e-05
3.50995e-05
0.00271908
-0.000171044
9.57243e-05
0.00279291
-0.000221637
0.000147807
0.00285126
-0.000248396
0.000190046
0.00288691
-0.000256896
0.000221239
0.00289803
-0.00025145
0.000240335
0.00288734
-0.00023546
0.000246147
0.00285786
-0.000207615
0.000237093
0.00280889
-0.000162927
0.000211896
0.00273616
-9.8025e-05
0.000170756
0.00263883
-1.92775e-05
0.000116608
0.0024961
8.6925e-05
5.58052e-05
0.00230448
0.000194327
-2.70395e-06
0.00207068
0.000284795
-5.09932e-05
0.00180186
0.000347816
-7.89998e-05
0.00151324
0.000376633
-8.80125e-05
0.00121876
0.000371421
-7.69446e-05
0.000929904
0.000339226
-5.03667e-05
0.000659055
0.000291027
-2.01774e-05
0.000414831
0.000237015
7.20921e-06
0.000200514
0.000185567
2.87491e-05
1.50654e-05
0.000141166
4.42824e-05
-0.000143493
0.000103126
5.54323e-05
-0.000282953
7.52582e-05
6.42015e-05
-0.000409697
5.41839e-05
7.256e-05
-0.000524634
3.29004e-05
8.20371e-05
-0.000628589
1.04992e-05
9.34562e-05
-0.000722452
-1.32576e-05
0.00010712
-0.000806781
-3.86822e-05
0.000123012
-0.000881907
-6.5787e-05
0.000140913
-0.000947947
-9.44301e-05
0.00016047
-0.00100485
-0.000124343
0.000181248
-0.00105246
-0.000155145
0.000202752
-0.00109054
-0.000186371
0.000224454
-0.00111887
-0.000217487
0.000245816
-0.00113727
-0.00024792
0.000266324
-0.00114569
-0.000277099
0.000285517
-0.00114421
-0.000304508
0.000303024
-0.00113305
-0.000329744
0.000318591
-0.00111259
-0.00035257
0.000332104
-0.00108324
-0.000372958
0.000343608
-0.00104542
-0.000391112
0.000353294
-0.000999465
-0.00040745
0.000361493
-0.000945544
-0.000422562
0.000368642
-0.000883652
-0.000437145
0.000375253
-0.000813615
-0.000451921
0.000381884
-0.00073514
-0.000467588
0.000389113
-0.000647882
-0.000484801
0.000397542
-0.000551466
-0.000504218
0.000407802
-0.000445399
-0.000526635
0.000420569
-0.00032872
-0.000553221
0.000436542
-0.000199025
-0.000585842
0.000456147
-0.000628574
0.000478812
-4.92635e-05
-0.000441601
0.000348944
-0.00140454
0.000687893
-0.00265
0.000742987
-0.00399418
0.00069673
-0.00528558
0.000639513
-0.0064246
0.000562711
-0.00731419
0.000429205
-0.00786605
0.000228913
-0.00803172
-2.45836e-06
-0.00780213
-0.000225835
-0.0072075
-0.000406225
-0.00630877
-0.000520399
-0.00517477
-0.0005686
-0.00386069
-0.000572927
-0.0024229
-0.000542709
-0.000929645
-0.000478955
0.000558676
-0.000400722
0.0019939
-0.000331513
0.00334569
-0.000284679
0.00459282
-0.000260964
0.00571292
-0.000247974
0.0066863
-0.000237246
0.00749686
-0.000222358
0.00813066
-0.00019773
0.00857602
-0.000158092
0.00881526
-9.89834e-05
0.00884355
-1.72848e-05
0.00866268
8.74512e-05
0.00827954
0.000212098
0.00770881
0.000349095
0.00697058
0.000489835
0.00610009
0.000613591
0.00514749
0.000701155
0.00416488
0.000747142
0.00320897
0.000748303
0.00233689
0.00070915
0.00159446
0.000644407
0.00100447
0.000570707
0.000585768
0.00050563
0.000317243
0.000462853
0.000164011
0.000438028
8.95758e-05
0.000422251
6.06285e-05
0.000405581
5.08079e-05
0.000381242
4.25742e-05
0.00034746
2.67405e-05
0.000306861
-7.50361e-07
0.000264505
-4.04064e-05
0.000225223
-9.13346e-05
0.000192094
-0.000153932
0.000165723
-0.000223443
0.000144769
-0.000295839
0.000126579
-0.00037138
0.000108441
-0.000449625
8.87443e-05
-0.000527965
6.50823e-05
-0.000604026
3.73792e-05
-0.000677007
7.19377e-06
-0.000745462
-2.59756e-05
-0.000808041
-6.17644e-05
-0.000863443
-9.9743e-05
-0.000910484
-0.00013933
-0.000948132
-0.000179839
-0.000975551
-0.000220501
-0.000992154
-0.000260495
-0.000997656
-0.000299006
-0.000992099
-0.000335301
-0.000975847
-0.000368822
-0.000949532
-0.000399274
-0.000913941
-0.000426703
-0.000869868
-0.000451523
-0.000817941
-0.000474489
-0.000758492
-0.000496595
-0.000691484
-0.000518929
-0.000616544
-0.000542528
-0.000533073
-0.000568271
-0.000440428
-0.000596863
-0.000338114
-0.000628949
-0.000225874
-0.00066546
-0.000103376
-0.000708339
-0.000762245
3.0295e-05
0.000456464
-0.00010752
0.000967109
0.000177249
0.00121001
0.000500084
0.00123019
0.000676548
0.00111708
0.000752632
0.000935758
0.000744028
0.000714379
0.000650585
0.000443229
0.000500063
0.00012082
0.000319951
-0.00025076
0.000145745
-0.000662539
5.55429e-06
-0.00105524
-0.000127696
-0.00132481
-0.000299035
-0.00136292
-0.000534817
-0.0011569
-0.000748723
-0.000818836
-0.000817021
-0.000481242
-0.000738316
-0.000200241
-0.000612514
3.03102e-05
-0.00051523
0.000218132
-0.000448786
0.000363175
-0.000393018
0.00046642
-0.00034049
0.00052865
-0.000284588
0.000552108
-0.000221188
0.000542679
-0.000148662
0.00051108
-6.73839e-05
0.000473568
2.02274e-05
0.000451116
0.000109903
0.000466199
0.000197015
0.000535813
0.000279482
0.000669811
0.000355837
0.00085635
0.000427052
0.00106381
0.000493692
0.00125969
0.000551265
0.00141689
0.000591107
0.00151564
0.000610393
0.00155017
0.000609879
0.00152687
0.000594012
0.00146173
0.00057077
0.00137674
0.000547835
0.00128674
0.000528034
0.00119954
0.000509444
0.00111685
0.000488269
0.00103612
0.000461981
0.000952703
0.000430873
0.000861982
0.000397581
0.000761031
0.000365456
0.000649325
0.000336928
0.000528814
0.000312606
0.000403161
0.000291376
0.000276812
0.000271119
0.000153726
0.000249666
3.66897e-05
0.000225477
-7.23915e-05
0.000197825
-0.000173857
0.000166548
-0.000268199
0.000131721
-0.000354724
9.37195e-05
-0.00043312
5.24198e-05
-0.000504805
9.92078e-06
-0.000568601
-3.59475e-05
-0.000623989
-8.39411e-05
-0.000670365
-0.000133463
-0.000707084
-0.000183781
-0.000733544
-0.000234035
-0.000749263
-0.000283287
-0.000753971
-0.000330594
-0.000747699
-0.000375095
-0.000730832
-0.000416141
-0.000704101
-0.000453435
-0.000668457
-0.000487166
-0.000624868
-0.000518078
-0.000574058
-0.000547405
-0.000516304
-0.000576683
-0.000451357
-0.000607475
-0.000378523
-0.000641105
-0.000296882
-0.000678504
-0.000205613
-0.000720219
-0.000104373
-0.0007667
6.26044e-06
-0.000818972
-0.000880643
0.000124659
-0.000440686
0.000333166
-0.000715306
0.000451868
-0.00060809
0.000392868
-0.000262695
0.000331153
0.000230401
0.000259536
0.000779697
0.000194732
0.0012624
0.000167886
0.00156905
0.000193404
0.00163014
0.000258865
0.0014465
0.000329386
0.00109996
0.000352097
0.000703231
0.000269029
0.000362093
4.2104e-05
0.000105191
-0.000277916
-0.00012776
-0.000515771
-0.000426338
-0.000518443
-0.000846917
-0.000317737
-0.00138241
-7.7017e-05
-0.00198433
8.66849e-05
-0.00259472
0.000161601
-0.00316759
0.00017986
-0.003677
0.000168918
-0.00410616
0.000144573
-0.0044422
0.000114849
-0.00467379
8.2933e-05
-0.00479196
5.07845e-05
-0.00479004
1.83057e-05
-0.00464718
-3.29565e-05
-0.00436215
-8.80158e-05
-0.00393198
-0.000150686
-0.00337442
-0.000201725
-0.00273291
-0.00021446
-0.00205397
-0.000185243
-0.00138864
-0.000114066
-0.000785899
-1.1636e-05
-0.000281454
0.000105948
9.49425e-05
0.000233483
0.000355504
0.00033345
0.00052216
0.000404114
0.000609296
0.000460699
0.000639384
0.000497947
0.000634076
0.000514752
0.000608911
0.000513434
0.000572878
0.000498014
0.000530266
0.000473485
0.000483031
0.000444816
0.000432602
0.000415885
0.000380681
0.00038885
0.000329115
0.000364172
0.000279344
0.000341147
0.000231878
0.000318585
0.000186215
0.000295329
0.00014121
0.000270482
9.56425e-05
0.000243393
4.8638e-05
0.000213552
-1.37367e-07
0.000180496
-5.02251e-05
0.000143807
-0.000101099
0.000103293
-0.00014983
5.86523e-05
-0.000196061
1.02826e-05
-0.000238644
-4.13579e-05
-0.000276647
-9.54602e-05
-0.000309322
-0.000151106
-0.000336033
-0.000207324
-0.00035616
-0.000263161
-0.000369037
-0.000317717
-0.000373994
-0.000370138
-0.000370503
-0.000419631
-0.000358375
-0.000465563
-0.000337866
-0.000507674
-0.000309619
-0.000546325
-0.000274386
-0.000582638
-0.000232667
-0.000618401
-0.000184421
-0.000655721
-0.00012898
-0.000696546
-6.52315e-05
-0.000742253
8.00714e-06
-0.000793457
9.14826e-05
-0.000850175
0.000184994
-0.000912483
-0.000982081
0.000286431
0.000647041
-0.000313875
0.00176019
-0.000661284
0.00306778
-0.000914721
0.00451
-0.00111106
0.00600709
-0.00123755
0.00747642
-0.0012746
0.00885043
-0.00120612
0.0100496
-0.00100577
0.0109623
-0.000653871
0.0114463
-0.000154546
0.0113497
0.000448679
0.0106195
0.000999246
0.00940477
0.0012568
0.00798842
0.00113843
0.00663925
0.000833402
0.00552135
0.000599458
0.0046747
0.000528906
0.00404619
0.000551498
0.00356076
0.000572115
0.00316918
0.000553176
0.00284376
0.000505282
0.00256337
0.000449304
0.00231097
0.000396978
0.00207671
0.00034911
0.0018584
0.000301242
0.00166056
0.000248623
0.00149195
0.000186916
0.00133902
0.000119978
0.00120059
5.04134e-05
0.00106424
-1.43383e-05
0.000925253
-6.27394e-05
0.00079512
-8.43265e-05
0.000684039
-7.41623e-05
0.00060357
-3.35972e-05
0.000562872
2.90619e-05
0.000560902
0.000107918
0.000599108
0.000195277
0.00064915
0.000283409
0.000687542
0.000365722
0.000712855
0.000435387
0.000722695
0.000488106
0.000715789
0.000521659
0.000693287
0.000535936
0.000658466
0.000532835
0.00061625
0.000515701
0.00057247
0.000488596
0.00053278
0.000455575
0.000501479
0.000420151
0.000480597
0.000385053
0.000469563
0.000352182
0.000465516
0.000322631
0.000464174
0.000296671
0.000460954
0.000273702
0.000452065
0.000252281
0.000435295
0.000230322
0.000410322
0.000205468
0.00037855
0.000175579
0.000342657
0.000139187
0.000305196
9.61134e-05
0.000269768
4.57112e-05
0.00023888
-1.04699e-05
0.000213139
-6.97199e-05
0.000192497
-0.000130464
0.000176125
-0.000190952
0.00016288
-0.000249916
0.00015188
-0.000306717
0.000142934
-0.000361192
0.000136646
-0.000413344
0.000134155
-0.000463072
0.000136631
-0.00051015
0.000144841
-0.000554535
0.000159015
-0.000596812
0.000179107
-0.000638492
0.000205231
-0.000681845
0.000238017
-0.000729331
0.000278658
-0.000782893
0.00032864
-0.000843439
0.000389245
-0.00091078
0.000460835
-0.000984073
-0.00106251
0.000541268
-0.000183416
-0.000130459
-0.000371165
-0.000473535
-0.000403514
-0.000882373
-0.000316049
-0.00119853
-0.000214717
-0.00133889
-0.000134376
-0.00135494
-5.42318e-05
-0.00128626
5.75747e-05
-0.00111757
0.000211039
-0.000807336
0.000378425
-0.000321931
0.000495286
0.000331819
0.00047346
0.00102107
0.000264234
0.00146603
-8.11065e-05
0.00148377
-0.000420402
0.0011727
-0.00061359
0.000792646
-0.000601461
0.000516778
-0.000412205
0.000362241
-0.000120212
0.000280122
0.000199031
0.000233934
0.000494049
0.000210264
0.000744314
0.00019904
0.000934215
0.000207078
0.00105972
0.000223607
0.00111163
0.000249332
0.00110717
0.000253086
0.00104675
0.000247333
0.000928819
0.000237908
0.000751481
0.000227751
0.000520287
0.000216856
0.000254934
0.000202614
-1.11027e-05
0.000181711
-0.000239184
0.000153919
-0.00039644
0.000123659
-0.000466286
9.89083e-05
-0.000446372
8.80041e-05
-0.000346545
9.54505e-05
-0.000181504
0.000118367
1.82324e-05
0.000165986
0.00023532
0.000218299
0.000451844
0.000271583
0.000652895
0.000320607
0.000827505
0.000361326
0.000968959
0.000391381
0.0010747
0.000409961
0.00114579
0.000417504
0.00118601
0.000415357
0.00120066
0.000405503
0.00119541
0.000390306
0.00117535
0.000372234
0.0011445
0.000353485
0.00110563
0.000335539
0.0010606
0.000318739
0.00101079
0.000302084
0.000957733
0.000283383
0.00090342
0.000259782
0.000850474
0.000228526
0.000801956
0.000187704
0.000761443
0.000136626
0.000732162
7.49924e-05
0.000711809
9.88359e-06
0.000701213
-5.91243e-05
0.000699559
-0.00012881
0.000704106
-0.000195499
0.000711193
-0.000257003
0.00071708
-0.000312604
0.000718932
-0.000363044
0.000715611
-0.000410022
0.000707898
-0.000455357
0.000698007
-0.00050026
0.000688662
-0.00054519
0.000682241
-0.000590391
0.000680406
-0.000636658
0.000684287
-0.000685726
0.000694902
-0.000739947
0.000713464
-0.000801455
0.000741379
-0.000871354
0.000779956
-0.000949357
0.000829924
-0.00103404
-0.00112245
0.000889857
-0.000229878
9.94192e-05
-0.000605053
-9.83605e-05
-0.00111038
-0.000377045
-0.00162087
-0.000688043
-0.00200245
-0.000957304
-0.00223096
-0.00112643
-0.00232831
-0.00118891
-0.0022972
-0.00114868
-0.00208737
-0.00101717
-0.00160551
-0.000803792
-0.000756395
-0.000517297
0.000456383
-0.000191707
0.00178295
0.000139461
0.00283785
0.000428875
0.00336348
0.000647059
0.00335891
0.000797223
0.00297742
0.000898264
0.00237191
0.000967749
0.00163213
0.0010199
0.00079957
0.0010665
-9.94837e-05
0.00110932
-0.00103722
0.00113677
-0.0019641
0.00113396
-0.0028312
0.0010907
-0.00358783
0.00100597
-0.00422119
0.000886442
-0.00471654
0.00074268
-0.00506304
0.000584409
-0.00525357
0.000418287
-0.00528576
0.000249043
-0.00516501
8.18665e-05
-0.0049093
-7.40015e-05
-0.00454244
-0.000212944
-0.0040996
-0.000319183
-0.0036153
-0.000385388
-0.00311628
-0.000411018
-0.00261959
-0.000401241
-0.00213712
-0.000364098
-0.00165951
-0.000311624
-0.00119636
-0.000244852
-0.000753446
-0.000171334
-0.000336904
-9.59349e-05
4.67197e-05
-2.22979e-05
0.000391129
4.69718e-05
0.000690996
0.000110093
0.000942594
0.000165906
0.0011442
0.000213747
0.00129631
0.000253402
0.00140164
0.000284967
0.00146508
0.000308799
0.00149319
0.000325372
0.00149367
0.00033506
0.00147451
0.000337904
0.00144317
0.00033342
0.00140599
0.000320565
0.00136782
0.000297944
0.00133212
0.000264233
0.00130113
0.000218691
0.00127616
0.000161599
0.00125679
9.43591e-05
0.00124675
1.99262e-05
0.00124576
-5.8134e-05
0.00125215
-0.000135199
0.00126344
-0.000206795
0.00127606
-0.000269627
0.00128586
-0.000322402
0.00128913
-0.000366306
0.00128371
-0.000404608
0.00126972
-0.000441368
0.00124937
-0.000479905
0.00122613
-0.00052195
0.00120369
-0.000567956
0.00118521
-0.00061817
0.00117301
-0.00067353
0.00116877
-0.00073571
0.00117371
-0.000806387
0.00118868
-0.000886324
0.00121416
-0.000974841
0.0012501
-0.00106998
-0.00116787
0.00129552
0.000606655
-0.000507236
0.00117924
-0.000670949
0.00118513
-0.000382934
0.000703461
-0.000206372
-5.88874e-05
-0.000194956
-0.000954428
-0.000230894
-0.00187926
-0.000264074
-0.00274058
-0.000287364
-0.00345499
-0.000302753
-0.00395485
-0.000303931
-0.00420762
-0.00026453
-0.00424349
-0.000155832
-0.00412832
2.42893e-05
-0.00394886
0.000249411
-0.00378047
0.000478674
-0.00365146
0.000668206
-0.00352733
0.000774136
-0.00332261
0.000763036
-0.00294597
0.00064326
-0.00235891
0.000479431
-0.00160334
0.000353755
-0.000770542
0.000303973
7.5173e-05
0.000288248
0.0008609
0.000304972
0.00154505
0.000321822
0.00210486
0.000326632
0.00253218
0.000315356
0.00282965
0.000286942
0.00300639
0.00024155
0.00307385
0.000181582
0.0030432
0.000112517
0.00292717
4.20265e-05
0.0027367
-2.24707e-05
0.00249411
-7.65912e-05
0.00222847
-0.000119748
0.00196984
-0.000152397
0.00174424
-0.000175635
0.00157032
-0.000190177
0.00145409
-0.000195397
0.00139975
-0.000190516
0.00140598
-0.000177564
0.00146294
-0.000152889
0.00156
-0.000119362
0.00168489
-7.79118e-05
0.00182496
-2.99761e-05
0.0019683
2.25599e-05
0.00210446
7.75906e-05
0.00222527
0.00013259
0.00232512
0.000185119
0.002401
0.000232912
0.00245244
0.000273932
0.0024811
0.000306406
0.00249019
0.000328811
0.00248376
0.00033985
0.00246589
0.000338434
0.00244011
0.000323727
0.00240906
0.000295284
0.00237449
0.000253261
0.00233741
0.000198677
0.00229805
0.000133723
0.00225544
6.25339e-05
0.0022118
-1.44992e-05
0.00216683
-9.02255e-05
0.00211883
-0.000158792
0.0020666
-0.0002174
0.00200953
-0.000265333
0.00194813
-0.0003049
0.00188418
-0.000340657
0.0018204
-0.000377592
0.00175985
-0.000419353
0.00170539
-0.000467494
0.00165948
-0.000522047
0.00162407
-0.000582757
0.00160054
-0.000650006
0.00158965
-0.000724818
0.0015914
-0.000808135
0.00160504
-0.000899963
0.00162914
-0.000998942
0.00166155
-0.0011024
-0.00120689
0.00170057
-0.000692966
0.000185731
-0.00174246
0.000378546
-0.00259824
0.00047285
-0.00324045
0.000435835
-0.00372714
0.000291735
-0.00406955
0.00011151
-0.00426581
-6.78088e-05
-0.0043254
-0.000227779
-0.00427508
-0.00035307
-0.00416331
-0.000415704
-0.00406035
-0.00036749
-0.00404971
-0.000166465
-0.00419936
0.000173939
-0.00450559
0.000555636
-0.00484999
0.000823072
-0.00503997
0.000858186
-0.00492809
0.000662263
-0.00448276
0.000317697
-0.00376707
-7.24285e-05
-0.00288359
-0.000404046
-0.00193127
-0.000598566
-0.00099235
-0.000634947
-0.000170785
-0.000533317
0.000514944
-0.000380757
0.00105107
-0.000214308
0.00143736
-5.9659e-05
0.00168433
6.83949e-05
0.00180881
0.000162461
0.0018307
0.000219657
0.0017724
0.000239883
0.00165841
0.0002265
0.00151414
0.000186298
0.00136394
0.000127727
0.0012288
5.85508e-05
0.00112344
-1.43894e-05
0.00105557
-8.45266e-05
0.00103125
-0.000151314
0.00105136
-0.000210281
0.001112
-0.000256037
0.00120891
-0.000287434
0.00133445
-0.000303103
0.0014839
-0.000302333
0.00164993
-0.0002854
0.00182536
-0.000253338
0.00200339
-0.000208007
0.00217997
-0.00015402
0.00234442
-8.68592e-05
0.00249353
-1.65205e-05
0.0026246
5.40495e-05
0.00273584
0.000121677
0.00282672
0.000183051
0.00289781
0.00023531
0.00295044
0.000276185
0.00298628
0.000304013
0.003007
0.000317711
0.00301398
0.000316745
0.0030081
0.000301168
0.00298963
0.00027173
0.00295829
0.000230015
0.00291349
0.000178527
0.00285537
0.000120648
0.00278052
6.0353e-05
0.00268817
2.12686e-06
0.00258247
-5.30961e-05
0.00246726
-0.000102187
0.00234929
-0.000147363
0.00223615
-0.000191759
0.00213442
-0.000238928
0.00204837
-0.000291539
0.00197969
-0.000350671
0.00192824
-0.000416046
0.00189313
-0.000486938
0.00187344
-0.000563068
0.00186834
-0.0006449
0.00187674
-0.000733222
0.00189699
-0.000828382
0.00192666
-0.000929641
0.00196277
-0.00103504
0.00200155
-0.00114118
-0.00124592
0.00204058
3.60058e-05
0.000149725
0.000353938
6.06139e-05
0.00107668
-0.000249895
0.00205326
-0.000540745
0.00307205
-0.000727056
0.00401605
-0.000832488
0.00481253
-0.000864288
0.0054119
-0.000827146
0.00578498
-0.000726149
0.00592496
-0.00055569
0.00586227
-0.0003048
0.00566272
3.30843e-05
0.00540168
0.000434981
0.00513647
0.00082085
0.00490073
0.00105881
0.00471304
0.00104587
0.0045334
0.000841905
0.00428157
0.000569526
0.00388126
0.000327888
0.00332418
0.000153033
0.00268451
4.10982e-05
0.0020718
-2.2235e-05
0.00158989
-5.14009e-05
0.00126909
-5.99591e-05
0.00111202
-5.72409e-05
0.00110212
-4.97596e-05
0.00121162
-4.11027e-05
0.0014095
-3.54136e-05
0.00166477
-3.56161e-05
0.00194712
-4.24707e-05
0.00222366
-5.00336e-05
0.0024748
-6.48417e-05
0.0026887
-8.61732e-05
0.00286064
-0.000113389
0.00299071
-0.000144463
0.0030721
-0.000165914
0.00311481
-0.000194023
0.00312709
-0.000222558
0.00311772
-0.000246671
0.00309366
-0.000263371
0.00306126
-0.00027071
0.0030264
-0.000267474
0.00299391
-0.000252906
0.00296714
-0.000226568
0.00294762
-0.000188492
0.00293383
-0.000140224
0.00292605
-7.90781e-05
0.00292153
-1.20055e-05
0.00291738
5.82051e-05
0.00291174
0.000127313
0.00290355
0.000191245
0.00289228
0.00024658
0.00287767
0.000290795
0.00285939
0.000322286
0.00283683
0.000340276
0.00280888
0.000344693
0.00277397
0.000336081
0.00273014
0.000315557
0.00267539
0.00028477
0.00260812
0.000245793
0.00252787
0.000200896
0.00243607
0.000152153
0.00233721
0.000100996
0.00223623
4.78776e-05
0.00214184
-7.79892e-06
0.00206033
-6.5852e-05
0.00199727
-0.000128696
0.00195461
-0.000196267
0.00193139
-0.000268322
0.00192489
-0.00034417
0.00193201
-0.000423161
0.00195022
-0.000505149
0.00197777
-0.000590625
0.0020133
-0.000680423
0.00205521
-0.000775136
0.00210137
-0.00087454
0.00214899
-0.00097726
0.00219489
-0.00108095
0.00223553
-0.00118181
-0.00127909
0.0022687
0.000329516
-0.000179791
0.000732758
-0.000342628
0.000895478
-0.000412614
0.000788708
-0.000433976
0.000517192
-0.00045554
0.000194406
-0.000509703
-0.000102276
-0.000567606
-0.000344791
-0.00058463
-0.000517585
-0.000553356
-0.000583692
-0.000489583
-0.000480812
-0.000407679
-0.000134582
-0.000313146
0.00050194
-0.000201541
0.00139839
-7.55964e-05
0.00241378
4.34159e-05
0.00333165
0.000128003
0.0039984
0.000175155
0.00437373
0.000194191
0.00450499
0.000196628
0.00447168
0.000186349
0.00434531
0.000167464
0.00417722
0.000145859
0.00400186
0.000123959
0.00383867
0.000103232
0.00369989
8.15313e-05
0.00359256
5.75771e-05
0.00352027
3.11877e-05
0.00348124
3.61573e-06
0.00346901
-2.3386e-05
0.00347433
-4.77968e-05
0.00349321
-6.8913e-05
0.00351495
-8.65819e-05
0.00352934
-0.000100559
0.00352746
-0.000111509
0.00350248
-0.000119485
0.0034608
-0.00012423
0.00339263
-0.000125858
0.0032943
-0.000124224
0.00316711
-0.000119481
0.00301635
-0.00011261
0.00285044
-0.0001048
0.00267956
-9.66005e-05
0.00251371
-8.70487e-05
0.00236034
-7.32022e-05
0.00222321
-5.13623e-05
0.00210291
-1.99251e-05
0.00200147
2.23677e-05
0.00191611
7.33526e-05
0.00184554
0.00012877
0.00178875
0.000184105
0.00174477
0.000235224
0.00171246
0.000278898
0.00169026
0.000312994
0.00167618
0.000336368
0.00166781
0.00034864
0.00166255
0.000349956
0.00165782
0.000340812
0.00165145
0.000321922
0.00164211
0.000294108
0.0016297
0.000258207
0.00161562
0.000214973
0.00160279
0.000164984
0.00159511
0.000108679
0.00159659
4.63978e-05
0.00160955
-2.07596e-05
0.00163627
-9.25698e-05
0.00167584
-0.000168264
0.0017261
-0.000246527
0.00178405
-0.000326276
0.00184671
-0.00040683
0.00191168
-0.000488132
0.00197729
-0.000570759
0.00204234
-0.000655668
0.00210566
-0.000743743
0.00216581
-0.000835287
0.00222092
-0.000929658
0.0022688
-0.00102514
0.00230709
-0.00111924
0.00233365
-0.00120837
-0.00129249
0.00234704
-0.000184862
5.07091e-06
-0.000693592
0.000166102
-0.00141898
0.000312772
-0.00219034
0.000337387
-0.00291105
0.000265174
-0.00352742
0.000106661
-0.00400834
-8.66824e-05
-0.00432776
-0.000265217
-0.00446553
-0.000415582
-0.00441132
-0.000543796
-0.00416574
-0.000653259
-0.00374321
-0.000735669
-0.00316057
-0.00078418
-0.0024369
-0.000799272
-0.00160687
-0.000786615
-0.000735447
-0.000743417
8.90864e-05
-0.000649378
0.000773175
-0.000489897
0.00125867
-0.000288865
0.00154896
-0.000103942
0.001695
2.14277e-05
0.00175554
8.53129e-05
0.00177538
0.000104121
0.00179061
8.80013e-05
0.00182749
4.46546e-05
0.00189772
-1.26572e-05
0.00199609
-6.7176e-05
0.00210608
-0.000106378
0.00221003
-0.000127336
0.00229744
-0.000135205
0.00236538
-0.000136857
0.00241511
-0.000136307
0.00244626
-0.00013171
0.00245733
-0.000122581
0.00244467
-0.00010683
0.00240397
-8.35219e-05
0.00233146
-5.33518e-05
0.00222284
-1.56088e-05
0.00207051
3.28558e-05
0.00187829
7.96049e-05
0.00165612
0.000117369
0.00141484
0.000144683
0.00116904
0.000158747
0.000934016
0.000161825
0.000722517
0.000160137
0.000542923
0.000159668
0.000400937
0.000164353
0.000298811
0.000175479
0.000235537
0.000192044
0.00020789
0.000211752
0.000211173
0.00023194
0.00023992
0.000250151
0.00028852
0.000264395
0.000351717
0.000273172
0.000424941
0.000275416
0.0005045
0.000270396
0.0005877
0.000257612
0.000672876
0.000236746
0.000759353
0.000207631
0.000847342
0.000170219
0.000937675
0.00012464
0.00103144
7.12186e-05
0.00113181
8.31047e-06
0.00123407
-5.58565e-05
0.00134041
-0.000127106
0.00144946
-0.000201617
0.00155881
-0.000277614
0.00166585
-0.000353574
0.00176807
-0.000428494
0.0018634
-0.000502154
0.00195041
-0.000575143
0.0020283
-0.000648652
0.00209667
-0.00072404
0.00215523
-0.000802302
0.00220353
-0.00088359
0.00224084
-0.000966968
0.00226618
-0.00105048
0.00227848
-0.00113153
0.00227718
-0.00120707
-0.00127671
0.0022614
-0.000514646
0.000519717
-0.00124718
0.000898635
-0.00196439
0.00102998
-0.00274292
0.00111592
-0.00364253
0.00116478
-0.00468531
0.00114943
-0.0058304
0.00105841
-0.00699324
0.000897625
-0.00809628
0.000687458
-0.00909734
0.000457263
-0.00998241
0.000231817
-0.0107353
1.72195e-05
-0.0113291
-0.000190368
-0.011729
-0.000399409
-0.0119082
-0.000607415
-0.0118731
-0.000778489
-0.0116713
-0.000851173
-0.0113779
-0.000783349
-0.0110622
-0.000604553
-0.010757
-0.000409088
-0.0104544
-0.000281204
-0.0101233
-0.000245739
-0.0097254
-0.000293822
-0.00921767
-0.000419733
-0.00860268
-0.000570334
-0.00788539
-0.000729948
-0.0070969
-0.000855661
-0.00629228
-0.000911002
-0.00553132
-0.000888299
-0.00485917
-0.00080735
-0.00429329
-0.000702735
-0.00382497
-0.000604629
-0.00342992
-0.000526763
-0.00308465
-0.000467845
-0.00277272
-0.000418763
-0.00248609
-0.000370158
-0.00222308
-0.000316354
-0.00198245
-0.000256238
-0.00175807
-0.000191526
-0.00155136
-0.000127112
-0.00136772
-6.6269e-05
-0.00120279
-2.02423e-05
-0.00106119
1.71412e-05
-0.000943671
4.431e-05
-0.00084735
6.38159e-05
-0.000766519
7.88382e-05
-0.000694095
9.19288e-05
-0.000623116
0.0001045
-0.000547935
0.000116863
-0.000464692
0.000128509
-0.00037127
0.000138519
-0.000267097
0.000145977
-0.000152657
0.000149955
-2.91118e-05
0.000149626
0.000102063
0.000144241
0.000239361
0.000133098
0.000381222
0.00011575
0.000526239
9.17295e-05
0.000673089
6.07813e-05
0.000820463
2.28448e-05
0.000967095
-2.19915e-05
0.00111144
-7.31313e-05
0.00124974
-0.000129989
0.00138487
-0.000190987
0.0015126
-0.000254831
0.00163076
-0.000319775
0.00173732
-0.000384175
0.00183066
-0.000446913
0.00190986
-0.000507693
0.00197488
-0.000567175
0.00202655
-0.000626816
0.00206632
-0.000688415
0.00209575
-0.000753476
0.00211607
-0.000822622
0.00212776
-0.000895282
0.00213054
-0.000969751
0.00212365
-0.00104359
0.00210628
-0.00111415
0.0020783
-0.00117909
-0.00123746
0.00203904
0.000847455
-0.000327738
0.00225926
-0.00051317
0.00363711
-0.000347862
0.00482567
-7.26403e-05
0.00581365
0.000176798
0.00660143
0.000361652
0.00717573
0.000484114
0.0075196
0.000553753
0.00761266
0.000594398
0.00743918
0.000630742
0.0069912
0.000679795
0.00627407
0.000734358
0.00531084
0.000772861
0.00413421
0.000777215
0.00278245
0.000744345
0.00131804
0.000685923
-0.000152605
0.000619473
-0.00149118
0.00055523
-0.0025843
0.000488559
-0.00339734
0.000403959
-0.00396524
0.000286689
-0.00434055
0.000129574
-0.00456781
-6.65589e-05
-0.00469904
-0.000288505
-0.00472405
-0.000545322
-0.00467695
-0.000777051
-0.0045687
-0.000963909
-0.00439782
-0.00108188
-0.00417432
-0.0011118
-0.00392549
-0.00105618
-0.00368249
-0.000945735
-0.00346427
-0.00082284
-0.00327462
-0.000716421
-0.00310812
-0.000634339
-0.00295624
-0.000570652
-0.0028105
-0.000515892
-0.00266366
-0.000463196
-0.00251012
-0.00040978
-0.00234591
-0.000355737
-0.00217023
-0.000302785
-0.0019837
-0.000252803
-0.00179636
-0.000207577
-0.0016091
-0.000170123
-0.00142617
-0.000138624
-0.00124996
-0.000112396
-0.0010808
-9.03197e-05
-0.000917959
-7.09104e-05
-0.000756818
-5.66405e-05
-0.000595015
-4.49394e-05
-0.000430675
-3.58313e-05
-0.000261311
-3.08442e-05
-8.78183e-05
-2.75155e-05
8.90466e-05
-2.69096e-05
0.00026795
-2.92769e-05
0.000447009
-3.48191e-05
0.000626843
-4.67359e-05
0.000804812
-6.22192e-05
0.000979004
-8.24628e-05
0.00114702
-0.00010723
0.00130597
-0.000136109
0.00145312
-0.000169146
0.0015859
-0.000205903
0.00170163
-0.000245724
0.0017984
-0.000287755
0.00187464
-0.000331068
0.0019298
-0.000374939
0.0019647
-0.000419074
0.00198163
-0.000463845
0.00198426
-0.000510321
0.00197709
-0.00056
0.0019646
-0.000614328
0.00195034
-0.000674155
0.00193621
-0.000739352
0.00192231
-0.000808716
0.00190722
-0.000880194
0.00188881
-0.000951337
0.00186501
-0.00101979
0.00183451
-0.00108365
0.0017971
-0.00114168
-0.00119331
0.00175295
-4.2418e-05
-0.00028532
1.29751e-05
-0.000568563
0.000121128
-0.000456016
0.00016394
-0.000115452
0.000119485
0.000221253
3.6713e-05
0.000444424
6.89139e-06
0.000513936
7.48906e-05
0.000485753
0.000260205
0.000409083
0.000565086
0.000325861
0.000985065
0.000259815
0.00149921
0.000220209
0.0020693
0.000202779
0.00264996
0.000196546
0.00320337
0.000190942
0.00371063
0.000178662
0.00417407
0.000156028
0.00460648
0.000122828
0.00501428
8.07543e-05
0.00538615
3.20893e-05
0.0056947
-2.18569e-05
0.00590495
-8.06794e-05
0.00597995
-0.000141554
0.0058793
-0.000187863
0.00554672
-0.000212742
0.0049999
-0.000230225
0.00427346
-0.000237477
0.0034346
-0.00024302
0.00257482
-0.000252023
0.00178382
-0.000265175
0.00112291
-0.000284823
0.00061084
-0.000310775
0.000231417
-0.000336997
-4.72591e-05
-0.000355664
-0.000255121
-0.00036279
-0.000411589
-0.000359423
-0.000526101
-0.000348685
-0.00060255
-0.000333331
-0.000643323
-0.000314964
-0.00065156
-0.000294548
-0.000630948
-0.000273415
-0.000586146
-0.000252378
-0.000524149
-0.00023212
-0.000449829
-0.000212944
-0.000366645
-0.000195579
-0.000276466
-0.000180498
-0.00017933
-0.000168047
-7.74639e-05
-0.000158507
2.95904e-05
-0.000151994
0.000142317
-0.000148558
0.0002594
-0.000147927
0.000381711
-0.000149826
0.000509119
-0.000154318
0.000640897
-0.000161055
0.00077596
-0.000169882
0.000909932