/*--------------------------------*- C++ -*----------------------------------*\
| =========                 |                                                 |
| \\      /  F ield         | OpenFOAM: The Open Source CFD Toolbox           |
|  \\    /   O peration     | Version:  2012                                  |
|   \\  /    A nd           | Website:  www.openfoam.com                      |
|    \\/     M anipulation  |                                                 |
\*---------------------------------------------------------------------------*/
FoamFile
{
    version     2.0;
    format      ascii;
    class       volVectorField;
    location    "0.68";
    object      U;
}
// * * * * * * * * * * * * * * * * * * * * * * * * * * * * * * * * * * * * * //

dimensions      [0 1 -1 0 0 0 0];


internalField   nonuniform List<vector> 
42400
(
(-0.496792 0.0460894 -3.46858e-18)
(6.10838 0.875598 5.89171e-18)
(11.3981 -4.21222 -6.05625e-18)
(19.0971 -2.39796 0)
(22.7394 -1.19984 0)
(27.0627 0.280952 -2.85852e-21)
(30.8975 1.67429 0)
(32.7848 3.66093 2.31989e-20)
(31.8044 6.95864 0)
(27.9076 11.7803 3.72869e-20)
(21.8498 17.6967 3.55757e-20)
(14.7196 23.9465 -2.6079e-20)
(7.52959 29.7868 -7.23004e-17)
(1.06309 34.6385 7.37532e-17)
(-4.14256 38.0934 4.20547e-20)
(-7.79492 39.9182 0)
(-9.84969 40.0545 0)
(-10.4478 38.6508 0)
(-9.871 36.0141 0)
(-8.47826 32.5467 0)
(-6.58497 28.6521 0)
(-4.41306 24.6485 3.41711e-19)
(-2.09648 20.7806 -1.43796e-17)
(0.30818 17.188 3.91441e-18)
(2.7481 13.9695 1.14827e-17)
(5.17252 11.1787 2.62243e-19)
(7.52283 8.83923 2.26635e-19)
(9.70811 6.93694 -3.78065e-19)
(11.6246 5.44236 0)
(13.1821 4.32342 0)
(14.3041 3.5495 2.05319e-18)
(14.9402 3.102 -2.07252e-18)
(15.0711 2.98136 -9.42191e-20)
(14.709 3.19857 -9.53919e-19)
(13.879 3.75603 1.02477e-18)
(12.6182 4.6268 0)
(10.9853 5.73622 0)
(9.08417 6.96013 0)
(7.05242 8.11265 0)
(5.0447 8.97149 -3.76079e-19)
(3.24752 9.36126 3.77683e-19)
(1.82517 9.18097 -5.04169e-19)
(0.858429 8.42678 -8.3686e-20)
(0.323075 7.21252 1.08658e-18)
(0.0995626 5.73463 -5.52863e-19)
(0.0313707 4.21178 3.69474e-19)
(-0.0106874 2.82225 -5.6152e-19)
(-0.0953013 1.65875 2.39538e-19)
(-0.232553 0.729897 -4.93817e-20)
(-0.400341 -0.00234194 2.13746e-19)
(-0.573815 -0.594899 -5.5288e-19)
(-0.73686 -1.10271 -2.35266e-19)
(-0.876597 -1.55905 5.75901e-19)
(-0.982486 -1.97945 -1.26943e-19)
(-1.05097 -2.37235 0)
(-1.08339 -2.74136 0)
(-1.08316 -3.08673 0)
(-1.05424 -3.40708 1.45119e-19)
(-1.00078 -3.69986 1.47738e-19)
(-0.926957 -3.96191 0)
(-0.836878 -4.18976 2.00416e-18)
(-0.734464 -4.38006 -2.12055e-18)
(-0.623341 -4.52996 -2.02452e-18)
(-0.506701 -4.63751 1.98668e-18)
(-0.387143 -4.70199 0)
(-0.266513 -4.72406 0)
(-0.145767 -4.70586 -1.89112e-18)
(-0.0248848 -4.65085 1.84853e-18)
(0.0971291 -4.56342 2.50478e-19)
(0.222148 -4.44851 0)
(0.352726 -4.31109 0)
(0.491844 -4.15573 2.15497e-19)
(0.642635 -3.98641 2.03346e-19)
(0.808172 -3.8065 0)
(0.991334 -3.61909 1.79059e-19)
(1.19495 -3.42755 1.18652e-18)
(1.42288 -3.23547 -1.15069e-18)
(1.683 -3.04537 -2.88129e-19)
(1.99171 -2.8542 -9.45909e-19)
(2.34782 -2.68597 -8.83462e-19)
(1.94638 -2.40534 0)
(9.79546 -17.3199 -1.48956e-17)
(25.0838 -34.2041 1.5474e-17)
(30.7805 -51.2061 0)
(28.8927 -57.5825 0)
(20.6376 -58.0676 -4.7861e-17)
(10.3736 -55.2778 4.88538e-17)
(0.935726 -51.2133 -2.28934e-20)
(-6.41344 -46.7766 0)
(-11.3276 -41.983 -3.65634e-20)
(-14.0582 -36.6219 -3.47686e-20)
(-15.1652 -30.531 6.86211e-17)
(-15.2447 -23.6624 2.96796e-19)
(-14.6608 -16.0887 -7.20506e-17)
(-13.4168 -8.10592 -7.41405e-17)
(-11.2859 -0.330163 7.4682e-17)
(-8.04793 6.54585 0)
(-3.65812 12.1136 -7.09896e-19)
(1.69376 16.242 0)
(7.68297 19.0542 0)
(13.9195 20.7891 0)
(20.0197 21.7006 5.98045e-17)
(25.6212 22.0132 -6.68426e-18)
(30.4264 21.8892 -5.65898e-17)
(34.2026 21.5126 0)
(36.7343 21.0075 1.85427e-19)
(37.8576 20.4507 -2.2326e-19)
(37.5176 19.904 3.73535e-19)
(35.7605 19.3813 2.01493e-17)
(32.7552 18.794 -2.04232e-17)
(28.8557 17.9478 4.46934e-19)
(24.5208 16.6263 3.85515e-19)
(20.1527 14.7398 6.41355e-18)
(16.1206 12.3572 -6.72301e-18)
(12.5048 9.74241 -4.69076e-18)
(9.20231 7.29222 4.89712e-18)
(6.09508 5.38288 0)
(3.15083 4.21871 -1.76022e-19)
(0.469929 3.79685 0)
(-1.78225 3.93077 -2.56508e-19)
(-3.47446 4.32257 2.69812e-18)
(-4.54449 4.69269 -2.92389e-18)
(-5.01362 4.85704 6.09412e-20)
(-4.97947 4.7379 -5.32187e-20)
(-4.58665 4.347 -8.285e-20)
(-3.9942 3.75636 -4.63986e-20)
(-3.34522 3.06532 4.62026e-20)
(-2.74831 2.36194 1.55703e-18)
(-2.26974 1.70232 -1.54914e-18)
(-1.9312 1.11141 0)
(-1.71576 0.589734 1.05226e-19)
(-1.58338 0.124863 1.15004e-19)
(-1.49761 -0.305292 1.30511e-18)
(-1.43216 -0.723102 -1.28708e-18)
(-1.36666 -1.13883 -2.10949e-19)
(-1.28718 -1.55286 2.65233e-18)
(-1.18824 -1.96262 -3.04249e-18)
(-1.06982 -2.36343 -1.44984e-19)
(-0.93326 -2.74856 -1.47608e-19)
(-0.780413 -3.11102 2.8602e-18)
(-0.614107 -3.44372 -2.81549e-18)
(-0.437785 -3.7399 1.49746e-19)
(-0.255233 -3.99356 1.97059e-19)
(-0.0702865 -4.19982 0)
(0.113478 -4.35539 -2.2255e-18)
(0.293112 -4.45902 3.43214e-20)
(0.466652 -4.51175 2.79648e-18)
(0.633419 -4.51697 0)
(0.794193 -4.48014 -5.60956e-19)
(0.951208 -4.40816 2.94327e-19)
(1.10793 -4.30849 1.98063e-18)
(1.26867 -4.1882 -2.14438e-18)
(1.43804 -4.05318 -1.96033e-18)
(1.62044 -3.90773 1.93866e-18)
(1.8197 -3.75473 -3.94235e-19)
(2.03898 -3.59622 1.43326e-18)
(2.28186 -3.43392 -1.01751e-18)
(2.55464 -3.27007 2.88055e-19)
(2.86803 -3.11213 -1.45975e-18)
(3.21753 -3.01437 1.13245e-18)
(-18.6052 16.5375 3.31539e-17)
(-51.4858 50.3133 1.11952e-19)
(-74.8233 67.8172 -2.13706e-19)
(-81.4795 76.5483 1.4076e-19)
(-80.7595 75.0992 0)
(-72.5373 67.5165 6.02763e-17)
(-57.7435 53.8588 -1.11761e-16)
(-38.5866 36.0681 5.12373e-17)
(-18.4583 17.2511 -3.365e-17)
(-0.707604 0.250146 6.29517e-18)
(12.2617 -12.971 2.90599e-17)
(19.5078 -21.5791 3.62713e-19)
(22.0867 -26.0004 3.6256e-19)
(22.2011 -27.1765 -1.87669e-17)
(20.9241 -25.3508 1.90861e-17)
(18.0977 -20.8448 9.11148e-19)
(14.1331 -15.2828 1.5664e-17)
(10.1811 -10.2383 -4.52702e-19)
(6.88672 -6.11028 -1.55287e-17)
(4.09067 -2.60616 1.68283e-19)
(1.45619 0.550154 -1.25155e-19)
(-1.18582 3.46494 -8.37757e-20)
(-3.90575 6.18425 0)
(-6.74994 8.76201 5.44627e-19)
(-9.73263 11.2446 -1.61938e-17)
(-12.8312 13.6584 3.21433e-17)
(-15.9674 16.0112 -1.64383e-17)
(-18.9855 18.2925 1.58902e-17)
(-21.6919 20.4523 -1.60891e-17)
(-23.8692 22.4372 -1.53932e-17)
(-25.2779 24.1474 2.96867e-17)
(-25.7989 25.5046 -9.74331e-19)
(-25.4049 26.3331 -1.41188e-17)
(-24.0923 26.4479 0)
(-21.8828 25.6537 0)
(-18.974 23.9379 -2.29546e-19)
(-15.6822 21.5121 0)
(-12.4062 18.726 8.64277e-20)
(-9.53447 15.9836 5.38759e-18)
(-7.30372 13.6111 -9.66889e-18)
(-5.73359 11.7453 4.58848e-18)
(-4.67752 10.331 0)
(-3.92987 9.21621 0)
(-3.32512 8.25318 2.27724e-18)
(-2.7841 7.35126 -2.14675e-18)
(-2.30467 6.4808 -1.44948e-19)
(-1.92222 5.65007 0)
(-1.6684 4.87644 0)
(-1.54713 4.16857 1.8901e-18)
(-1.52982 3.52027 -1.88163e-18)
(-1.56837 2.91517 -1.05042e-19)
(-1.61308 2.33482 0)
(-1.62742 1.76582 -2.23772e-18)
(-1.59368 1.2037 1.92734e-18)
(-1.51017 0.648923 -3.7253e-18)
(-1.38331 0.103254 3.81673e-18)
(-1.21947 -0.429067 -3.72236e-18)
(-1.02436 -0.942206 7.79318e-18)
(-0.804827 -1.43442 -7.72218e-18)
(-0.567113 -1.90164 2.75408e-21)
(-0.315367 -2.33819 3.74805e-18)
(-0.0544499 -2.73853 3.63994e-18)
(0.210272 -3.09695 -3.77276e-18)
(0.473256 -3.40777 0)
(0.729182 -3.6659 2.91236e-18)
(0.9734 -3.86765 -7.24078e-20)
(1.20244 -4.01143 -3.83518e-18)
(1.41455 -4.09844 0)
(1.61009 -4.133 6.84764e-19)
(1.79176 -4.12239 2.24961e-18)
(1.96446 -4.07594 -2.14814e-18)
(2.13473 -4.00365 0)
(2.30986 -3.91454 0)
(2.49683 -3.81545 -2.30302e-19)
(2.70139 -3.71051 2.15144e-19)
(2.92764 -3.60143 1.23548e-18)
(3.17874 -3.48804 -2.02853e-18)
(3.45878 -3.36957 0)
(3.77189 -3.25241 3.18743e-19)
(4.10008 -3.19509 1.28649e-18)
(-4.72534 0.51694 -1.01333e-16)
(-12.786 5.28712 1.51456e-16)
(-20.6596 10.0662 -7.71285e-17)
(-26.172 16.0516 -7.66816e-17)
(-30.2029 21.6806 7.81733e-17)
(-33.1751 27.2246 0)
(-35.6917 32.4374 -1.445e-16)
(-38.1433 36.888 1.47239e-16)
(-40.6452 40.0652 -1.31313e-16)
(-42.8806 41.5591 1.34205e-16)
(-43.8343 40.8384 -1.14955e-16)
(-41.1627 36.5655 2.22544e-16)
(-31.6224 26.23 -2.00256e-16)
(-14.7471 9.94774 1.75014e-16)
(3.62837 -5.1989 -1.48948e-16)
(14.8016 -12.4284 6.87223e-17)
(15.7236 -13.9998 5.13159e-17)
(11.5772 -15.0446 -9.74092e-17)
(8.18884 -16.8084 4.64869e-17)
(6.54336 -18.9458 -1.72759e-19)
(5.45396 -21.3134 -1.4769e-19)
(4.38913 -23.6016 2.47732e-17)
(3.28324 -25.435 -2.48961e-17)
(2.10678 -26.6471 -8.27032e-21)
(0.876318 -27.1943 0)
(-0.356196 -27.0849 5.41052e-20)
(-1.50316 -26.3372 0)
(-2.46052 -24.9547 -4.64163e-18)
(-3.15831 -22.9598 8.30908e-19)
(-3.57948 -20.3751 4.10535e-18)
(-3.80317 -17.2489 4.07405e-18)
(-3.99362 -13.676 -4.27498e-18)
(-4.2388 -9.81615 2.03919e-19)
(-4.61571 -5.84003 6.06731e-20)
(-5.04275 -2.0617 4.00517e-18)
(-5.49553 1.29248 -4.07136e-18)
(-5.94448 4.01007 0)
(-6.32872 6.00941 -1.13144e-18)
(-6.59236 7.32983 1.22527e-18)
(-6.70821 8.05852 1.56152e-19)
(-6.66812 8.30114 -1.04723e-19)
(-6.46793 8.17727 0)
(-6.12136 7.80178 0)
(-5.67133 7.27402 0)
(-5.18058 6.67628 -1.89012e-19)
(-4.71021 6.07045 2.81191e-18)
(-4.29945 5.49461 -2.6614e-18)
(-3.9572 4.9636 0)
(-3.6676 4.47476 0)
(-3.40347 4.01603 2.82466e-18)
(-3.13979 3.5732 -2.60221e-18)
(-2.86147 3.13444 2.79607e-18)
(-2.56442 2.69209 -2.08059e-18)
(-2.25187 2.2425 3.92584e-19)
(-1.92929 1.78471 -2.31411e-18)
(-1.60127 1.3195 2.95855e-18)
(-1.26997 0.848713 -5.2102e-18)
(-0.935148 0.375619 4.78793e-18)
(-0.594172 -0.0943171 0)
(-0.246038 -0.554295 -3.35364e-19)
(0.107391 -0.999816 -4.69127e-18)
(0.46274 -1.42497 3.95472e-19)
(0.815347 -1.82347 9.10564e-18)
(1.15952 -2.18901 -8.16342e-18)
(1.48916 -2.51543 3.54761e-18)
(1.7985 -2.79683 3.78628e-18)
(2.08283 -3.02805 -2.79874e-18)
(2.3391 -3.20556 -4.61224e-19)
(2.56668 -3.32876 -3.13081e-18)
(2.76802 -3.40099 3.11356e-18)
(2.94899 -3.42979 -7.13125e-19)
(3.11853 -3.42584 -2.98978e-18)
(3.28742 -3.40078 2.56183e-18)
(3.46645 -3.36462 0)
(3.6646 -3.32392 -2.13929e-18)
(3.88774 -3.28109 5.59728e-19)
(4.13894 -3.23453 4.27565e-18)
(4.41997 -3.1805 -1.7876e-18)
(4.72847 -3.1253 1.5793e-18)
(5.04213 -3.12664 -1.56127e-18)
(6.95866 -2.47494 3.4753e-17)
(25.7962 -9.27967 0)
(44.5163 -16.7384 0)
(63.4957 -20.5489 4.92437e-20)
(80.8073 -23.4761 0)
(95.4625 -24.2041 0)
(104.55 -21.8054 0)
(107.209 -16.0647 6.02874e-19)
(104.793 -8.26433 0)
(99.8031 -0.98513 -2.93247e-19)
(94.9082 3.108 3.51023e-17)
(91.9225 2.47445 -6.27967e-17)
(89.7206 -1.98479 2.65817e-17)
(83.5829 -6.31275 0)
(69.7095 -5.95854 2.65437e-19)
(49.6808 0.202005 -4.49934e-19)
(28.6322 9.15773 0)
(11.2194 16.9368 -5.13639e-18)
(-0.455974 21.6787 9.94545e-18)
(-6.8746 23.5779 -1.40179e-18)
(-9.73959 23.5735 -3.75704e-18)
(-10.5857 22.4798 -2.20649e-19)
(-10.3789 20.8344 0)
(-9.59538 18.8898 -2.05163e-18)
(-8.38197 16.7265 2.51073e-18)
(-6.71753 14.3613 -4.08692e-18)
(-4.54405 11.7951 4.35355e-18)
(-1.87183 9.03383 4.29808e-18)
(1.15538 6.13459 -4.3542e-18)
(4.21389 3.25906 0)
(6.79734 0.686 -2.3349e-18)
(8.37681 -1.22194 2.35859e-18)
(8.62056 -2.14758 -5.21961e-20)
(7.53079 -1.992 -7.81969e-19)
(5.42993 -0.903526 7.27866e-19)
(2.83265 0.797901 2.66426e-19)
(0.190859 2.74468 -2.06284e-19)
(-2.16727 4.62046 -1.44372e-18)
(-4.06378 6.17529 1.45053e-18)
(-5.42484 7.28118 2.07824e-18)
(-6.2473 7.92543 4.75004e-19)
(-6.59017 8.1494 -2.98351e-18)
(-6.54956 8.0227 0)
(-6.23547 7.63541 3.25438e-19)
(-5.75611 7.08535 -3.15247e-18)
(-5.2039 6.46505 7.74321e-18)
(-4.64516 5.84993 -7.61597e-18)
(-4.11742 5.29054 3.54064e-18)
(-3.63427 4.81084 0)
(-3.19471 4.41208 2.7622e-19)
(-2.79207 4.07975 -3.69549e-18)
(-2.41935 3.79076 3.73103e-18)
(-2.07068 3.51955 9.91367e-20)
(-1.74026 3.24276 -3.41333e-18)
(-1.42093 2.94243 2.62026e-18)
(-1.10365 2.60787 -3.30922e-18)
(-0.778458 2.2363 -3.58043e-18)
(-0.436555 1.83196 6.69246e-18)
(-0.0727901 1.40427 -5.99989e-18)
(0.313873 0.966256 6.24708e-18)
(0.719635 0.533081 0)
(1.13683 0.116045 -3.11167e-19)
(1.55465 -0.277219 -5.03932e-18)
(1.96189 -0.642141 4.37815e-18)
(2.34889 -0.977064 1.1541e-18)
(2.70831 -1.28173 0)
(3.03512 -1.55523 4.1497e-18)
(3.32618 -1.79476 -3.54209e-18)
(3.58016 -1.9962 -4.33332e-19)
(3.79822 -2.15633 -4.50319e-19)
(3.98536 -2.27559 8.02994e-19)
(4.15113 -2.35964 -3.75372e-20)
(4.30909 -2.4185 -3.1432e-18)
(4.4744 -2.46364 2.69799e-18)
(4.66063 -2.50421 -3.21318e-19)
(4.87695 -2.54449 0)
(5.12716 -2.58274 -2.58625e-18)
(5.41063 -2.61271 2.02027e-18)
(5.71806 -2.63776 0)
(6.01479 -2.71042 -1.66987e-18)
(4.57008 -3.78959 3.4658e-19)
(11.711 -9.85606 1.22368e-17)
(18.3143 -14.0819 -9.33489e-18)
(19.4969 -15.4677 1.62545e-17)
(15.5723 -11.9595 -7.10301e-18)
(7.34441 -5.87026 -1.21405e-19)
(-4.27917 2.04689 2.60968e-18)
(-19.896 12.5515 -2.87063e-18)
(-41.6197 27.3173 5.35608e-20)
(-71.7492 47.671 3.13605e-19)
(-109.359 72.4372 -1.76635e-17)
(-143.948 94.6931 -2.48876e-17)
(-156.861 102.656 4.42293e-17)
(-139.394 90.3836 -5.22498e-17)
(-102.978 65.0885 1.05988e-16)
(-66.7478 40.1523 -5.39669e-17)
(-40.9369 23.1106 0)
(-24.8846 13.525 0)
(-14.3864 8.22488 4.13523e-17)
(-6.75176 5.03257 -4.82465e-18)
(-1.17358 3.08783 -3.70104e-17)
(2.57674 2.06906 2.90824e-17)
(4.86687 1.67062 -5.60707e-17)
(6.2074 1.54893 2.67069e-17)
(7.02538 1.43927 2.34882e-17)
(7.53398 1.21734 -1.02072e-18)
(7.76454 0.883739 -2.34193e-17)
(7.63203 0.498775 2.60691e-19)
(6.9948 0.127189 -2.79621e-19)
(5.75584 -0.17385 5.86013e-19)
(3.95807 -0.365798 0)
(1.83724 -0.460331 1.70571e-17)
(-0.223548 -0.492058 -3.36173e-17)
(-1.87901 -0.468584 1.65251e-17)
(-3.02366 -0.332572 0)
(-3.75501 0.022906 -1.2943e-17)
(-4.2607 0.679303 1.30199e-17)
(-4.67857 1.64285 0)
(-5.05875 2.82484 0)
(-5.3885 4.08459 -8.88234e-18)
(-5.61281 5.29233 9.0923e-18)
(-5.68042 6.33989 -2.45881e-19)
(-5.56968 7.15158 0)
(-5.28716 7.69228 6.45296e-18)
(-4.86119 7.96211 -7.23374e-19)
(-4.3327 7.98844 -6.67193e-18)
(-3.74741 7.81695 -3.99812e-19)
(-3.15069 7.50276 6.67864e-19)
(-2.5842 7.10225 0)
(-2.08266 6.6656 -5.15945e-18)
(-1.66977 6.23079 9.56966e-18)
(-1.3539 5.81967 -4.93263e-18)
(-1.12547 5.43707 -4.97276e-19)
(-0.957944 5.07353 -4.57859e-18)
(-0.813049 4.71119 5.85668e-19)
(-0.649198 4.33138 7.68367e-18)
(-0.430572 3.92142 -2.82767e-18)
(-0.134165 3.47894 0)
(0.247245 3.01332 0)
(0.70553 2.54265 4.25914e-19)
(1.21788 2.08286 4.06568e-19)
(1.7529 1.64831 0)
(2.28198 1.25534 5.25191e-18)
(2.78074 0.911589 -5.16486e-18)
(3.2322 0.614221 -5.61396e-18)
(3.6288 0.352868 -4.30129e-19)
(3.9713 0.114226 4.07375e-18)
(4.26544 -0.112391 -4.16961e-18)
(4.51798 -0.331016 4.07305e-18)
(4.73449 -0.53863 -2.64433e-20)
(4.92022 -0.728782 3.0127e-18)
(5.08295 -0.896972 -2.9513e-18)
(5.23524 -1.04433 -2.63772e-18)
(5.39377 -1.17735 3.28921e-18)
(5.57558 -1.30428 -2.30228e-18)
(5.79337 -1.43065 2.54683e-18)
(6.05246 -1.5562 -2.27448e-18)
(6.35063 -1.67466 4.31504e-18)
(6.6746 -1.78581 -9.0372e-20)
(6.97253 -1.94191 -1.00514e-19)
(6.4073 -4.73345 -4.69517e-18)
(32.5338 -21.7273 -7.47707e-20)
(64.7064 -42.6734 9.38631e-18)
(89.4322 -60.4312 -2.03681e-17)
(100.973 -70.2462 1.10807e-17)
(104.571 -74.1005 -1.32417e-17)
(103.609 -74.4999 -1.93196e-19)
(99.1231 -72.0362 1.48548e-17)
(90.701 -66.3935 -1.45356e-17)
(78.3623 -57.2155 1.54346e-17)
(62.8966 -44.487 -1.3708e-17)
(45.5955 -28.5153 1.42341e-17)
(28.925 -11.3055 -9.9902e-18)
(15.1092 3.94426 1.02981e-17)
(4.93494 14.6422 1.5341e-19)
(-2.34946 20.4384 1.65807e-19)
(-7.99485 22.575 -6.15515e-18)
(-12.813 22.5316 6.25229e-18)
(-17.1785 21.2771 -2.83039e-19)
(-21.3081 19.2847 1.80654e-19)
(-25.2635 16.7648 -5.16211e-18)
(-28.9404 13.8042 5.48839e-18)
(-32.0581 10.4758 0)
(-34.3008 6.89383 -9.18722e-20)
(-35.4892 3.2545 0)
(-35.6468 -0.220513 0)
(-34.9541 -3.3959 -1.41553e-19)
(-33.5544 -6.2001 -1.25451e-17)
(-31.46 -8.59517 1.29177e-17)
(-28.6049 -10.599 1.70055e-17)
(-24.95 -12.2427 -1.78278e-17)
(-20.6492 -13.5163 5.97667e-19)
(-16.1114 -14.3213 -5.84811e-19)
(-11.8805 -14.5239 0)
(-8.41728 -14.0555 -3.79524e-19)
(-5.93307 -12.9451 0)
(-4.38416 -11.3113 0)
(-3.57551 -9.32075 -3.27349e-19)
(-3.26021 -7.12382 0)
(-3.21638 -4.84381 0)
(-3.29045 -2.60228 1.12162e-17)
(-3.38166 -0.493738 -1.0655e-17)
(-3.42726 1.41803 0)
(-3.39762 3.0881 0)
(-3.28608 4.48897 0)
(-3.10098 5.60891 -4.09123e-19)
(-2.85912 6.45022 3.99328e-19)
(-2.58129 7.0276 5.9073e-18)
(-2.28899 7.36646 -6.258e-18)
(-2.00151 7.50063 5.54351e-18)
(-1.73288 7.46908 -6.14816e-18)
(-1.48854 7.31141 6.05994e-19)
(-1.26269 7.06276 2.92853e-19)
(-1.03771 6.74958 0)
(-0.787107 6.38792 0)
(-0.48189 5.98536 -3.62532e-18)
(-0.0986714 5.54542 -3.61254e-19)
(0.373409 5.07274 3.92508e-18)
(0.929236 4.5765 -3.64741e-18)
(1.54744 4.06969 3.60662e-18)
(2.19842 3.57381 6.2138e-18)
(2.8476 3.11515 -2.37719e-19)
(3.45703 2.71235 -1.17114e-17)
(3.99362 2.37469 5.81235e-18)
(4.43675 2.10151 3.29445e-19)
(4.78182 1.88086 6.13541e-19)
(5.04026 1.69202 4.60658e-18)
(5.23475 1.51177 -8.82292e-18)
(5.39098 1.32244 4.21895e-18)
(5.5296 1.11736 4.75266e-19)
(5.66285 0.900655 3.5606e-18)
(5.79738 0.681785 -3.89262e-18)
(5.94031 0.468684 0)
(6.10285 0.263782 -3.65443e-19)
(6.29891 0.0647757 0)
(6.53984 -0.13151 2.56571e-18)
(6.8294 -0.325199 -9.67722e-20)
(7.16201 -0.511894 -2.31905e-18)
(7.52313 -0.686905 1.52977e-18)
(7.84409 -0.914476 3.91574e-19)
(14.9088 -5.62799 -6.44261e-17)
(27.8041 -4.25526 9.71698e-17)
(21.6359 -4.39051 1.26423e-19)
(25.802 -6.58242 8.45071e-17)
(35.5066 -15.9311 -8.66898e-17)
(42.2965 -24.0569 7.51426e-17)
(42.6486 -29.7803 -1.47367e-16)
(37.5955 -32.7004 7.12828e-17)
(29.0932 -33.0499 -6.13419e-17)
(18.9 -30.9807 6.18914e-17)
(8.06162 -26.8881 0)
(-2.60444 -21.5773 3.50317e-20)
(-12.1878 -15.9886 -3.19177e-19)
(-20.1379 -10.851 0)
(-26.4671 -6.58855 0)
(-31.3207 -3.29389 0)
(-34.7895 -0.776249 0)
(-36.9628 1.36929 2.92766e-19)
(-38.0427 3.64481 0)
(-38.2611 6.36133 -1.31343e-17)
(-37.5231 9.4578 1.29764e-17)
(-35.3517 12.4286 1.68574e-17)
(-31.4714 14.7908 -1.71933e-17)
(-26.0315 16.267 -1.29219e-17)
(-19.5917 16.7787 1.34772e-17)
(-12.8156 16.4122 -1.09108e-17)
(-6.22975 15.39 1.12287e-17)
(-0.199202 13.9411 -8.93299e-18)
(5.0287 12.2447 1.1268e-18)
(9.28919 10.4494 8.09292e-18)
(12.4781 8.69909 0)
(14.5301 7.09991 2.30618e-19)
(15.4625 5.69692 2.13201e-19)
(15.4255 4.50072 0)
(14.6748 3.52191 3.79488e-19)
(13.4909 2.77242 0)
(12.1038 2.26772 0)
(10.6676 2.02581 5.75221e-18)
(9.26532 2.04793 -1.08716e-17)
(7.94457 2.32123 5.62297e-18)
(6.7309 2.82745 5.62211e-18)
(5.63126 3.53006 -5.80868e-18)
(4.64537 4.37632 -1.67531e-19)
(3.76832 5.30791 0)
(2.99516 6.26827 5.95291e-18)
(2.32071 7.2036 -5.21453e-18)
(1.73844 8.06593 0)
(1.24423 8.81638 0)
(0.835747 9.42748 -4.80758e-18)
(0.511482 9.88373 5.36729e-18)
(0.271684 10.1806 5.3915e-18)
(0.118717 10.3229 -5.06322e-18)
(0.0571403 10.3224 -4.76726e-18)
(0.0933328 10.1945 8.75806e-18)
(0.234406 9.95535 -4.27983e-18)
(0.486163 9.61992 -9.97258e-19)
(0.850311 9.20122 0)
(1.32159 8.71153 4.44563e-19)
(1.88566 8.16402 -3.13091e-18)
(2.51833 7.57426 6.46133e-18)
(3.18418 6.95944 -3.33976e-18)
(3.84097 6.34328 0)
(4.44521 5.75242 -3.71477e-19)
(4.95572 5.20702 0)
(5.3417 4.71831 -3.28616e-19)
(5.59482 4.28739 -2.90081e-19)
(5.73448 3.90506 -5.47169e-19)
(5.80179 3.555 -4.21086e-18)
(5.8445 3.22041 3.62601e-18)
(5.90072 2.89092 -4.61845e-19)
(5.99055 2.5652 -3.52049e-18)
(6.11913 2.24845 4.26657e-18)
(6.2864 1.94687 -3.12595e-18)
(6.49493 1.66343 3.04046e-18)
(6.75071 1.39712 -3.11332e-18)
(7.05819 1.14515 2.35864e-18)
(7.41486 0.906021 2.42669e-18)
(7.80826 0.679764 -2.35242e-18)
(8.22251 0.475437 5.31397e-19)
(8.58274 0.210078 -4.93056e-19)
(1.19448 -2.97248 -4.11277e-17)
(-14.6438 -0.703732 -5.89682e-17)
(-44.4438 9.15208 1.16503e-16)
(-69.6333 16.0311 -1.11403e-16)
(-81.9132 19.1481 5.46384e-17)
(-85.6754 18.7869 -1.18571e-19)
(-82.6782 16.018 -3.71618e-17)
(-74.4514 11.5105 6.857e-17)
(-62.6521 6.0038 -6.76148e-18)
(-49.4707 0.432025 -2.44878e-17)
(-38.1676 -3.99571 3.90546e-19)
(-31.9087 -6.3049 6.11616e-18)
(-31.7477 -6.59824 -6.23339e-18)
(-36.086 -5.805 -2.95182e-18)
(-41.6951 -4.96006 3.00792e-18)
(-45.097 -4.88705 1.07876e-17)
(-43.05 -6.20054 -1.10032e-17)
(-33.3864 -9.18414 -2.94779e-19)
(-17.2603 -13.2702 0)
(0.201094 -16.8735 -1.70407e-17)
(13.1923 -18.0807 1.73683e-17)
(19.1669 -16.1697 3.43158e-20)
(19.2171 -11.8322 1.31888e-17)
(15.864 -6.42382 -1.34644e-17)
(11.2033 -1.09182 -1.93539e-19)
(6.49259 3.48225 0)
(2.41418 6.98444 -7.38488e-20)
(-0.668146 9.31064 -2.54605e-19)
(-2.58867 10.4811 -1.16031e-17)
(-3.34327 10.6284 1.17972e-17)
(-3.08905 9.96819 9.34604e-18)
(-2.1252 8.77062 -9.62853e-18)
(-0.784889 7.32598 -1.1777e-19)
(0.662065 5.87989 -7.79362e-18)
(2.04429 4.59216 1.5079e-17)
(3.27943 3.55027 -7.37686e-18)
(4.32758 2.78913 -6.50066e-18)
(5.16604 2.34153 6.64454e-18)
(5.78015 2.19838 -7.22878e-20)
(6.16164 2.33652 -1.09748e-19)
(6.31318 2.72672 1.75295e-19)
(6.24748 3.33014 -5.03274e-18)
(5.99005 4.1071 3.73141e-19)
(5.5695 5.01008 4.83027e-18)
(5.02193 5.98942 -4.8774e-18)
(4.38739 6.99823 4.54728e-18)
(3.70801 7.98704 0)
(3.02235 8.90602 4.59123e-18)
(2.37002 9.7216 -4.61964e-18)
(1.78708 10.4105 3.92618e-18)
(1.30129 10.9563 -3.34225e-19)
(0.933274 11.3514 -6.19573e-20)
(0.69706 11.5956 -7.15061e-20)
(0.600607 11.6939 -8.00672e-20)
(0.646348 11.6547 -3.78986e-18)
(0.831333 11.488 2.66036e-19)
(1.14677 11.2045 0)
(1.57706 10.8161 -3.73207e-18)
(2.0986 10.3359 2.8192e-18)
(2.67877 9.77915 0)
(3.27664 9.16569 -3.18328e-18)
(3.84291 8.51753 2.47874e-18)
(4.32657 7.85177 0)
(4.69111 7.19039 -2.8984e-19)
(4.92681 6.55639 0)
(5.05361 5.9633 -4.0575e-18)
(5.11793 5.41573 8.67822e-18)
(5.17604 4.91201 -4.03537e-18)
(5.27339 4.44777 4.87986e-19)
(5.43204 4.01951 4.6156e-19)
(5.65201 3.62604 -3.36722e-18)
(5.92252 3.2674 2.86795e-18)
(6.23396 2.94277 -3.75095e-19)
(6.58326 2.64911 -3.5571e-19)
(6.97141 2.38157 6.83792e-19)
(7.39718 2.13498 3.26631e-19)
(7.85225 1.90587 2.68878e-18)
(8.31885 1.6902 -8.38248e-20)
(8.77889 1.50007 -2.42399e-18)
(9.16962 1.24774 -4.82947e-19)
(-11.1527 4.52579 0)
(-11.8706 5.54031 3.73183e-19)
(8.66525 -0.393204 2.7672e-21)
(38.9907 -8.96459 3.59514e-17)
(67.3618 -15.5242 -7.28758e-17)
(89.1453 -19.5198 7.32382e-17)
(102.351 -20.5833 -3.70804e-17)
(106.997 -18.9684 0)
(103.738 -15.0777 -5.0044e-19)
(92.7109 -9.02278 3.54586e-17)
(73.512 -0.590871 -3.66128e-17)
(46.5653 10.2734 -3.37979e-17)
(15.0164 22.5886 6.74668e-17)
(-14.0554 33.6459 -1.68696e-18)
(-31.5823 39.8457 -2.11505e-18)
(-32.8133 39.311 -3.01519e-17)
(-21.7808 33.5802 -3.64235e-19)
(-7.53678 26.1246 2.42063e-17)
(3.14223 19.5368 -2.4361e-17)
(8.30549 14.5378 -1.81447e-20)
(8.94266 10.967 -2.94488e-19)
(6.79074 8.59834 -5.60094e-19)
(3.46415 7.30961 9.30118e-18)
(0.081847 6.88577 -2.73328e-18)
(-2.76767 7.05499 -6.86746e-18)
(-4.87037 7.64747 -2.95956e-19)
(-6.17623 8.48208 3.66304e-18)
(-6.71376 9.4368 -6.07827e-18)
(-6.56895 10.4099 5.09963e-18)
(-5.83165 11.307 -2.2142e-18)
(-4.61757 12.0418 0)
(-3.05008 12.5565 2.43488e-18)
(-1.24653 12.8106 -4.39377e-18)
(0.6968 12.8041 1.9081e-18)
(2.6625 12.5677 -5.21435e-19)
(4.54682 12.1427 6.54699e-19)
(6.25593 11.5719 -1.08006e-19)
(7.7149 10.941 0)
(8.8706 10.3188 -7.49817e-20)
(9.68838 9.76139 -1.29001e-18)
(10.1537 9.30699 1.45747e-18)
(10.2728 8.98277 -8.49538e-20)
(10.0702 8.80325 9.66333e-20)
(9.58327 8.77056 0)
(8.85899 8.87514 0)
(7.94693 9.09216 3.06011e-18)
(6.9095 9.39242 -3.53746e-18)
(5.80749 9.74158 -2.48116e-19)
(4.70209 10.099 -3.73656e-18)
(3.65077 10.4265 7.73928e-18)
(2.70498 10.6972 -3.50478e-18)
(1.90377 10.8908 0)
(1.27317 10.995 3.82315e-18)
(0.826691 11.0039 -3.56328e-18)
(0.566294 10.9158 0)
(0.483741 10.7321 3.39106e-18)
(0.561488 10.4562 -3.14011e-18)
(0.773216 10.0937 2.87264e-18)
(1.08455 9.65312 -2.50061e-18)
(1.45508 9.14631 0)
(1.84284 8.58898 6.38217e-19)
(2.21198 7.99976 3.21159e-19)
(2.54026 7.4003 -2.24623e-18)
(2.82458 6.81115 3.45601e-19)
(3.08286 6.24981 2.10881e-18)
(3.34576 5.73061 0)
(3.6415 5.26083 2.50654e-19)
(3.98678 4.84322 0)
(4.38246 4.47585 0)
(4.81722 4.15367 -3.34043e-18)
(5.27601 3.87027 3.25729e-18)
(5.74794 3.61904 2.67003e-18)
(6.22967 3.39339 3.08158e-19)
(6.72316 3.18697 -2.46108e-18)
(7.23016 2.994 -2.9363e-18)
(7.74695 2.80977 2.5243e-18)
(8.26195 2.6316 -2.98221e-19)
(8.7563 2.45597 -2.15513e-18)
(9.20909 2.29432 4.6064e-18)
(9.5847 2.08062 -1.45094e-18)
(9.49606 -3.54146 5.27694e-17)
(31.0736 -6.31681 -3.91377e-17)
(45.7207 -13.9828 -3.37493e-17)
(47.9116 -12.6015 3.45883e-17)
(38.0812 -10.8625 -2.97317e-20)
(25.5924 -7.81296 -4.53877e-20)
(13.6792 -4.86064 0)
(3.12726 -2.16856 1.46159e-17)
(-5.86989 0.228124 -1.49705e-17)
(-13.0757 2.32301 0)
(-18.3387 4.3018 -1.27296e-18)
(-21.8152 6.685 -1.78279e-18)
(-23.9026 10.1527 -4.50231e-18)
(-24.7146 14.7746 1.85657e-17)
(-23.6663 19.5185 -1.16215e-17)
(-20.2598 23.0747 -3.62849e-19)
(-15.1375 24.9086 1.82651e-19)
(-9.59193 25.1774 0)
(-4.52441 24.2819 -2.1226e-17)
(-0.268728 22.6752 2.12157e-17)
(3.14833 20.7526 1.1631e-19)
(5.82243 18.8001 -1.84982e-17)
(7.87601 16.9992 1.91389e-17)
(9.41994 15.4401 -1.59514e-17)
(10.5564 14.1491 1.62179e-17)
(11.3704 13.1518 2.91252e-19)
(11.9339 12.4085 -1.19008e-17)
(12.3157 11.9192 1.65924e-18)
(12.56 11.6402 1.87265e-17)
(12.7055 11.4959 -1.52283e-18)
(12.7824 11.4377 -7.23899e-18)
(12.8218 11.4305 -4.7535e-18)
(12.8195 11.4246 4.82541e-18)
(12.7861 11.3705 0)
(12.7071 11.2349 -8.14121e-20)
(12.5673 11.0268 -4.67281e-20)
(12.3494 10.7487 0)
(12.0273 10.3909 6.82214e-19)
(11.5773 9.9486 -7.19748e-19)
(10.9931 9.44272 -5.36708e-20)
(10.2794 8.90593 0)
(9.44796 8.37896 8.466e-20)
(8.51126 7.90491 4.0467e-18)
(7.47636 7.52158 -4.01992e-18)
(6.34648 7.25264 0)
(5.12659 7.09998 -4.10142e-18)
(3.85025 7.05591 4.71595e-18)
(2.5672 7.09431 0)
(1.34036 7.18134 0)
(0.233121 7.28407 -2.50601e-19)
(-0.701954 7.37542 -2.45764e-19)
(-1.43096 7.43747 0)
(-1.94118 7.45903 3.37972e-18)
(-2.23798 7.43421 -3.57794e-18)
(-2.33968 7.36068 -3.19895e-18)
(-2.27257 7.23828 3.43839e-19)
(-2.06691 7.06838 5.79556e-18)
(-1.7539 6.85392 -5.45115e-18)
(-1.36306 6.59984 -2.24358e-19)
(-0.919539 6.31355 2.18432e-18)
(-0.441667 6.0051 -3.01261e-19)
(0.0605482 5.68676 0)
(0.58475 5.37224 0)
(1.13263 5.07474 1.99869e-18)
(1.70748 4.80397 -2.19623e-18)
(2.30965 4.56604 0)
(2.93256 4.36344 2.18843e-19)
(3.56463 4.19399 0)
(4.19241 4.05206 1.64443e-18)
(4.80476 3.93043 -1.60466e-18)
(5.39614 3.8217 3.69945e-19)
(5.96727 3.71896 3.25289e-18)
(6.52297 3.61614 -2.80181e-18)
(7.06811 3.50824 3.19098e-19)
(7.60348 3.39152 0)
(8.12327 3.26379 0)
(8.61471 3.12452 0)
(9.0609 2.97401 -2.29748e-18)
(9.44027 2.81911 -1.78421e-19)
(9.74541 2.63148 3.59566e-18)
(0.0256318 -1.50892 -2.52577e-18)
(-6.88738 2.24581 -5.07013e-18)
(-17.7879 -0.317925 5.1906e-18)
(-18.9544 -2.13606 -7.36083e-18)
(-10.251 -10.0884 7.74443e-18)
(5.54579 -19.4261 2.02626e-19)
(21.5747 -27.8723 1.91496e-19)
(32.6303 -33.6448 0)
(38.0588 -36.506 2.08229e-20)
(39.5089 -37.0297 0)
(38.3394 -35.6942 1.09959e-19)
(35.1706 -32.7512 5.88548e-18)
(30.3487 -28.3822 -5.91612e-18)
(24.3726 -22.8558 -5.36803e-18)
(18.0601 -16.6116 5.46378e-18)
(12.3335 -10.2182 -4.7028e-18)
(7.75127 -4.22627 4.82629e-18)
(4.39442 0.828511 0)
(2.10988 4.55613 0)
(0.717909 6.8852 0)
(-0.0387913 8.12189 1.92775e-18)
(-0.495788 8.71989 -2.90147e-18)
(-0.874323 9.00063 5.27836e-19)
(-1.16269 9.12857 1.25575e-18)
(-1.2239 9.19902 -1.984e-19)
(-0.950688 9.27695 0)
(-0.34152 9.39646 2.51854e-19)
(0.48762 9.54911 0)
(1.37893 9.70615 -7.95201e-19)
(2.18667 9.83656 6.39883e-19)
(2.81077 9.92519 -2.60131e-19)
(3.23002 9.97767 0)
(3.44655 10.0209 2.11617e-18)
(3.47064 10.0318 -4.66972e-18)
(3.31596 10.0058 2.51166e-18)
(2.99682 9.92176 -2.58717e-18)
(2.53444 9.75818 5.22399e-18)
(1.95749 9.48796 -2.63518e-18)
(1.31117 9.06917 0)
(0.661817 8.46328 0)
(0.0928748 7.67165 0)
(-0.329366 6.73274 2.26091e-18)
(-0.60426 5.70291 -6.78377e-18)
(-0.793311 4.67692 4.39381e-18)
(-0.987954 3.75493 0)
(-1.265 3.00495 -4.32563e-18)
(-1.64572 2.45714 4.18328e-18)
(-2.10153 2.10944 4.05791e-18)
(-2.57836 1.93806 -3.28881e-19)
(-3.01917 1.90856 -1.16449e-19)
(-3.37845 1.98436 -1.36821e-19)
(-3.62714 2.13135 -3.63089e-18)
(-3.7518 2.3202 0)
(-3.75076 2.52697 0)
(-3.62996 2.73315 -2.7619e-18)
(-3.39938 2.92527 2.88797e-18)
(-3.07045 3.09449 0)
(-2.65448 3.23618 0)
(-2.16173 3.34942 1.44112e-19)
(-1.60126 3.43649 2.94676e-19)
(-0.98128 3.50215 0)
(-0.309897 3.55299 0)
(0.404869 3.59834 -2.43727e-19)
(1.15056 3.64046 -2.34382e-19)
(1.91162 3.6796 2.0673e-18)
(2.67147 3.72058 -3.55315e-18)
(3.41335 3.76397 -1.88547e-19)
(4.12191 3.80611 3.27816e-18)
(4.78641 3.8419 -3.33349e-18)
(5.40257 3.86589 3.00802e-18)
(5.97276 3.8727 -5.73689e-19)
(6.50422 3.85762 -1.38477e-18)
(7.00589 3.81718 2.57391e-18)
(7.48468 3.74947 -8.41453e-20)
(7.94222 3.65433 -4.67815e-18)
(8.37333 3.53326 2.50621e-18)
(8.76639 3.38894 0)
(9.10669 3.22576 4.87787e-19)
(9.37544 3.04725 0)
(9.57875 2.8567 -1.66684e-18)
(-19.169 3.69748 0)
(-39.9647 6.5418 8.17472e-20)
(-47.821 6.09111 -7.78068e-20)
(-50.2994 2.34968 4.49408e-17)
(-52.6543 -1.08679 -8.94401e-17)
(-53.4873 -5.83835 4.39416e-17)
(-51.7002 -12.1652 -1.88147e-19)
(-46.8127 -19.7434 0)
(-38.8684 -27.9991 0)
(-28.5174 -36.2871 0)
(-16.9755 -44.3255 -1.07801e-19)
(-5.4678 -51.7941 -1.32549e-19)
(5.22065 -58.2672 0)
(14.7913 -63.525 6.20549e-20)
(22.9499 -67.4047 1.56774e-19)
(28.518 -69.1923 1.34871e-17)
(29.1776 -67.7902 -1.36631e-17)
(23.2842 -63.3824 -2.41475e-19)
(12.4873 -58.0415 0)
(1.51269 -53.6249 2.70359e-19)
(-5.72341 -50.275 -1.56627e-19)
(-8.73137 -47.5411 2.21263e-17)
(-8.797 -45.2855 -5.52485e-19)
(-6.85222 -43.2975 -2.19039e-17)
(-3.58174 -41.2483 -3.06858e-19)
(0.0429618 -38.8838 2.63285e-19)
(3.03651 -36.0235 -1.62445e-17)
(4.84438 -32.6757 1.52879e-17)
(5.5087 -29.0806 3.52041e-19)
(5.46152 -25.5988 1.98697e-19)
(5.15426 -22.5134 1.84662e-19)
(4.81956 -19.9255 -8.72799e-18)
(4.47694 -17.7434 8.8028e-18)
(4.04959 -15.8519 3.37722e-19)
(3.45923 -14.1143 -1.42673e-19)
(2.65746 -12.4519 1.4873e-19)