/*--------------------------------*- C++ -*----------------------------------*\
| =========                 |                                                 |
| \\      /  F ield         | OpenFOAM: The Open Source CFD Toolbox           |
|  \\    /   O peration     | Version:  2012                                  |
|   \\  /    A nd           | Website:  www.openfoam.com                      |
|    \\/     M anipulation  |                                                 |
\*---------------------------------------------------------------------------*/
FoamFile
{
    version     2.0;
    format      ascii;
    class       volScalarField;
    location    "0.84";
    object      p;
}
// * * * * * * * * * * * * * * * * * * * * * * * * * * * * * * * * * * * * * //

dimensions      [0 2 -2 0 0 0 0];


internalField   nonuniform List<scalar> 
42400
(
5303.86
5171.35
4989.16
4704.54
4267.52
3693.94
3041.9
2396.88
1830.19
1373.56
1021.86
751.483
538.728
366.817
225.978
110.537
16.5471
-59.0759
-118.729
-164.754
-199.405
-224.118
-238.992
-243.749
-239.388
-227.875
-212.383
-196.132
-181.21
-168.101
-156.476
-146.397
-138.647
-134.152
-133.315
-135.835
-140.922
-147.324
-154.286
-161.183
-167.366
-172.295
-175.566
-176.992
-176.547
-174.544
-171.551
-167.991
-164.249
-160.642
-157.386
-154.601
-152.327
-150.545
-149.18
-148.109
-147.128
-146.117
-144.885
-143.251
-141.061
-138.205
-134.632
-130.35
-125.438
-120.033
-114.319
-108.51
-102.825
-97.4596
-92.5631
-88.2152
-84.4214
-81.1236
-78.2246
-75.6145
-73.1917
-70.8721
-68.5975
-66.3098
-12256.4
-11828.7
-11308.4
-10742.5
-10103.1
-9411.07
-8647.51
-7811.69
-6935.27
-6075.16
-5288.78
-4607.43
-4031.91
-3546.19
-3130.85
-2769.99
-2451.09
-2164.37
-1903.34
-1664
-1444.58
-1245.32
-1067.19
-911.554
-779.884
-672.626
-587.849
-520.91
-465.458
-415.562
-367.535
-320.381
-275.013
-233.17
-196.618
-166.604
-143.522
-127.162
-116.731
-111.026
-108.832
-109.054
-110.803
-113.381
-116.346
-119.383
-122.296
-124.966
-127.215
-129.153
-130.886
-132.447
-133.878
-135.181
-136.331
-137.3
-138.013
-138.365
-138.231
-137.489
-136.036
-133.808
-130.788
-127.014
-122.584
-117.648
-112.397
-107.045
-101.81
-96.8893
-92.4285
-88.5055
-85.1204
-82.209
-79.6702
-77.3972
-75.2987
-73.3077
-71.3839
-69.4824
5043.6
4958.24
4822.24
4616.39
4324.32
4014.63
3720.28
3467.67
3271.54
3120.96
2993.73
2871.1
2744.41
2613.23
2479.17
2342.49
2202.55
2057.95
1907.45
1750.31
1587.42
1421.96
1258.48
1101.68
955.367
821.762
701.03
591.788
492.097
400.434
316.24
239.791
171.804
113.065
63.6973
23.277
-9.04114
-34.4944
-54.2171
-69.2343
-80.4882
-88.8127
-94.9146
-99.3604
-102.601
-104.986
-106.786
-108.222
-109.576
-110.838
-112.016
-113.18
-114.361
-115.568
-116.777
-117.914
-118.913
-119.691
-120.152
-120.206
-119.772
-118.796
-117.253
-115.153
-112.545
-109.509
-106.153
-102.606
-99.002
-95.4751
-92.1382
-89.0698
-86.3028
-83.8257
-81.5957
-79.5569
-77.6549
-75.8452
-74.0966
-72.3693
165.712
718.75
1448.67
2107.38
2675.38
3121.28
3470.67
3705.69
3817.68
3825.92
3762.73
3653.6
3511.81
3344.19
3156.11
2954.05
2744.04
2530.63
2316.83
2104.72
1895.35
1689.49
1488.39
1293.98
1108.59
934.215
772.038
622.525
486.056
363.854
257.941
170.19
101.348
50.4461
14.2715
-10.6005
-27.6823
-39.7643
-48.9114
-56.5194
-63.4127
-69.9898
-76.5157
-82.446
-87.5296
-91.6746
-94.8705
-97.1958
-98.7862
-99.7968
-100.389
-100.714
-100.905
-101.066
-101.271
-101.56
-101.944
-102.41
-102.921
-103.426
-103.863
-104.171
-104.288
-104.157
-103.731
-102.975
-101.866
-100.397
-98.5851
-96.4771
-94.1515
-91.7111
-89.2624
-86.8926
-84.654
-82.5631
-80.6093
-78.7676
-77.0082
-75.2991
1605.77
1266.16
849.135
388.463
-180.036
-784.746
-1366.84
-1837.83
-2114.29
-2193.93
-2168.34
-2141.39
-2169.5
-2253.08
-2354.46
-2430.72
-2456.35
-2423.68
-2336.21
-2203.34
-2037.09
-1850.06
-1654.09
-1459.13
-1272.88
-1101.18
-948.257
-816.524
-706.328
-615.833
-541.234
-477.797
-421.489
-370.128
-322.232
-277.875
-238.324
-204.707
-177.544
-156.602
-141.049
-129.943
-121.92
-116.218
-112.053
-108.8
-106.098
-103.747
-101.653
-99.7846
-98.143
-96.7471
-95.6222
-94.7921
-94.2731
-94.0706
-94.1766
-94.5682
-95.2087
-96.0474
-97.0215
-98.0575
-99.0726
-99.9771
-100.676
-101.076
-101.089
-100.647
-99.7133
-98.3007
-96.4749
-94.3495
-92.063
-89.7467
-87.4977
-85.368
-83.3689
-81.4847
-79.6869
-77.9635
-2675.55
-2613.03
-2492.52
-2290.11
-1995.77
-1660.53
-1316.15
-1003.35
-776.312
-676.134
-707.116
-825.186
-945.198
-1011.46
-1043.9
-1078.72
-1122.86
-1165.39
-1191.87
-1190.23
-1154.45
-1088.09
-1002.95
-912.718
-826.416
-747.608
-676.631
-612.845
-555.833
-505.055
-459.547
-418.071
-379.443
-342.7
-307.215
-273.452
-242.11
-213.969
-189.565
-169.153
-152.692
-139.624
-129.258
-121.045
-114.559
-109.43
-105.356
-102.115
-99.5447
-97.5329
-96.0022
-94.8965
-94.1724
-93.7931
-93.7248
-93.9337
-94.3844
-95.038
-95.8511
-96.774
-97.7499
-98.7148
-99.5992
-100.331
-100.838
-101.055
-100.927
-100.414
-99.5062
-98.2293
-96.6461
-94.8472
-92.9313
-90.9842
-89.0653
-87.2043
-85.4071
-83.6635
-81.9571
-80.3047
-4648.75
-4220.21
-3650.89
-3037.22
-2370.74
-1733.38
-1162.02
-707.336
-407.472
-237.708
-99.5671
89.5151
295.489
417.691
434.757
410.725
399.975
414.443
445.667
478.173
497.624
495.349
468.986
420.648
354.444
275.978
191.771
108.345
31.4064
-35.3678
-90.2603
-132.797
-163.345
-182.962
-193.23
-196.007
-193.151
-186.329
-176.963
-166.212
-154.998
-144.022
-133.799
-124.675
-116.844
-110.368
-105.21
-101.267
-98.4016
-96.4572
-95.2751
-94.7027
-94.6001
-94.8448
-95.334
-95.9843
-96.7297
-97.519
-98.3114
-99.0731
-99.7729
-100.38
-100.86
-101.179
-101.301
-101.194
-100.837
-100.221
-99.3558
-98.2641
-96.9832
-95.5559
-94.0264
-92.4334
-90.8067
-89.1653
-87.5184
-85.8669
-84.2111
-82.5852
8590.77
8380.64
8044.62
7526.04
6820.56
6037.55
5260.43
4540
3884.75
3267.85
2645.84
1988.25
1305.64
660.716
141.883
-193.444
-345.488
-351.811
-268.009
-150.991
-44.3529
27.9086
59.116
53.464
21.4434
-20.9003
-55.0536
-69.9521
-68.608
-60.4302
-54.6741
-54.4755
-59.0678
-66.7113
-75.7066
-84.6605
-92.5999
-98.3328
-101.399
-101.92
-100.458
-97.8242
-94.8656
-92.2709
-90.4612
-89.5778
-89.5484
-90.1877
-91.2856
-92.6567
-94.1577
-95.6855
-97.1694
-98.5629
-99.8381
-100.979
-101.978
-102.832
-103.535
-104.087
-104.483
-104.717
-104.786
-104.685
-104.41
-103.961
-103.335
-102.537
-101.572
-100.454
-99.198
-97.8265
-96.3617
-94.8252
-93.2357
-91.6075
-89.9503
-88.2692
-86.5716
-84.8932
-8028.69
-7769.7
-7440.03
-7026.62
-6486.71
-5818.18
-5030.69
-4167.79
-3288.9
-2445.55
-1670.51
-979.026
-377.018
131.088
539.868
844.838
1048.13
1159.36
1192.68
1163.11
1084.3
968.94
830.351
683.027
541.712
418.283
317.284
235.304
165.361
102.009
43.5065
-9.39221
-54.9836
-92.0969
-120.154
-139.007
-148.92
-151.273
-147.603
-139.756
-129.807
-119.771
-111.265
-105.225
-101.807
-100.549
-100.684
-101.498
-102.527
-103.565
-104.557
-105.509
-106.429
-107.312
-108.14
-108.891
-109.543
-110.072
-110.461
-110.695
-110.766
-110.668
-110.4
-109.963
-109.36
-108.597
-107.679
-106.615
-105.415
-104.091
-102.658
-101.131
-99.5272
-97.861
-96.1461
-94.3942
-92.6142
-90.8125
-88.9982
-87.2037
5010.68
4831.04
4577.72
4219.22
3729.12
3169.24
2595.34
2050.94
1560.46
1135.96
784.471
509.457
310.335
182.858
118.655
104.849
125.039
161.755
199.575
227.277
238.238
229.234
199.774
152.144
91.5058
25.3609
-38.1991
-92.3275
-133.26
-161.271
-180.148
-193.644
-203.768
-210.873
-214.835
-215.345
-212.035
-204.831
-193.456
-178.144
-159.983
-140.781
-122.62
-107.248
-95.6147
-87.885
-83.6053
-82.3696
-83.7312
-87.105
-91.7739
-96.9896
-102.126
-106.752
-110.636
-113.696
-115.955
-117.489
-118.398
-118.784
-118.744
-118.356
-117.689
-116.795
-115.716
-114.483
-113.12
-111.645
-110.073
-108.416
-106.686
-104.892
-103.045
-101.156
-99.2333
-97.2867
-95.3241
-93.3513
-91.378
-89.4309
5074.69
5052.16
4985.65
4847.24
4653.16
4433.91
4201.11
3955.85
3693.78
3412.59
3112.32
2795.62
2465.91
2126.53
1781.56
1436.68
1099.09
776.66
477.074
206.088
-33.801
-241.844
-417.645
-561.392
-673.565
-755.131
-807.111
-830.841
-828.979
-805.711
-765.912
-714.922
-657.967
-599.666
-543.837
-493.279
-449.567
-412.717
-382.054
-355.838
-332.309
-309.945
-288
-266.408
-245.574
-226.267
-209.253
-194.889
-183.342
-174.312
-167.228
-161.522
-156.748
-152.607
-148.911
-145.552
-142.461
-139.594
-136.916
-134.396
-132.007
-129.723
-127.519
-125.375
-123.272
-121.194
-119.127
-117.06
-114.987
-112.899
-110.795
-108.673
-106.534
-104.38
-102.216
-100.047
-97.8791
-95.7166
-93.5687
-91.4555
-10730.7
-10602.4
-10417.2
-10119.1
-9651.77
-9086.37
-8488.53
-7887.34
-7279.56
-6648.21
-5972.45
-5245.67
-4491.8
-3759.76
-3100.72
-2547.9
-2109.32
-1774.34
-1524.6
-1341.24
-1207.55
-1110.25
-1040.04
-990.665
-956.91
-933.273
-914.58
-896.335
-874.841
-847.797
-814.356
-774.837
-730.422
-682.746
-633.701
-585.068
-538.203
-493.998
-453.087
-415.659
-381.698
-351.074
-323.583
-299.012
-277.175
-257.873
-240.914
-226.112
-213.274
-202.191
-192.638
-184.386
-177.217
-170.935
-165.371
-160.389
-155.878
-151.753
-147.946
-144.406
-141.089
-137.96
-134.99
-132.152
-129.425
-126.787
-124.22
-121.709
-119.24
-116.801
-114.383
-111.977
-109.581
-107.191
-104.809
-102.438
-100.081
-97.7419
-95.4301
-93.1588
-4821.51
-4456.02
-3974.24
-3524.1
-3113.52
-2922.24
-2963.37
-3153.56
-3377.77
-3546.46
-3619.36
-3596.88
-3497.73
-3340.47
-3138.78
-2904.41
-2651.06
-2393.71
-2146.01
-1918.25
-1716.34
-1541.69
-1392.57
-1265.68
-1157.06
-1062.21
-976.496
-896.291
-820.111
-748.949
-684.966
-629.522
-582.298
-541.895
-506.652
-475.24
-446.828
-420.916
-397.022
-374.855
-354.172
-334.772
-316.512
-299.317
-283.155
-268.026
-253.946
-240.929
-228.972
-218.052
-208.122
-199.116
-190.96
-183.574
-176.881
-170.804
-165.273
-160.222
-155.59
-151.322
-147.366
-143.678
-140.215
-136.942
-133.827
-130.841
-127.961
-125.165
-122.437
-119.759
-117.121
-114.513
-111.928
-109.362
-106.812
-104.282
-101.773
-99.2894
-96.8402
-94.4333
7910.43
7839.73
7739.3
7563.08
7274.17
6874.52
6412.84
5962.95
5583.22
5280.81
5012.35
4715.37
4352.03
3922.7
3447.26
2946.84
2438.97
1938.47
1457.56
1006.61
594.46
228.738
-84.6659
-341.577
-539.468
-677.468
-756.825
-782.618
-765.754
-722.272
-668.231
-615.628
-570.246
-532.925
-501.906
-474.26
-447.936
-422.453
-397.737
-373.863
-350.982
-329.268
-308.886
-289.985
-272.671
-256.999
-242.962
-230.489
-219.463
-209.731
-201.123
-193.474
-186.63
-180.461
-174.857
-169.729
-165.005
-160.624
-156.536
-152.694
-149.061
-145.603
-142.291
-139.103
-136.016
-133.014
-130.083
-127.211
-124.388
-121.605
-118.855
-116.132
-113.432
-110.753
-108.092
-105.452
-102.836
-100.249
-97.697
-95.1868
-2923.17
-2874.22
-2799.83
-2687.06
-2534.71
-2354.85
-2157.25
-1947.55
-1727.01
-1492.74
-1242.79
-983.92
-731.54
-499.984
-293.99
-108.435
66.7242
239.311
411.586
576.526
720.393
828.153
889.283
902.142
873.271
812.476
729.322
632.816
531.278
431.114
335.546
244.389
156.663
74.148
1.51615
-57.0696
-100.316
-130.001
-150.395
-164.688
-174.339
-180.569
-184.122
-185.63
-185.594
-184.463
-182.64
-180.45
-178.121
-175.778
-173.46
-171.149
-168.81
-166.409
-163.929
-161.369
-158.74
-156.054
-153.326
-150.564
-147.778
-144.974
-142.157
-139.332
-136.503
-133.674
-130.849
-128.029
-125.218
-122.418
-119.63
-116.855
-114.094
-111.348
-108.618
-105.908
-103.222
-100.564
-97.9427
-95.3607
-1130.83
-1090.96
-1005.97
-870.26
-705.198
-546.336
-437.004
-420.431
-511.652
-672.862
-839.591
-980.058
-1105.03
-1224.23
-1324.18
-1379.13
-1368.12
-1286.75
-1149.21
-981.837
-809.593
-647.721
-502.078
-373.301
-259.955
-160.197
-72.9537
1.99047
64.3203
113.415
148.402
168.293
172.594
162.028
138.721
105.849
67.052
25.9223
-13.4972
-48.5585
-78.4038
-102.496
-120.872
-134.082
-143.021
-148.715
-152.165
-154.228
-155.523
-156.412
-157.034
-157.388
-157.421
-157.088
-156.383
-155.33
-153.97
-152.346
-150.499
-148.461
-146.261
-143.924
-141.471
-138.921
-136.293
-133.602
-130.863
-128.087
-125.288
-122.473
-119.653
-116.833
-114.02
-111.219
-108.434
-105.669
-102.931
-100.224
-97.5545
-94.9247
10178.6
10034.1
9855.56
9581.63
9124.04
8500.96
7682.51
6643.37
5476.47
4417.9
3640.78
3083.51
2599.19
2138.82
1722.04
1364.22
1071.22
845.893
682.364
568.792
491.225
436.973
396.212
362.294
331.053
299.851
267.56
233.761
198.73
162.553
125.203
86.8589
48.0556
9.69814
-27.0339
-60.8866
-90.7712
-115.92
-135.876
-150.529
-160.172
-165.45
-167.281
-166.744
-164.915
-162.683
-160.618
-158.956
-157.688
-156.717
-155.95
-155.322
-154.761
-154.182
-153.495
-152.635
-151.563
-150.266
-148.744
-147.007
-145.069
-142.948
-140.665
-138.241
-135.697
-133.054
-130.333
-127.551
-124.725
-121.869
-118.998
-116.122
-113.251
-110.393
-107.555
-104.742
-101.961
-99.2163
-96.5141
-93.8549
-4582.32
-3968.52
-3189
-2462.57
-1795.76
-1294.05
-934.452
-676.258
-468.377
-266.945
-67.1018
107.855
240.612
326.792
369.326
376.722
359.789
328.039
289.29
249.587
212.645
179.219
146.822
109.619
63.0229
5.97749
-58.9937
-126.734
-191.955
-250.131
-298.136
-334.32
-358.49
-371.565
-375.082
-370.894
-360.937
-346.988
-330.428
-312.149
-292.636
-272.236
-251.505
-231.411
-213.182
-197.878
-185.983
-177.3
-171.177
-166.848
-163.686
-161.263
-159.31
-157.641
-156.115
-154.62
-153.073
-151.413
-149.601
-147.62
-145.463
-143.139
-140.662
-138.052
-135.33
-132.518
-129.637
-126.706
-123.743
-120.761
-117.776
-114.797
-111.835
-108.898
-105.993
-103.125
-100.301
-97.5241
-94.7989
-92.1246
-9477.71
-9304.57
-9075.68
-8777.97
-8384.93
-7934.85
-7460.26
-6993.03
-6551.26
-6140.54
-5755.62
-5386.95
-5026.55
-4670.57
-4318.97
-3974.08
-3639.63
-3318.64
-3013.31
-2724.85
-2452.9
-2196.26
-1954.77
-1729.24
-1523.25
-1341.74
-1187.99
-1061.66
-958.691
-873.103
-798.672
-730.221
-664.473
-600.147
-537.474
-477.632
-422.229
-372.86
-330.764
-296.593
-270.294
-251.127
-237.799
-228.696
-222.151
-216.716
-211.364
-205.541
-199.368
-193.081
-187.055
-181.543
-176.601
-172.178
-168.164
-164.448
-160.939
-157.568
-154.286
-151.056
-147.85
-144.653
-141.453
-138.246
-135.031
-131.811
-128.592
-125.38
-122.183
-119.006
-115.858
-112.745
-109.673
-106.648
-103.674
-100.755
-97.8959
-95.0986
-92.3657
-89.6949
8070.68
7744.99
7313.27
6762.74
6025.37
5210.36
4377.15
3571.65
2819.94
2127.5
1488.55
894.841
343.265
-160.141
-603.128
-973.749
-1266.29
-1481.73
-1626.15
-1708.16
-1736.19
-1717.7
-1660.07
-1572.17
-1464.02
-1344.4
-1220.2
-1095.61
-972.947
-854.029
-740.682
-635.211
-540.352
-458.551
-391.122
-337.837
-297.159
-266.929
-244.984
-229.465
-218.826
-211.749
-207.067
-203.736
-200.861
-197.799
-194.246
-190.234
-186.01
-181.858
-177.977
-174.443
-171.23
-168.253
-165.409
-162.606
-159.769
-156.85
-153.822
-150.677
-147.421
-144.069
-140.643
-137.167
-133.663
-130.154
-126.657
-123.19
-119.763
-116.388
-113.072
-109.821
-106.64
-103.531
-100.498
-97.5424
-94.666
-91.8693
-89.1525
-86.5123
-10277.1
-9958.52
-9527.47
-8962.88
-8227.31
-7355.55
-6392.01
-5410.73
-4488.23
-3664.52
-2933.58
-2275.46
-1684.25
-1170.02
-740.364
-399.184
-145.683
29.2219
139.881
202.266
231.497
239.375
233.845
220.211
201.923
180.995
158.29
133.571
106.413
76.5227
44.5551
11.5678
-21.0502
-51.6273
-78.8079
-101.315
-118.125
-128.221
-131.557
-128.643
-120.225
-107.315
-91.1671
-73.2351
-54.8562
-37.0231
-20.7022
-6.70617
4.5244
12.9665
18.7312
22.1358
23.6488
23.8161
23.1898
22.2431
21.3241
20.6492
20.3187
20.3421
20.6656
21.1962
21.8235
22.4394
22.9543
23.3057
23.4626
23.4235
23.2089
22.851
22.3834
21.8366
21.2347
20.5947
19.9283
19.243
18.5436
17.8316
17.1096
16.3918
2469.34
2327.25
2139.37
1913.59
1627.75
1340.7
1078.79
848.839
646.971
469.899
317.964
192.524
94.2731
22.3163
-25.3138
-52.5996
-65.5866
-71.0268
-74.5493
-80.189
-90.7562
-107.688
-130.653
-157.608
-185.197
-208.679
-223.353
-226.093
-217.739
-202.539
-185.677
-169.984
-156.283
-144.287
-132.933
-121.282
-109.141
-96.7891
-84.7741
-73.7568
-64.3257
-56.815
-51.2831
-47.387
-44.5705
-42.4627
-40.5916
-38.4575
-35.8813
-32.9155
-29.6417
-26.3047
-23.1064
-20.0991
-17.2291
-14.3989
-11.5184
-8.53254
-5.42828
-2.23087
1.00058
4.17362
7.16264
9.81737
11.9902
13.5812
14.5765
15.0515
15.1344
14.9572
14.6276
14.2191
13.7764
13.3237
12.8721
12.4255
11.9834
11.5428
11.1011
10.6786
11858.4
11664.4
11335.3
10767.2
9916.37
8940.9
7975.81
7090.94
6285.14
5530.89
4810.2
4120.57
3467.09
2856.03
2292.65
1781.26
1325.07
925.182
580.541
288.151
41.6127
-167.132
-345.255
-496.071
-618.76
-709.785
-764.387
-780.949
-764.606
-725.906
-675.33
-620.243
-564.204
-508.735
-454.843
-403.569
-355.582
-311.234
-270.552
-233.711
-200.713
-171.757
-146.865
-125.843
-108.312
-93.8001
-81.8322
-71.9095
-63.556
-56.4331
-50.29
-44.9516
-40.2889
-36.1868
-32.5274
-29.1878
-26.0442
-22.9783
-19.8853
-16.6839
-13.3322
-9.8481
-6.32915
-2.95392
0.0514138
2.48596
4.25075
5.37569
5.98331
6.23483
6.26717
6.17893
6.03451
5.87076
5.70616
5.54788
5.39679
5.24991
5.10347
4.98398
-11878.8
-11506.6
-11084.2
-10642.7
-10075.2
-9362.94
-8504.5
-7559.81
-6593.58
-5641.53
-4717.36
-3832.54
-3005.25
-2257.91
-1610.46
-1075.15
-654.351
-341.044
-120.951
23.2145
108.3
149.949
163.067
160.161
150.045
137.741
124.185
107.148
83.8861
53.9479
19.8255
-14.6304
-46.0457
-72.3911
-92.8903
-107.569
-116.997
-121.917
-123.306
-121.931
-118.65
-114.008
-108.488
-102.511
-96.4012
-90.3972
-84.6577
-79.2736
-74.2796
-69.6656
-65.3886
-61.3847
-57.5796
-53.8988
-50.2755
-46.6486
-42.9947
-39.2809
-35.4909
-31.6161
-27.659
-23.6487
-19.6612
-15.8334
-12.3489
-9.38447
-7.04339
-5.32038
-4.11941
-3.30541
-2.75149
-2.36025
-2.06483
-1.82254
-1.60811
-1.40824
-1.21703
-1.03311
-0.858234
-0.661068
-9037.86
-8500.98
-7797.38
-7010.44
-6064.73
-5125.21
-4307.31
-3700.28
-3313.13
-3083.89
-2927.97
-2781.64
-2610.77
-2403.94
-2163.95
-1902.81
-1638.45
-1389.27
-1167.81
-977.959
-817.083
-680.611
-564.509
-465.68
-381.552
-310.405
-251.286
-203.681
-167.04
-140.484
-122.705
-112.04
-106.724
-105.059
-105.567
-107.045
-108.5
-109.39
-109.447
-108.564
-106.771
-104.177
-100.923
-97.164
-93.0558
-88.7409
-84.344
-79.9674
-75.6904
-71.569
-67.6358
-63.9016
-60.3576
-56.9784
-53.7264
-50.5556
-47.417
-44.2622
-41.0504
-37.7577
-34.3889
-30.9864
-27.6328
-24.4395
-21.5222
-18.9702
-16.8239
-15.0706
-13.6585
-12.5175
-11.578
-10.7806
-10.0797
-9.44265
-8.84794
-8.28288
-7.74044
-7.21698
-6.71403
-6.20108
12142.3
11857.2
11507.5
11054.5
10430.7
9690.54
8848.62
7913.98
6904.79
5855.18
4807.85
3797.14
2844.75
1963.78
1169.53
486.009
-56.2465
-434.74
-652.856
-744.375
-758.199
-736.365
-702.385
-663.666
-621.08
-575.852
-530.574
-487.423
-447.152
-409.411
-373.575
-339.175
-306.1
-274.632
-245.183
-218.183
-193.997
-172.785
-154.534
-139.048
-126.039
-115.177
-106.119
-98.5324
-92.1168
-86.6102
-81.7951
-77.4982
-73.5852
-69.9557
-66.5368
-63.2777
-60.1446
-57.1161
-54.1789
-51.3249
-48.5483
-45.8443
-43.2084
-40.6375
-38.1321
-35.6993
-33.3549
-31.1221
-29.027
-27.0918
-25.3285
-23.7364
-22.3031
-21.0087
-19.8293
-18.7409
-17.722
-16.7551
-15.8276
-14.9318
-14.063
-13.2181
-12.4009
-11.5885
-367.848
-67.2411
378.938
893.182
1420.54
1884.77
2277.37
2589.12
2804.17
2917.44
2940.23
2893.32
2797.54
2669.79
2518.04
2348.56
2165.43
1973.36
1777.53
1577.89
1366.73
1130.45
864.477
587.033
333.478
133.949
-2.46529
-85.4332
-131.377
-154.284
-163.257
-163.765
-159.357
-152.418
-144.419
-136.279
-128.323
-120.784
-113.759
-107.262
-101.274
-95.7637
-90.6916
-86.0158
-81.6965
-77.6998
-73.9998
-70.5775
-67.4178
-64.5049
-61.82
-59.3404
-57.0398
-54.8905
-52.8642
-50.934
-49.0756
-47.269
-45.4987
-43.7549
-42.0339
-40.3372
-38.6712
-37.045
-35.4681
-33.948
-32.4882
-31.0882
-29.7434
-28.4466
-27.189
-25.9617
-24.7573
-23.5701
-22.3976
-21.2399
-20.0983
-18.9737
-17.8754
-16.792
-76.8599
-446.792
-932.266
-1471.66
-2064.62
-2547.76
-2858.13
-3005.06
-3026.88
-2952.94
-2797.77
-2573.86
-2298.34
-1992.61
-1676.66
-1364.44
-1063.57
-778.241
-513.52
-274.343
-66.8392
102.671
229.982
314.959
361.613
376.055
364.962
335.972
295.94
250.571
203.928
159.023
117.895
81.7484
50.9467
25.4171
4.66008
-11.7992
-24.497
-34.0042
-40.8743
-45.6118
-48.6696
-50.4536
-51.3203
-51.5745
-51.4662
-51.184
-50.8422
-50.4864
-50.1234
-49.7444
-49.337
-48.8904
-48.3969
-47.8516
-47.2522
-46.5974
-45.8873
-45.1224
-44.3038
-43.4335
-42.5143
-41.5492
-40.5416
-39.4944
-38.4098
-37.2891
-36.1329
-34.9416
-33.7158
-32.4567
-31.1667
-29.85
-28.5125
-27.1623
-25.8074
-24.4543
-23.1176
-21.7976
-5884.96
-5474.78
-4927.48
-4345.41
-3728.73
-3205.57
-2832.02
-2620.63
-2543.35
-2545.14
-2559.21
-2532.03
-2450.64
-2337.35
-2209.75
-2061.16
-1880.49
-1671.24
-1447.24
-1223.34
-1012.35
-824.434
-665.349
-535.79
-433.138
-352.5
-288.292
-236.403
-193.24
-156.078
-123.013
-93.4178
-67.4752
-45.7284
-28.7075
-16.6652
-9.43247
-6.39296
-6.59527
-8.96172
-12.508
-16.4942
-20.4688
-24.2124
-27.6453
-30.7438
-33.4974
-35.8978
-37.9528
-39.6926
-41.156
-42.3803
-43.3987
-44.2388
-44.9224
-45.4654
-45.8783
-46.1679
-46.3382
-46.3914
-46.3287
-46.1512
-45.8597
-45.4552
-44.939
-44.3126
-43.5776
-42.7361
-41.7906
-40.7444
-39.6021
-38.37
-37.0561
-35.6705
-34.2257
-32.7358
-31.2155
-29.6763
-28.1359
-26.6061
7729.48
7629.22
7486.48
7263.49
6955.24
6562.51
6095.69
5577.43
5040.12
4518.68
4042.45
3624.68
3253.6
2903.07
2554.67
2208.83
1873.21
1549.53
1234.8
928.711
636.889
368.771
133.894
-60.6033
-210.705
-316.176
-379.556
-405.702
-401.477
-374.932
-334.046
-285.753
-235.327
-186.394
-141.348
-101.796
-68.7456
-42.6149
-23.2585
-10.1475
-2.5836
0.60032
0.5566
-1.685
-5.30603
-9.59536
-14.1254
-18.6543
-22.9987
-27.0415
-30.7195
-34.0064
-36.901
-39.4177
-41.579
-43.4112
-44.9419
-46.1982
-47.2052
-47.9852
-48.5572
-48.9365
-49.1352
-49.1622
-49.0243
-48.7264
-48.2723
-47.6653
-46.9085
-46.0056
-44.9619
-43.7842
-42.4822
-41.0683
-39.558
-37.9696
-36.3223
-34.6305
-32.9113
-31.1913
835.962
921.727
1058.14
1218.23
1415.94
1558.97
1633.7
1667.74
1695.43
1734.83
1786.46
1838.95
1872.26
1866.19
1813.65
1724.91
1618.99
1511.75
1409.98
1314.23
1223.08
1135.77
1052.51
973.694
899.703
830.36
764.625
701.065
638.004
574.128
508.659
441.821
375.062
310.711
251.147
198.062
152.256
113.877
82.402
56.984
36.7557
20.693
7.83356
-2.4795
-10.7483
-17.4838
-23.0215
-27.5846
-31.3802
-34.5776
-37.3098
-39.6803
-41.7654
-43.6196
-45.2799
-46.7702
-48.1053
-49.2924
-50.3313
-51.2176
-51.9449
-52.5075
-52.901
-53.1227
-53.1711
-53.0462
-52.7491
-52.2809
-51.6431
-50.8378
-49.8677
-48.7378
-47.4541
-46.029
-44.4801
-42.8257
-41.0875
-39.2826
-37.4285
-35.5712
-10130.1
-9577.36
-8907.46
-8280.69
-7649.16
-7153.02
-6785.76
-6481.91
-6181.57
-5856.99
-5493.51
-5073.65
-4579.65
-4004.22
-3361.21
-2687.18
-2030.48
-1434.9
-927.221
-517.24
-201.955
28.4412
186.788
286.8
341.443
362.757
361.481
346.134
323.138
296.823
269.631
242.647
216.007
189.422
162.769
136.316
110.65
86.3965
64.2071
44.4974
27.461
13.032
1.11754
-8.64033
-16.6232
-23.1651
-28.5483
-32.9966
-36.693
-39.7926
-42.4289
-44.7191
-46.7641
-48.6422
-50.3899
-51.9998
-53.4415
-54.6801
-55.6954
-56.4802
-57.0542
-57.446
-57.6791
-57.7662
-57.7121
-57.5168
-57.1776
-56.6903
-56.0502
-55.2526
-54.2939
-53.1729
-51.8919
-50.4582
-48.8849
-47.1899
-45.3952
-43.518
-41.5757
-39.626
1900.39
1791.19
1596.78
1399.94
1304.54
1381.08
1561.14
1754.97
1919.88
2044.66
2123.94
2150.66
2118.42
2025.91
1878.61
1687.13
1464.66
1226.26
984.885
752.043
536.696
344.911
180.18
43.6195
-65.7427
-150.503
-213.775
-257.907
-285.102
-298.024
-299.249
-290.298
-272.12
-246.381
-215.874
-184.175
-154.221
-128.222
-107.125
-91.1278
-79.9031
-72.6816
-68.5736
-66.6987
-66.2926
-66.7159
-67.4558
-68.1375
-68.5172
-68.4765
-67.9541
-66.9073
-65.3999
-63.717
-62.1455
-60.7233
-59.609
-58.9332
-58.8424
-59.0221
-59.3771
-59.8276
-60.2765
-60.6397
-60.8553
-60.8877
-60.7226
-60.358
-59.798
-59.0485
-58.1155
-57.0053
-55.7251
-54.2849
-52.6984
-50.9838
-49.163
-47.2548
-45.2741
-43.2734
9983.89
9687.24
9316.84
8867.36
8305.21
7708.4
7081.98
6397.49
5621.37
4740.03
3769.63
2758.44
1778.58
906.129
197.839
-323.794
-668.895
-867.858
-957.29
-970.668
-936.021
-874.993
-802.949
-730.018
-663.008
-605.641
-555.151
-502.943
-444.603
-386.606
-338.6
-303.056
-275.944
-252.764
-231.215
-210.484
-191.015
-173.297
-157.791
-144.332
-132.751
-122.907
-114.709
-108.049
-102.759
-98.6205
-95.383
-92.7943
-90.6305
-88.7134
-86.8671
-84.9292
-82.8603
-80.5671
-78.0157
-75.5077
-73.2082
-71.2939
-69.7119
-68.6344
-67.929
-67.4493
-67.0859
-66.7492
-66.3768
-65.9269
-65.372
-64.6954
-63.8871
-62.9417
-61.8559
-60.6285
-59.261
-57.7577
-56.1273
-54.3831
-52.5419
-50.6209
-48.6327
-46.6145
-7864.35
-7699.79
-7476.56
-7164.79
-6752.61
-6230.52
-5600.08
-4877.37
-4090.45
-3271.36
-2454.88
-1682.89
-1004.04
-460.805
-74.1683
159.946
262.787
267.321
207.595
110.122
-5.82716
-126.509
-240.661
-334.888
-398.88
-440.29
-476.553
-509.282
-527.345
-527.507
-512.77
-486.193
-450.811
-410.393
-368.492
-327.977
-290.685
-257.444
-228.382
-203.45
-182.214
-164.162
-148.868
-135.999
-125.244
-116.316
-108.949
-102.896
-97.9196
-93.799
-90.3337
-87.3587
-84.7524
-82.4534
-80.4283
-78.7198
-77.3326
-76.19
-75.2338
-74.4693
-73.8252
-73.2629
-72.7305
-72.1798
-71.5717
-70.8785
-70.0822
-69.1725
-68.1445
-66.9965
-65.7289
-64.3435
-62.8434
-61.2334
-59.5208
-57.7159
-55.8316
-53.8814
-51.8764
-49.8429
3838.37
3800.17
3672.12
3407.93
3033.1
2629.33
2272.97
2015.28
1879.24
1864.4
1947.08
2080.17
2204.54
2264.84
2220.67
2058.89
1801.29
1489.22
1160.51
838.545
535.49
257.923
8.13654
-197.511
-313.609
-324.496
-288.638
-265.533
-258.727
-252.342
-243.353
-234.048
-226.037
-218.882
-211.848
-204.09
-195.01
-184.475
-172.738
-160.291
-147.732
-135.649
-124.544
-114.791
-106.62
-100.117
-95.234
-91.8084
-89.599
-88.3229
-87.6941
-87.4547
-87.3951
-87.3599
-87.2498
-87.0109
-86.6207
-86.0756
-85.3863
-84.5704
-83.6453
-82.627
-81.527
-80.3531
-79.11
-77.8006
-76.4265
-74.9886
-73.4874
-71.9225
-70.2937
-68.6003
-66.8424
-65.0212
-63.1396
-61.2023
-59.2163
-57.1893
-55.1289
-53.0596
342.031
685.362
1179.03
1714.25
2271.35
2729.08
3072.58
3314.94
3468.17
3542.72
3557.29
3536.23
3496.02
3443.23
3382.16
3311.2
3221.57
3100.03
2941.04
2748.16
2528.08
2286.3
2025.41
1744.5
1443.93
1130.84
821.048
534.222
286.942
86.622
-67.6066
-179.986
-255.249
-298.575
-315.822
-312.804
-295.367
-268.959
-238.317
-207.239
-178.431
-153.52
-133.234
-117.648
-106.417
-98.9389
-94.4812
-92.2826
-91.6348
-91.9464
-92.7666
-93.7752
-94.7567
-95.5724
-96.1387
-96.4119
-96.3772
-96.0403
-95.4205
-94.5446
-93.4426
-92.1438
-90.6758
-89.0632
-87.3287
-85.493
-83.5757
-81.5949
-79.5666
-77.5043
-75.4182
-73.3149
-71.1986
-69.0713
-66.934
-64.7876
-62.6336
-60.4736
-58.312
-56.1708
-1894.03
-2228.47
-2602.08
-2922.86
-3191.81
-3366.99
-3468.38
-3531.76
-3590.42
-3662.43
-3751.12
-3852.67
-3963.11
-4069.83
-4139.71
-4128.05
-4009.63
-3790
-3493.7
-3149.86
-2785.85
-2425.17
-2086.06
-1779.8
-1512.91
-1287.61
-1102.5
-952.882
-831.124
-728.438
-638.318
-558.353
-486.428
-420.642
-360.723
-307.217
-260.549
-220.658
-187.268
-160.143
-138.959
-123.161
-111.995
-104.644
-100.341
-98.4017
-98.222
-99.2523
-101
-103.05
-105.084
-106.89
-108.345
-109.398
-110.039
-110.276
-110.127
-109.613
-108.754
-107.57
-106.078
-104.301
-102.26
-99.986
-97.5119
-94.8786
-92.1315
-89.3177
-86.4828
-83.6668
-80.9012
-78.2065
-75.5921
-73.0579
-70.5965
-68.1966
-65.8459
-63.5324
-61.2502
-59.0064
-12418.2
-11884
-11185.7
-10435.9
-9629.33
-8833.13
-8024.83
-7194.77
-6365.04
-5571.88
-4845.07
-4203.31
-3654.38
-3194.93
-2813.44
-2497.17
-2235.25
-2017.66
-1832.65
-1667.24
-1511.35
-1360.94
-1218.42
-1088.93
-977.816
-886.855
-814.196
-755.489
-707.786
-669.606
-639.56
-615.379
-593.542
-571.151
-546.434
-518.517
-487.4
-453.922
-419.33
-384.882
-351.611
-320.227
-291.153
-264.621
-240.753
-219.608
-201.21
-185.526
-172.424
-161.675
-152.989
-146.054
-140.568
-136.264
-132.903
-130.214
-127.982
-126.009
-124.123
-122.175
-120.046
-117.651
-114.941
-111.902
-108.555
-104.954
-101.173
-97.3057
-93.4459
-89.6814
-86.0812
-82.6889
-79.5203
-76.5661
-73.7987
-71.1806
-68.6721
-66.2373
-63.8516
-61.5107
11394.4
11341.7
11287.6
11155.2
10893.3
10457.3
9857.48
9160.42
8443.35
7743.72
7058.83
6376.18
5693.34
5019.64
4368.47
3750.85
3174.47
2643.52
2160.48
1726.71
1342.18
1004.75
710.156
452.83
227.624
29.9366
-141.215
-285.333
-402.605
-494.706
-563.735
-611.546
-639.655
-649.641
-643.416
-623.273
-592.03
-552.979
-509.172
-463.636
-418.945
-376.946
-338.72
-304.749
-275.111
-249.576
-227.71
-209.237
-193.861
-181.248
-171.061
-162.95
-156.577
-151.609
-147.723
-144.686
-142.277
-140.182
-138.171
-136.041
-133.622
-130.785
-127.456
-123.614
-119.297
-114.593
-109.633
-104.572
-99.5743
-94.7882
-90.3285
-86.2623
-82.6041
-79.3223
-76.3536
-73.6198
-71.0418
-68.5468
-66.0766
-63.5712
15.0634
13.0951
11.0888
9.0876
7.1026
5.14123
3.19513
1.24707
-0.723103
-2.73767
-4.81311
-6.95879
-9.17387
-11.4433
-13.7291
-15.9654
-18.0679
-19.926
-21.4085
-22.4261
-22.9182
-22.8639
-22.2961
-21.2871
-19.9268
-18.3004
-16.4789
-14.5232
-12.4948
-10.4611
-8.49045
-6.64191
-4.95717
-3.45787
-2.14757
-1.01621
-0.0451823
0.787881
1.50514
2.12577
2.66449
3.13153
3.53339
3.87422
4.15718
4.38572
4.56436
4.69902
4.79681
4.86555
4.91309
4.94668
4.97247
4.99517
5.01796
5.04283
5.07062
5.10133
5.13424
5.16827
5.2021
5.23433
5.26361
5.28877
5.30888
5.32325
5.33146
5.33329
5.32872
5.31791
5.30115
5.27878
5.2512
5.21884
5.18215
5.14158
5.09758
5.05063
5.00122
4.94985
4.8971
4.84358
4.78992
4.73684
4.68511
4.63551
4.58882
4.54574
4.50686
4.47257
4.443
4.418
4.39713
4.37967
4.36468
4.35106
4.33765
4.32323
4.30666
4.28682
4.26272
4.23341
4.19807
4.15589
4.10615
4.0481
3.98103
3.90415
3.8166
3.71735
3.60519
3.47864
3.33583
3.17452
2.99203
2.78542
2.55157
2.28739
1.98983
1.65585
1.28223
0.865437
0.401534
-0.113754
-0.684835
-1.31588
-2.01034
-2.77032
-3.59591
-4.48454
-5.43034
-6.42376
-7.45136
-8.49604
-9.53751
-10.5531
-11.5187
-12.4101
-13.2037
-13.8782
-14.415
-14.7999
-15.0227
-15.0786
-14.9684
-14.6976
-14.2768
-13.7205
-13.0464
-12.2746
-11.426
-10.5219
-9.58285
-8.62789
-7.67424
-6.73689
-5.82853
-4.95955
-4.13812
-3.37028
-2.66001