/*--------------------------------*- C++ -*----------------------------------*\
| =========                 |                                                 |
| \\      /  F ield         | OpenFOAM: The Open Source CFD Toolbox           |
|  \\    /   O peration     | Version:  2012                                  |
|   \\  /    A nd           | Website:  www.openfoam.com                      |
|    \\/     M anipulation  |                                                 |
\*---------------------------------------------------------------------------*/
FoamFile
{
    version     2.0;
    format      ascii;
    class       surfaceScalarField;
    location    "0.84";
    object      phi;
}
// * * * * * * * * * * * * * * * * * * * * * * * * * * * * * * * * * * * * * //

dimensions      [0 3 -1 0 0 0 0];
oriented        oriented;


internalField   nonuniform List<scalar> 
84340
(
-0.0002801
0.000524095
-0.000243995
-0.000641655
0.000953969
-0.000592415
-0.000704454
0.00101273
-0.000949931
-0.000371303
0.0009381
-0.00127125
0.000247176
0.000780974
-0.00139945
0.000969328
0.000501853
-0.001224
0.00161207
0.000125805
-0.000768542
0.00206554
-0.000247541
-0.000205935
0.00229709
-0.000500079
0.000268533
0.00231947
-0.000568879
0.000546492
0.00217225
-0.00048172
0.000628941
0.00190207
-0.000309555
0.000579742
0.00156566
-0.000128965
0.00046537
0.00121093
1.41833e-05
0.000340553
0.000870898
0.000104846
0.000235181
0.000565802
0.000146089
0.000159007
0.000307971
0.000148251
0.000109579
0.000106178
0.000122757
7.90364e-05
-2.87558e-05
7.63133e-05
5.86204e-05
-8.62641e-05
1.61344e-05
4.13738e-05
-5.66393e-05
-5.31892e-05
2.35645e-05
6.38951e-05
-0.000130856
1.03215e-05
0.000267874
-0.000216489
1.25103e-05
0.000539166
-0.000308048
3.67558e-05
0.000847157
-0.000400603
9.26122e-05
0.00116553
-0.00048549
0.000167113
0.0014624
-0.000552835
0.000255973
0.00170859
-0.000591696
0.000345501
0.00188251
-0.000595025
0.00042111
0.00197286
-0.000562403
0.000472047
0.00197998
-0.000500217
0.000493095
0.00191496
-0.000419857
0.000484884
0.00179577
-0.000334056
0.000453242
0.00164289
-0.000254096
0.000406982
0.00147466
-0.000188459
0.000356688
0.00130465
-0.000142428
0.000312438
0.00113813
-0.000113045
0.00027956
0.000986061
-9.91039e-05
0.000251176
0.000852775
-9.70386e-05
0.000230325
0.00073882
-9.94905e-05
0.000213445
0.000644504
-0.000102095
0.000196411
0.000569875
-0.000100783
0.000175412
0.000515775
-9.37704e-05
0.000147871
0.000481889
-7.92118e-05
0.000113098
0.000469725
-5.89208e-05
7.10846e-05
0.000479237
-3.4148e-05
2.46358e-05
0.000504057
-7.45149e-06
-1.73691e-05
0.000539016
1.86501e-05
-5.36089e-05
0.000580813
4.00144e-05
-8.18113e-05
0.000625835
5.53243e-05
-0.000100346
0.000670302
6.39075e-05
-0.000108375
0.000713092
6.42336e-05
-0.000107024
0.000753248
5.57062e-05
-9.58624e-05
0.000792799
3.58049e-05
-7.53562e-05
0.000832102
5.49768e-06
-4.48009e-05
0.000871576
-3.59699e-05
-3.50355e-06
0.000914061
-8.91086e-05
4.66233e-05
0.000959336
-0.000153935
0.000108659
0.00100776
-0.000229706
0.000181287
0.00105933
-0.000315131
0.000263558
0.00111367
-0.000408313
0.000353972
0.00117
-0.000506782
0.000450455
0.00122717
-0.000607572
0.0005504
0.00128377
-0.000707351
0.000650756
0.00133821
-0.000802585
0.000748137
0.00138894
-0.000889706
0.000838983
0.00143447
-0.000965287
0.00091975
0.00147354
-0.00102623
0.000987162
0.00150497
-0.00107
0.00103857
0.00152763
-0.00109507
0.00107241
0.00154039
-0.00110153
0.00108878
0.0015422
-0.00109164
0.00108983
0.00153245
-0.0010701
0.00107985
0.00151132
-0.00104354
0.00106467
0.00148005
-0.0010193
0.00105056
0.00144094
-0.00100372
0.00104283
0.00139689
-0.00100064
0.00104469
0.0013508
-0.00101065
0.00105674
0.00130484
-0.00103134
0.00107731
-0.00105822
0.00110423
0.00125882
0.000832575
-0.00030848
0.00223942
-0.000452878
0.00373032
-0.000478161
0.00517866
-0.000510241
0.00650475
-0.000545117
0.00757403
-0.000567431
0.00825826
-0.000558427
0.00849319
-0.000482472
0.00831146
-0.00031835
0.00782113
-7.85425e-05
0.00715148
0.000187928
0.00642
0.000421921
0.0057039
0.000587137
0.00503189
0.0006862
0.00441445
0.000722282
0.00385124
0.000709302
0.00333987
0.000659621
0.00287867
0.000583951
0.00245826
0.00049673
0.00207045
0.000403938
0.00171026
0.000307
0.00136737
0.000212035
0.00102854
0.000122341
0.000681264
3.92327e-05
0.000317306
-3.6645e-05
-6.28253e-05
-0.000105359
-0.000447357
-0.000168303
-0.000812898
-0.000226155
-0.00112881
-0.000279111
-0.00136582
-0.000325391
-0.00150486
-0.00036118
-0.00154119
-0.000383526
-0.00148279
-0.000392456
-0.0013464
-0.000390484
-0.00115405
-0.000380808
-0.000930158
-0.000366325
-0.000694031
-0.000349173
-0.000462333
-0.000330802
-0.00024748
-0.000311891
-5.45078e-05
-0.000292463
0.000115479
-0.000272081
0.000264749
-0.000250053
0.000396758
-0.00022578
0.00051657
-0.000199024
0.000627812
-0.000170163
0.000733755
-0.000140091
0.000836269
-0.000109966
0.000935039
-8.012e-05
0.00103283
-5.77773e-05
0.00112875
-4.05967e-05
0.00122221
-2.95494e-05
0.00131343
-2.69892e-05
0.00140309
-3.39512e-05
0.00149082
-5.19239e-05
0.00157803
-8.1716e-05
0.00166483
-0.00012277
0.00175106
-0.000175332
0.00183595
-0.00023883
0.00191839
-0.000312143
0.00199683
-0.000393574
0.00206939
-0.000480873
0.0021339
-0.000571293
0.00218803
-0.000661698
0.0022294
-0.000748722
0.00225578
-0.000828964
0.00226528
-0.000899208
0.0022566
-0.000956611
0.00222925
-0.000998875
0.00218371
-0.00102445
0.00212151
-0.00103288
0.0020453
-0.00102532
0.00195868
-0.00100503
0.00186597
-0.000977385
0.00177169
-0.000949263
0.00168007
-0.000927674
0.00159454
-0.000918192
0.00151761
-0.000923708
0.00145093
-0.000943972
0.00139562
-0.000976025
-0.00101479
0.00135219
-0.000124933
-0.000183547
3.69937e-05
-0.000614805
0.000366746
-0.000807914
0.000536706
-0.000680201
0.000457825
-0.000466236
0.000206521
-0.000316126
-0.00013085
-0.000221056
-0.00048382
-0.000129502
-0.000773324
-2.8847e-05
-0.000934286
8.24197e-05
-0.000940548
0.00019419
-0.00080878
0.000290153
-0.000579684
0.000358041
-0.000287706
0.000394222
4.4045e-05
0.000390531
0.000393641
0.000359705
0.000746333
0.00030693
0.00109059
0.000239697
0.00142122
0.000166093
0.00173164
9.35265e-05
0.00201063
2.80045e-05
0.00224823
-2.55673e-05
0.00243398
-6.34069e-05
0.00255713
-8.3919e-05
0.00260978
-8.92925e-05
0.00259105
-8.66262e-05
0.0025087
-8.59539e-05
0.00237893
-9.63875e-05
0.00222327
-0.000123455
0.00206325
-0.000165369
0.00191463
-0.000212556
0.00178421
-0.000253108
0.00166979
-0.000278036
0.00156912
-0.000289811
0.00147697
-0.000288664
0.00138924
-0.000278596
0.00130649
-0.000266419
0.00122811
-0.000252421
0.00115665
-0.000240428
0.00109701
-0.000232824
0.00105448
-0.000229556
0.00103297
-0.000228547
0.00103396
-0.000226763
0.00105702
-0.000222084
0.00110037
-0.000213511
0.00116155
-0.000201276
0.0012382
-0.000186611
0.00132941
-0.000171338
0.00142923
-0.000157594
0.00153595
-0.000147311
0.0016487
-0.000142299
0.00176589
-0.000144182
0.00188617
-0.000154236
0.00200768
-0.000173434
0.0021283
-0.000202337
0.00224659
-0.000241059
0.00236056
-0.000289296
0.00246799
-0.00034626
0.00256648
-0.000410639
0.00265351
-0.0004806
0.00272646
-0.000553825
0.00278274
-0.000627577
0.00281987
-0.000698821
0.00283554
-0.000764397
0.00282782
-0.000821241
0.00279523
-0.000866617
0.00273697
-0.000898351
0.00265316
-0.000915072
0.00254525
-0.000916538
0.00241645
-0.000904074
0.00227212
-0.000880995
0.00211973
-0.000852633
0.00196798
-0.000825637
0.00182533
-0.000806609
0.00169828
-0.000800629
0.00159037
-0.000810279
0.00150209
-0.000835425
0.00143177
-0.000873654
0.00137678
-0.000921037
-0.000972057
0.00133404
0.000116195
-0.000299741
0.000246985
-0.000745596
0.000388405
-0.000949333
0.000601525
-0.000893322
0.000883054
-0.000747765
0.00124483
-0.000677906
0.00169615
-0.000672376
0.00220347
-0.000636815
0.00266409
-0.000489474
0.00299425
-0.000247737
0.00322758
-3.91358e-05
0.00344589
7.1844e-05
0.00366779
0.000136138
0.00385971
0.000202302
0.00398528
0.000264961
0.00403768
0.000307302
0.00402291
0.000321707
0.00395452
0.000308087
0.00385208
0.000268527
0.00373919
0.000206423
0.00363921
0.000127981
0.00357043
4.32102e-05
0.00354318
-3.61544e-05
0.00356053
-0.00010127
0.00362076
-0.00014952
0.00371798
-0.000183846
0.00384022
-0.000208193
0.0039676
-0.000223766
0.00407328
-0.000229136
0.00412929
-0.000221377
0.00411459
-0.000197857
0.0040191
-0.000157616
0.00384458
-0.000103522
0.0036085
-5.37338e-05
0.00331824
1.5982e-06
0.00299193
4.77131e-05
0.00264781
7.77025e-05
0.00230695
8.84435e-05
0.00198788
7.86409e-05
0.00170437
5.06852e-05
0.00146572
9.09364e-06
0.00127955
-4.23789e-05
0.00113769
-8.4904e-05
0.00104139
-0.000125782
0.000987709
-0.000159829
0.000972057
-0.000185624
0.000989567
-0.000204121
0.00103551
-0.000217279
0.00110531
-0.000227397
0.00119477
-0.000236772
0.00129992
-0.00024745
0.00141691
-0.000261165
0.00154198
-0.000279312
0.00167146
-0.000302912
0.00180173
-0.000332602
0.00192926
-0.000368594
0.00205062
-0.000410656
0.00216245
-0.00045809
0.00226154
-0.000509723
0.00234485
-0.000563915
0.00240963
-0.000618604
0.00245346
-0.000671411
0.00247442
-0.000719773
0.00247115
-0.000761132
0.00244304
-0.000793133
0.00239026
-0.00081383
0.00231385
-0.000821939
0.00221596
-0.000817188
0.00210023
-0.000800807
0.00197213
-0.000775975
0.00183901
-0.000747878
0.00170938
-0.000723002
0.00159143
-0.000707681
0.00149133
-0.00070651
0.00141209
-0.000721395
0.00135341
-0.000751591
0.00131243
-0.000794452
0.00128512
-0.00084634
0.00126738
-0.000903293
-0.000960559
0.00125588
-0.00044084
0.000141099
-0.00140497
0.000218532
-0.00247031
0.000116012
-0.00330783
-5.58091e-05
-0.00382316
-0.000232429
-0.00406105
-0.000440016
-0.00405398
-0.00067945
-0.00379737
-0.00089342
-0.00328544
-0.00100141
-0.00253005
-0.00100313
-0.00157466
-0.000994529
-0.000529639
-0.000973175
0.000437021
-0.000830522
0.00121804
-0.000578719
0.001777
-0.000293997
0.0021135
-2.91943e-05
0.00224032
0.00019488
0.00217385
0.000374561
0.00193713
0.000505247
0.00156949
0.000574061
0.00112968
0.000567789
0.000684583
0.000488309
0.00028852
0.000359909
-3.18492e-05
0.000219099
-0.000277193
9.58232e-05
-0.000463549
2.51015e-06
-0.000608636
-6.31064e-05
-0.0007245
-0.000107901
-0.000816999
-0.000136637
-0.000887699
-0.000150676
-0.000936113
-0.000149444
-0.000960331
-0.000133398
-0.000957413
-0.000106441
-0.000935604
-7.55426e-05
-0.000894448
-3.95581e-05
-0.00083096
-1.57757e-05
-0.000747589
-5.66892e-06
-0.000648414
-1.07314e-05
-0.000540243
-2.95295e-05
-0.000430944
-5.86135e-05
-0.000323415
-9.84358e-05
-0.000226145
-0.000139649
-0.00013561
-0.000175439
-5.42204e-05
-0.000207171
2.03473e-05
-0.000234396
9.20094e-05
-0.000257285
0.000164534
-0.000276646
0.000240869
-0.000293613
0.000322884
-0.000309412
0.000411327
-0.000325216
0.000505947
-0.00034207
0.000605629
-0.000360848
0.000708564
-0.000382246
0.000812408
-0.000406756
0.000914441
-0.000434635
0.00101172
-0.000465874
0.00110123
-0.000500165
0.00118003
-0.000536888
0.00124541
-0.000575106
0.00129508
-0.000613585
0.00132732
-0.000650842
0.00134113
-0.000685227
0.00133639
-0.000715025
0.00131385
-0.000738596
0.00127526
-0.000754546
0.00122338
-0.00076195
0.0011621
-0.000760657
0.00109652
-0.000751612
0.00103282
-0.000737098
0.000977531
-0.00072069
0.000936456
-0.000706803
0.000913291
-0.000699836
0.000908805
-0.000703194
0.000920879
-0.000718584
0.000945382
-0.000745898
0.000977387
-0.000783597
0.00101224
-0.000829301
0.00104619
-0.000880292
0.00107669
-0.000933798
-0.000986802
0.00110294
-0.000162654
0.000303753
-0.000684086
0.000739964
-0.00152577
0.000957698
-0.0025151
0.000933515
-0.00354353
0.000796001
-0.00462928
0.000645736
-0.00579419
0.000485461
-0.0069859
0.000298295
-0.00806704
7.9728e-05
-0.00892841
-0.000141756
-0.00960855
-0.000314391
-0.0101724
-0.000409286
-0.010515
-0.00048793
-0.01048
-0.000613728
-0.0100889
-0.000685096
-0.00947433
-0.000643781
-0.00874996
-0.000529491
-0.00798572
-0.000389676
-0.00722879
-0.00025169
-0.0065171
-0.000137624
-0.00588
-6.93078e-05
-0.00533427
-5.74288e-05
-0.0048834
-9.09594e-05
-0.00452132
-0.000142982
-0.00422939
-0.000196107
-0.00399095
-0.000235932
-0.00379614
-0.000257915
-0.00363416
-0.00026988
-0.00349514
-0.000275659
-0.00336879
-0.000277018
-0.00324471
-0.000273525
-0.00311336
-0.000264746
-0.00296764
-0.000252169
-0.00280427
-0.000238908
-0.00261565
-0.000228177
-0.00240865
-0.000222777
-0.00219032
-0.000223999
-0.00196968
-0.000231372
-0.00175586
-0.000243347
-0.0015564
-0.000258075
-0.00138059
-0.000274248
-0.00122939
-0.000290845
-0.00109746
-0.00030737
-0.00098082
-0.000323812
-0.000875053
-0.000340164
-0.000775921
-0.000356418
-0.000679996
-0.000372571
-0.00058494
-0.000388668
-0.000489517
-0.000404835
-0.000393452
-0.000421281
-0.000297234
-0.000438288
-0.000201907
-0.000456175
-0.000108908
-0.000475245
-1.99258e-05
-0.000495739
6.32178e-05
-0.000517779
0.000138675
-0.000541331
0.000204686
-0.000566177
0.000259692
-0.000591894
0.000302447
-0.000617861
0.000332141
-0.000643279
0.000348539
-0.00066724
0.000352127
-0.000688815
0.000344281
-0.000707179
0.000327445
-0.00072176
0.000305204
-0.000732305
0.000282215
-0.00073896
0.000263873
-0.000742314
0.000255696
-0.000743435
0.000262443
-0.000743845
0.000287148
-0.000745395
0.000330409
-0.000750064
0.000390213
-0.00075964
0.000462434
-0.000775415
0.000541847
-0.000797996
0.000623205
-0.000827256
0.000702041
-0.000862432
0.00077503
-0.00090229
0.000840053
-0.000945315
0.000896155
-0.0009899
-0.00103476
0.000944117
0.000409207
-0.000105453
0.00110259
4.65837e-05
0.00181149
0.000248797
0.00247412
0.000270882
0.00306328
0.000206845
0.00353772
0.000171291
0.00383464
0.000188539
0.00388763
0.00024531
0.00365895
0.00030841
0.00312723
0.000389955
0.00229769
0.000515152
0.00124799
0.000640414
0.000135198
0.000624864
-0.000903536
0.000425005
-0.00178054
0.000191912
-0.00246942
4.5097e-05
-0.00294261
-5.63055e-05
-0.00319144
-0.000140845
-0.00321822
-0.000224904
-0.00304421
-0.000311633
-0.00271682
-0.000396707
-0.00230284
-0.000471406
-0.00186986
-0.000523935
-0.00147255
-0.000540291
-0.00115995
-0.000508713
-0.000965908
-0.000429971
-0.000901217
-0.000322607
-0.000953955
-0.000217142
-0.00108875
-0.00014087
-0.00126493
-0.000100834
-0.00145062
-8.78377e-05
-0.00162455
-9.08162e-05
-0.00177304
-0.000103674
-0.00188742
-0.000124534
-0.0019627
-0.000152895
-0.00199767
-0.000187801
-0.00199416
-0.000227511
-0.00195554
-0.000269992
-0.00188635
-0.000312536
-0.00179183
-0.000352601
-0.00167787
-0.000388206
-0.00155058
-0.000418128
-0.00141596
-0.000441994
-0.00127953
-0.000460239
-0.0011458
-0.000473893
-0.00101795
-0.000484273
-0.00089784
-0.00049268
-0.00078634
-0.000500168
-0.000683692
-0.000507483
-0.000589859
-0.000515114
-0.000504753
-0.000523393
-0.000428342
-0.000532586
-0.000360673
-0.000542915
-0.000301856
-0.000554555
-0.00025202
-0.000567614
-0.000211235
-0.000582116
-0.000179423
-0.000597988
-0.000156253
-0.000615065
-0.000141027
-0.000633087
-0.000132602
-0.000651705
-0.00012934
-0.000670503
-0.000129114
-0.00068904
-0.000129382
-0.000706911
-0.000127357
-0.000723786
-0.000120172
-0.00073949
-0.000105134
-0.000753999
-7.99836e-05
-0.000767464
-4.31884e-05
-0.00078023
5.84023e-06
-0.000792873
6.6654e-05
-0.000806208
0.000137759
-0.000821169
0.000216793
-0.000838674
0.000300831
-0.000859454
0.000386747
-0.000883911
0.000471549
-0.000912059
0.000552642
-0.000943526
0.000627992
-0.00097764
0.000696248
-0.00101357
0.0007569
-0.00105055
-0.00108851
0.000810644
-0.00037961
0.000274157
-0.000681196
0.00034817
-0.00071821
0.000285811
-0.000672097
0.00022477
-0.000611213
0.000145961
-0.000494874
5.49526e-05
-0.000270007
-3.63288e-05
8.81161e-05
-0.000112813
0.000559867
-0.000163341
0.00113586
-0.00018604
0.00183821
-0.000187198
0.002655
-0.000176378
0.00343861
-0.000158745
0.00398735
-0.000123736
0.00423425
-5.49876e-05
0.00423398
4.53687e-05
0.00401741
0.00016027
0.0036233
0.000253262
0.00311441
0.000283988
0.00256049
0.00024228
0.00201686
0.000146924
0.00151735
2.81051e-05
0.00107778
-8.43658e-05
0.000702228
-0.000164738
0.000386162
-0.000192647
0.000119083
-0.000162892
-0.000109103
-9.44211e-05
-0.000305479
-2.0766e-05
-0.000478486
3.21375e-05
-0.000636785
5.74652e-05
-0.00078711
6.24869e-05
-0.00093089
5.29638e-05
-0.00106185
2.7281e-05
-0.0011726
-1.37801e-05
-0.00125654
-6.89508e-05
-0.00130858
-0.000135763
-0.00133338
-0.00020271
-0.0013264
-0.000276974
-0.00128759
-0.000351345
-0.0012206
-0.000419592
-0.0011317
-0.000477103
-0.00102894
-0.000520888
-0.000920983
-0.000549956
-0.000815667
-0.000565554
-0.000718718
-0.000570841
-0.000632994
-0.000569997
-0.000558649
-0.000567025
-0.000494092
-0.000564726
-0.000437219
-0.000564356
-0.00038631
-0.000566022
-0.000340381
-0.000569323
-0.000299066
-0.000573901
-0.000262325
-0.000579656
-0.000230183
-0.000586698
-0.000202578
-0.000595219
-0.000179307
-0.000605387
-0.000160005
-0.00061729
-0.000144141
-0.000630929
-0.000131018
-0.00064621
-0.000119775
-0.000662947
-0.00010941
-0.000680868
-9.88182e-05
-0.000699632
-8.6869e-05
-0.00071886
-7.24591e-05
-0.000738196
-5.45745e-05
-0.000757374
-3.2285e-05
-0.000776288
-4.73407e-06
-0.000795015
2.88511e-05
-0.000813816
6.90589e-05
-0.000833081
0.000116118
-0.000853268
0.000169762
-0.000874812
0.000229147
-0.000898059
0.000292902
-0.000923208
0.000359268
-0.000950277
0.000426312
-0.000979102
0.000492158
-0.00100937
0.000555213
-0.00104069
0.000614346
-0.0010727
0.000669013
-0.00110522
-0.00113875
0.000719259
0.000593234
-0.000319077
0.00146546
-0.000524058
0.00228257
-0.000531295
0.00299521
-0.000487873
0.00357467
-0.000433502
0.00403758
-0.000407959
0.00442683
-0.000425575
0.00478022
-0.000466204
0.00511769
-0.000500811
0.0054453
-0.00051365
0.00575685
-0.000498742
0.00603545
-0.000454982
0.00625802
-0.000381313
0.006401
-0.000266721
0.00644679
-0.000100772
0.00638084
0.000111315
0.00620311
0.000338003
0.00592507
0.000531305
0.00555539
0.000653664
0.0050998
0.000697876
0.00456577
0.000680952
0.0039669
0.000626974
0.0033267
0.000555833
0.00268048
0.000481482
0.00207445
0.000413382
0.00155578
0.000355782
0.00115427
0.000307088
0.000870744
0.000262759
0.000680563
0.000222318
0.000553525
0.000184503
0.000470886
0.000145126
0.000420254
0.000103596
0.000395873
5.16619e-05
0.00039197
-9.87689e-06
0.000403362
-8.03423e-05
0.000425231
-0.000157632
0.000460845
-0.000238323
0.000502207
-0.000318336
0.000543991
-0.000393129
0.000582161
-0.000457761
0.000612719
-0.000507661
0.00063126
-0.000539429
0.000633094
-0.00055179
0.000614528
-0.000546988
0.000574763
-0.000531076
0.000517306
-0.00051254
0.000449849
-0.000499569
0.000381645
-0.000496521
0.000320474
-0.000503186
0.000270688
-0.000516236
0.000233133
-0.000531768
0.000206355
-0.000547123
0.000187985
-0.000561285
0.000175671
-0.000574383
0.000167468
-0.000587016
0.000161888
-0.000599807
0.00015782
-0.000613223
0.000154438
-0.000627547
0.00015115
-0.000642921
0.000147595
-0.000659391
0.000143674
-0.000676947
0.000139602
-0.000695561
0.000135946
-0.000715204
0.000133614
-0.000735864
0.000133784
-0.000757544
0.000137745
-0.00078025
0.000146716
-0.000803987
0.000161648
-0.000828747
0.000183086
-0.000854519
0.000211097
-0.000881279
0.00024528
-0.000908995
0.000284828
-0.000937607
0.000328633
-0.000967013
0.000375419
-0.000997063
0.000423881
-0.00102756
0.000472813
-0.0010583
0.000521204
-0.00108909
0.000568283
-0.00111978
0.000613519
-0.00115046
-0.00118171
0.000656471
-0.000313248
-5.82899e-06
-0.000772534
-6.47714e-05
-0.00110855
-0.000195277
-0.00133914
-0.000257287
-0.00158794
-0.000184706
-0.00193798
-5.79181e-05
-0.00240274
3.9184e-05
-0.00293682
6.78786e-05
-0.00347282
3.51925e-05
-0.00394886
-3.76172e-05
-0.00431598
-0.000131616
-0.00453845
-0.000232518
-0.00458934
-0.000330424
-0.00443805
-0.000418001
-0.00404924
-0.000489588
-0.00339648
-0.000541449
-0.00248535
-0.000573118
-0.00136862
-0.000585429
-0.000135347
-0.000579609
0.00111718
-0.000554656
0.0023136
-0.000515462
0.00340711
-0.000466534
0.00437414
-0.000411204
0.00520942
-0.000353796
0.00591839
-0.000295589
0.00651178
-0.000237609
0.00699685
-0.000177978
0.00737447
-0.000114859
0.00764455
-4.77657e-05
0.0078172
1.18558e-05
0.00790086
6.14643e-05
0.00790562
9.88314e-05
0.00783605
0.00012123
0.00769838
0.000127798
0.00749868
0.000119358
0.0072438
9.72468e-05
0.00694377
6.17046e-05
0.00659823
2.72023e-05
0.00620809
-2.98932e-06
0.0057761
-2.57706e-05
0.00530768
-3.92382e-05
0.00481216
-4.3912e-05
0.00430493
-4.45618e-05
0.00380165
-4.37062e-05
0.00331537
-4.47983e-05
0.00285561
-5.27744e-05
0.00242879
-7.27523e-05
0.00203979
-0.000107515
0.00169263
-0.000156032
0.0013898
-0.000213402
0.00113198
-0.000273951
0.000918035
-0.000333176
0.000745083
-0.000388333
0.000608878
-0.000438177
0.000504311
-0.00048245
0.000425972
-0.000521468
0.000368615
-0.000555866
0.000327514
-0.000586446
0.000298668
-0.000614075
0.000278889
-0.000639611
0.00026579
-0.000663848
0.0002577
-0.000687471
0.000253533
-0.000711036
0.000252636
-0.000734967
0.000254659
-0.000759567
0.00025946
-0.00078505
0.000267029
-0.000811556
0.000277454
-0.000839172
0.000290869
-0.000867934
0.000307411
-0.000897821
0.000327166
-0.00092875
0.000350127
-0.000960569
0.000376175
-0.000993061
0.000405062
-0.00102595
0.000436423
-0.00105893
0.000469791
-0.00109167
0.000504612
-0.00112391
0.000540273
-0.00115545
0.000576116
-0.0011863
-0.00121696
0.000611364
-3.37109e-05
2.7882e-05
0.000250779
-0.000349261
0.000846052
-0.00079055
0.00141809
-0.000829324
0.00172159
-0.000488206
0.00173867
-7.49943e-05
0.00156825
0.000209598
0.00131216
0.000323966
0.00102883
0.000318525
0.000739299
0.000251915
0.000448636
0.000159048
0.000161611
5.4507e-05
-0.000115999
-5.28147e-05
-0.000382241
-0.000151758
-0.00063891
-0.00023292
-0.000884892
-0.000295466
-0.00111354
-0.000344472
-0.00131912
-0.000379849
-0.00149507
-0.000403653
-0.00162992
-0.000419809
-0.00171761
-0.000427771
-0.00175908
-0.000425059
-0.00175545
-0.00041484
-0.00171088
-0.000398362
-0.00162703
-0.000379443
-0.00151022
-0.00035442
-0.00136807
-0.000320121
-0.00120689
-0.000276042
-0.00103573
-0.000218929
-0.000870086
-0.000153785
-0.000722716
-8.59058e-05
-0.000604502
-1.9383e-05
-0.000524667
4.13961e-05
-0.000489061
9.21926e-05
-0.000499331
0.000129628
-0.000554013
0.000151929
-0.000651595
0.000159286
-0.000777801
0.000153408
-0.000917156
0.000136366
-0.00105307
0.000110145
-0.00116891
7.66033e-05
-0.00125009
3.72643e-05
-0.00128935
-5.29849e-06
-0.0012799
-5.3157e-05
-0.0012211
-0.000103599
-0.00111919
-0.000154683
-0.000985171
-0.000206772
-0.000833589
-0.000259097
-0.000678706
-0.000310915
-0.000530892
-0.000361215
-0.000395894
-0.000408948
-0.000275787
-0.000453282
-0.00017043
-0.00049369
-7.86576e-05
-0.000529949
1.00396e-06
-0.000562111
6.99907e-05
-0.000590454
0.000129565
-0.00061544
0.000180778
-0.000637658
0.000224478
-0.000657774
0.000261347
-0.00067648
0.000291954
-0.000694455
0.000316813
-0.00071233
0.000336451
-0.000730674
0.000351465
-0.000749982
0.000362567
-0.00077067
0.00037059
-0.000793073
0.000376472
-0.000817438
0.000381216
-0.000843916
0.000385832
-0.000872549
0.00039128
-0.000903268
0.000398412
-0.000935882
0.000407924
-0.000970082
0.000420317
-0.00100545
0.000435861
-0.00104149
0.000454588
-0.00107765
0.000476293
-0.00111338
0.000500565
-0.00114818
0.000526823
-0.0011817
0.000554351
-0.00121383
-0.00124486
0.000582254
0.000339153
-0.000311271
0.000678755
-0.000688864
0.000652063
-0.000763858
0.000295964
-0.000473225
-0.000165871
-2.63715e-05
-0.000513782
0.000272916
-0.000592099
0.000287915
-0.000381005
0.000112872
4.82588e-05
-0.000110738
0.000593821
-0.000293647
0.00115637
-0.000403501
0.00165346
-0.000442579
0.00202651
-0.000425871
0.00224127
-0.000366512
0.00228851
-0.000280167
0.00216898
-0.000175935
0.0018976
-7.3087e-05
0.0015054
1.23419e-05
0.00102719
7.45632e-05
0.000491708
0.000115671
-7.40793e-05
0.000138016
-0.000646141
0.000147002
-0.00120591
0.000144934
-0.00173984
0.000135565
-0.00223787
0.000118584
-0.00268506
9.27751e-05
-0.00306603
6.08466e-05
-0.00336843
2.63589e-05
-0.00358441
-2.95145e-06
-0.00371583
-2.23626e-05
-0.00377046
-3.12819e-05
-0.00375838
-3.14585e-05
-0.00369094
-2.60424e-05
-0.00357769
-2.10571e-05
-0.00342853
-1.95359e-05
-0.00325309
-2.35141e-05
-0.00305866
-3.5139e-05
-0.00284925
-5.6003e-05
-0.00263145
-8.14328e-05
-0.00240809
-0.000113214
-0.00218264
-0.000148853
-0.00195746
-0.000187908
-0.00173387
-0.000228891
-0.00151605
-0.000270981
-0.00130644
-0.000313205
-0.00110651
-0.000354616
-0.000918662
-0.000394619
-0.000744942
-0.000432817
-0.000586884
-0.000468972
-0.000445124
-0.000502975
-0.000319303
-0.000534769
-0.000208278
-0.000564307
-0.000110449
-0.000591519
-2.40774e-05
-0.000616321
5.24602e-05
-0.000638649
0.000120515
-0.000658508
0.000181102
-0.000676028
0.000234923
-0.000691479
0.000282425
-0.000705276
0.000323892
-0.000717947
0.000359526
-0.000730088
0.00038952
-0.000742324
0.00041411
-0.000755263
0.000433605
-0.000769477
0.000448413
-0.000785477
0.000459044
-0.000803704
0.000466121
-0.000824515
0.000470375
-0.00084817
0.000472632
-0.000874806
0.000473787
-0.000904424
0.000474764
-0.000936858
0.000476457
-0.000971774
0.000479668
-0.00100866
0.00048505
-0.00104688
0.00049305
-0.00108565
0.000503877
-0.0011242
0.000517493
-0.00116179
0.000533612
-0.00119782
0.000551718
-0.00123193
-0.00126413
0.000570993
-0.000118921
-0.000192351
-0.000650789
-0.000156995
-0.00160026
0.000185613
-0.00264209
0.000568609
-0.00347357
0.000805108
-0.00402158
0.000820927
-0.00435892
0.000625252
-0.00457023
0.000324178
-0.00468677
5.80582e-06
-0.00468935
-0.000291069
-0.00456691
-0.000525934
-0.00433418
-0.000675313
-0.00402371
-0.000736342
-0.00366723
-0.000722993
-0.00329138
-0.000656011
-0.00291204
-0.000555281
-0.00254928
-0.000435848
-0.00222996
-0.000306978
-0.00198073
-0.000174659
-0.00182227
-4.27991e-05
-0.00176935
8.51008e-05
-0.00182793
0.000205584
-0.00199578
0.000312785
-0.00225848
0.000398261
-0.00258946
0.000449565
-0.00294783
0.000451152
-0.00327765
0.000390662
-0.00352201
0.00027072
-0.00364207
0.000117104
-0.00363549
-2.89422e-05
-0.00353475
-0.000132016
-0.00338542
-0.000180787
-0.00322258
-0.000188888
-0.00306506
-0.000178576
-0.00291675
-0.000167843
-0.0027737
-0.000166565
-0.00263026
-0.000178583
-0.00248333
-0.000202927
-0.00232809
-0.00023667
-0.00216464
-0.000276673
-0.00199317
-0.000320321
-0.00181543
-0.00036565
-0.0016335
-0.000410821
-0.00145013
-0.000454345
-0.00126828
-0.000495056
-0.00109076
-0.000532141
-0.000920182
-0.000565194
-0.000758781
-0.000594218
-0.000608185
-0.000619568
-0.000469338
-0.000641822
-0.000342492
-0.000661616
-0.000227313
-0.000679486
-0.000123063
-0.000695769
-2.87973e-05
-0.000710587
5.64639e-05
-0.000723909
0.000133614
-0.000735658
0.000203405
-0.000745818
0.00026643
-0.000754504
0.000323135
-0.000761981
0.000373829
-0.000768641
0.000418703
-0.000774962
0.000457847
-0.000781467
0.000491279
-0.000788696
0.000518994
-0.000797191
0.000541005
-0.000807488
0.000557415
-0.000820113
0.000568459
-0.000835559
0.000574554
-0.000854265
0.000576322
-0.000876574
0.000574582
-0.000902683
0.000570321
-0.000932598
0.000564641
-0.000966095
0.000558679
-0.0010027
0.000553513
-0.00104171
0.000550071
-0.00108221
0.000549047
-0.00112318
0.000550843
-0.00116359
0.000555541
-0.00120252
0.000562891
-0.00123928
-0.0012735
0.00057226
-0.000264766
7.24151e-05
-0.000396059
-2.57014e-05
-0.00016781
-4.26362e-05
0.000375308
2.54914e-05
0.00113188
4.85322e-05
0.0019374
1.54136e-05
0.00263158
-6.89356e-05
0.00311336
-0.000157601
0.00333119
-0.000212018
0.00324891
-0.000208794
0.00287418
-0.000151201
0.00225967
-6.08079e-05
0.00148393
3.94008e-05
0.000626365
0.000134572
-0.000246949
0.000217302
-0.00108324
0.00028101
-0.0018461
0.000327009
-0.00250327
0.000350195
-0.00302786
0.000349934
-0.0034025
0.000331837
-0.00362475
0.000307348
-0.00370756
0.0002884
-0.00367562
0.000280839
-0.00355863
0.00028127
-0.00338692
0.000277858
-0.00319061
0.000254847
-0.00299824
0.000198291
-0.00283405
0.000106525
-0.0027149
-2.04333e-06
-0.00264769
-9.61579e-05
-0.00262892
-0.000150784
-0.00264741
-0.0001623
-0.0026871
-0.000149197
-0.00273112
-0.000134559
-0.002765
-0.000133962
-0.00276396
-0.0001676
-0.00270893
-0.000233612
-0.00260219
-0.000309667
-0.00245189
-0.000386977
-0.00226861
-0.000459949
-0.00206259
-0.000526344
-0.00184285
-0.000585387
-0.00161678
-0.000636888
-0.0013905
-0.000680629
-0.00116921
-0.000716346
-0.00095745
-0.000743899
-0.00075912
-0.000763524
-0.000577314
-0.000776024
-0.000414086
-0.000782796
-0.000270248
-0.00078566
-0.000145348
-0.000786516
-3.78568e-05
-0.000786977
5.44523e-05
-0.000788078
0.000134062
-0.000790198
0.000203331
-0.000793179
0.000264259
-0.000796587
0.000318419
-0.000799978
0.000366992
-0.000803077
0.000410845
-0.000805833
0.000450591
-0.000808387
0.000486626
-0.000810998
0.000519148
-0.000813989
0.000548167
-0.000817715
0.000573538
-0.000822561
0.000595006
-0.000828957
0.000612277
-0.000837383
0.00062509
-0.000848373
0.000633304
-0.00086248
0.000636965
-0.000880235
0.000636358
-0.000902075
0.00063203
-0.000928269
0.000624773
-0.000958838
0.000615575
-0.000993504
0.000605526
-0.00103166
0.000595717
-0.0010724
0.00058712
-0.00111458
0.000580491
-0.00115696
0.000576297
-0.00119832
0.000574668
-0.00123766
-0.00127418
0.000575347
0.000233853
-0.000161437
0.000605281
-0.000397131
0.00110407
-0.00054142
0.00179849
-0.000668932
0.00266884
-0.000821818
0.0036686
-0.00098435
0.00471729
-0.00111763
0.0057231
-0.00116341
0.00657932
-0.00106823
0.00720166
-0.000831138
0.00757917
-0.000528713
0.00778282
-0.000264451
0.00791274
-9.05226e-05
0.00804021
7.1036e-06
0.00818725
7.02651e-05
0.00833172
0.000136539
0.00843293
0.000225795
0.00844324
0.000339887
0.0083532
0.000439974
0.00817769
0.000507346
0.00793914
0.000545901
0.00765908
0.000568453
0.00735277
0.000587154
0.00702612
0.000607923
0.00667438
0.000629596
0.00627991
0.000649315
0.00581465
0.000663556
0.00525194
0.00066923
0.00458554
0.000664362
0.00384184
0.000647537
0.00307379
0.000617267
0.00234175
0.000569741
0.0016933
0.000499254
0.00115726
0.000401483
0.00074566
0.000277635
0.000442017
0.000136043
0.000220857
-1.24527e-05
7.31647e-05
-0.000161975