/*--------------------------------*- C++ -*----------------------------------*\
| =========                 |                                                 |
| \\      /  F ield         | OpenFOAM: The Open Source CFD Toolbox           |
|  \\    /   O peration     | Version:  2012                                  |
|   \\  /    A nd           | Website:  www.openfoam.com                      |
|    \\/     M anipulation  |                                                 |
\*---------------------------------------------------------------------------*/
FoamFile
{
    version     2.0;
    format      ascii;
    class       volVectorField;
    location    "0.84";
    object      U;
}
// * * * * * * * * * * * * * * * * * * * * * * * * * * * * * * * * * * * * * //

dimensions      [0 1 -1 0 0 0 0];


internalField   nonuniform List<vector> 
42400
(
(-14.5631 12.5977 4.75152e-17)
(-25.8111 20.9795 6.82534e-17)
(-24.3723 18.5271 -6.99861e-17)
(-18.6445 13.251 0)
(-8.6667 6.97858 0)
(8.6179 -5.05196 3.2898e-19)
(31.9223 -22.5104 0)
(55.4616 -40.9147 -3.25903e-19)
(72.5876 -54.5799 0)
(79.4145 -60.0482 -2.958e-19)
(76.2323 -57.4513 -2.74343e-19)
(66.362 -49.5811 2.5326e-19)
(53.896 -39.8757 -7.79616e-18)
(41.9467 -30.8869 7.95666e-18)
(32.0779 -23.8312 2.02812e-19)
(24.6238 -18.8757 0)
(19.271 -15.6373 0)
(15.5241 -13.5799 0)
(12.9665 -12.2446 0)
(11.3419 -11.3293 0)
(10.5283 -10.6674 0)
(10.5025 -10.1803 2.31807e-19)
(11.2506 -9.83672 5.15459e-18)
(12.6537 -9.63081 1.93168e-19)
(14.503 -9.53341 -5.08947e-18)
(16.5006 -9.46293 1.50126e-19)
(18.3275 -9.2996 1.35071e-19)
(19.6246 -8.90184 -2.44957e-19)
(20.1242 -8.15047 0)
(19.6902 -6.99245 0)
(18.3312 -5.46879 -3.42544e-18)
(16.2034 -3.70294 3.46146e-18)
(13.5917 -1.8723 -1.49138e-19)
(10.856 -0.181721 3.11484e-18)
(8.33955 1.17879 -3.02054e-18)
(6.27288 2.08666 0)
(4.73432 2.51929 0)
(3.68422 2.55418 0)
(3.01988 2.32879 0)
(2.60828 1.98444 3.97587e-18)
(2.32505 1.63783 -3.98969e-18)
(2.08057 1.37361 4.23586e-18)
(1.82515 1.23971 -1.60687e-19)
(1.54346 1.24931 -8.39929e-18)
(1.24894 1.39024 4.09255e-18)
(0.972321 1.63337 -3.99703e-18)
(0.741222 1.93257 8.12171e-18)
(0.57415 2.23492 -3.89823e-18)
(0.487086 2.49952 -2.20146e-19)
(0.486984 2.70052 3.82505e-18)
(0.571301 2.82139 -7.53267e-18)
(0.73534 2.8536 -3.65831e-19)
(0.975577 2.79495 4.03724e-18)
(1.29315 2.64884 -4.16992e-19)
(1.68992 2.41953 0)
(2.16606 2.1103 0)
(2.72162 1.72854 0)
(3.3521 1.28491 3.96681e-19)
(4.04641 0.790443 3.89316e-19)
(4.78929 0.259479 0)
(5.56141 -0.290809 5.95843e-18)
(6.33967 -0.841712 -6.21487e-18)
(7.09843 -1.3738 -5.46039e-18)
(7.81096 -1.86786 5.3581e-18)
(8.45091 -2.30572 0)
(8.99386 -2.67101 0)
(9.41873 -2.94984 -4.23377e-18)
(9.70921 -3.13169 4.13891e-18)
(9.8553 -3.21087 4.63856e-19)
(9.85541 -3.18879 0)
(9.71863 -3.07658 0)
(9.46639 -2.89681 3.71304e-19)
(9.13175 -2.68241 3.46737e-19)
(8.75552 -2.47166 0)
(8.37921 -2.30017 3.05207e-19)
(8.03699 -2.19258 2.23507e-18)
(7.74942 -2.15717 -2.16861e-18)
(7.52109 -2.1854 -5.09137e-19)
(7.33988 -2.25979 -1.84659e-18)
(7.17459 -2.37154 -1.6801e-18)
(-9.71893 12.1319 0)
(-20.7109 31.3186 -1.55904e-16)
(-21.7405 39.4896 1.59927e-16)
(-13.5309 43.7079 0)
(-3.56239 43.4913 0)
(7.80616 41.5325 -1.33637e-16)
(17.8574 38.6652 1.36286e-16)
(23.5124 36.7485 3.26238e-19)
(22.7531 37.3203 0)
(16.2147 40.2299 2.96229e-19)
(7.09469 43.6605 2.74877e-19)
(-0.984955 45.562 7.25218e-17)
(-6.06838 44.9727 -9.23713e-18)
(-8.13996 42.1163 -6.67063e-17)
(-8.06385 37.7489 -5.32126e-17)
(-6.68146 32.5981 5.40036e-17)
(-4.56924 27.1738 0)
(-2.09782 21.7959 -1.57995e-20)
(0.482904 16.6353 0)
(3.01028 11.7726 0)
(5.38772 7.24871 0)
(7.57081 3.05659 2.32806e-17)
(9.54049 -0.858208 -3.6553e-18)
(11.2728 -4.56529 -2.08854e-17)
(12.666 -8.05677 0)
(13.5434 -11.1898 -1.76442e-19)
(13.7317 -13.7544 -1.36315e-19)
(13.1005 -15.4886 2.47429e-19)
(11.6664 -16.229 9.85671e-18)
(9.64218 -16.0099 -9.97155e-18)
(7.40077 -15.0575 1.83249e-20)
(5.34732 -13.6813 2.90828e-20)
(3.76724 -12.147 6.04403e-18)
(2.76033 -10.6199 -5.9812e-18)
(2.27595 -9.1826 -4.42968e-18)
(2.19013 -7.8658 4.39e-18)
(2.35979 -6.67009 0)
(2.65221 -5.58201 -6.08989e-20)
(2.95943 -4.58699 0)
(3.20835 -3.66681 -1.36873e-19)
(3.36143 -2.80326 2.51006e-18)
(3.40882 -1.98169 -2.65922e-18)
(3.35998 -1.19189 2.18674e-19)
(3.23732 -0.428254 -2.21778e-19)
(3.06878 0.309721 5.64411e-20)
(2.88472 1.01514 -2.24e-19)
(2.71505 1.67499 2.23392e-19)
(2.58399 2.27276 2.83474e-18)
(2.51255 2.79565 -2.82372e-18)
(2.51786 3.23281 0)
(2.6088 3.57282 1.81177e-19)
(2.79048 3.80909 4.2517e-19)
(3.06676 3.94102 2.74175e-18)
(3.43898 3.97075 -2.71768e-18)
(3.90478 3.90161 -3.64829e-19)
(4.46064 3.74052 5.91549e-18)
(5.09829 3.49587 -6.56599e-18)
(5.80489 3.17718 -3.95497e-19)
(6.56249 2.79578 -3.88115e-19)
(7.34879 2.36542 5.9106e-18)
(8.13788 1.90174 -5.8169e-18)
(8.90124 1.42155 3.55443e-19)
(9.60929 0.941971 3.18372e-19)
(10.2331 0.479577 0)
(10.7462 0.0494758 -4.16786e-18)
(11.1263 -0.335342 1.97088e-19)
(11.3566 -0.664282 4.87713e-18)
(11.4266 -0.92913 0)
(11.3335 -1.12423 -9.17191e-19)
(11.0834 -1.24753 4.24772e-19)
(10.6945 -1.30281 3.11841e-18)
(10.1986 -1.30214 -3.40959e-18)
(9.64021 -1.26671 -3.08232e-18)
(9.07169 -1.22429 2.99148e-18)
(8.54366 -1.2032 -6.16585e-19)
(8.09512 -1.2248 2.29242e-18)
(7.74613 -1.2975 -1.66755e-18)
(7.49622 -1.41488 5.09006e-19)
(7.32633 -1.56122 -2.4252e-18)
(7.19652 -1.72683 1.88683e-18)
(11.7088 -10.2978 -2.25835e-17)
(25.2995 -22.758 1.49006e-19)
(33.1066 -25.278 -1.73776e-19)
(32.666 -24.6666 1.83843e-19)
(30.0112 -21.898 0)
(24.6148 -18.5487 -5.64461e-17)
(16.6157 -14.0172 1.11199e-16)
(6.64771 -7.83788 -5.46938e-17)
(-4.66133 -0.487982 4.96522e-17)
(-16.2281 7.56883 -2.20431e-18)
(-26.7989 15.673 -4.90238e-17)
(-35.3131 23.0513 1.11834e-19)
(-41.2123 29.0836 8.45276e-20)
(-44.4615 33.4698 4.36211e-17)
(-45.3388 36.212 -4.44304e-17)
(-44.2474 37.488 4.26775e-19)
(-41.6261 37.5357 -3.92306e-17)
(-37.9125 36.6298 2.06943e-18)
(-33.5268 35.0707 3.71288e-17)
(-28.8646 33.1474 5.73258e-19)
(-24.2597 31.0981 -5.26564e-19)
(-19.9718 29.0903 -4.78151e-19)
(-16.1964 27.2273 0)
(-13.0604 25.5435 3.49873e-19)
(-10.5775 23.9873 1.83459e-17)
(-8.60324 22.4093 -3.42801e-17)
(-6.81456 20.5517 1.62049e-17)
(-4.8468 18.2005 -1.17069e-17)
(-2.44588 15.2706 1.18736e-17)
(0.358495 11.9359 8.22519e-18)
(3.22478 8.59853 -1.43357e-17)
(5.73162 5.67315 1.46811e-18)
(7.61839 3.38341 4.87388e-18)
(8.83862 1.74351 0)
(9.47379 0.649765 0)
(9.65008 -0.0331395 -5.28608e-20)
(9.49832 -0.4253 0)
(9.13721 -0.621173 3.26822e-20)
(8.66175 -0.691105 1.48257e-18)
(8.14253 -0.672435 -3.25581e-18)
(7.62507 -0.573387 1.95771e-18)
(7.13083 -0.386667 0)
(6.66462 -0.104424 0)
(6.22807 0.271039 2.46171e-18)
(5.82549 0.726944 -2.29418e-18)
(5.46479 1.24205 -1.4962e-19)
(5.15882 1.79081 0)
(4.92416 2.34808 0)
(4.77282 2.88595 2.6566e-18)
(4.71389 3.37614 -2.64266e-18)
(4.758 3.80092 -1.809e-19)
(4.91229 4.14892 0)
(5.17809 4.41126 -3.0132e-18)
(5.55234 4.58235 2.67272e-18)
(6.0265 4.65969 -5.03671e-18)
(6.58848 4.6446 5.39153e-18)
(7.22281 4.54246 -5.00322e-18)
(7.9096 4.36098 1.06162e-17)
(8.62498 4.11006 -1.05064e-17)
(9.34207 3.80185 8.02086e-21)
(10.032 3.45026 5.09046e-18)
(10.665 3.07034 4.92363e-18)
(11.2117 2.67746 -5.15434e-18)
(11.6453 2.28642 0)
(11.9424 1.91044 3.79994e-18)
(12.0856 1.56026 -1.23372e-19)
(12.0644 1.24354 -5.08761e-18)
(11.8764 0.96474 0)
(11.5281 0.725251 9.00034e-19)
(11.0374 0.523355 2.88725e-18)
(10.436 0.353726 -2.82962e-18)
(9.76992 0.207045 0)
(9.09576 0.0706171 0)
(8.47149 -0.0695744 -3.29914e-19)
(7.94476 -0.225798 3.11496e-19)
(7.54332 -0.405422 1.75167e-18)
(7.27138 -0.608738 -2.84703e-18)
(7.11265 -0.828649 0)
(7.03618 -1.05441 4.9758e-19)
(6.99991 -1.27278 1.91127e-18)
(20.6333 -16.4791 -2.67474e-18)
(56.5836 -36.9116 1.0089e-17)
(62.7311 -46.1812 -7.47228e-18)
(48.5312 -32.6898 -1.71025e-17)
(28.5293 -17.646 1.74323e-17)
(17.6862 -6.87932 0)
(13.7915 -1.36336 -5.49567e-17)
(13.5838 1.52709 5.60354e-17)
(15.2328 3.18649 -6.10566e-17)
(17.4412 3.92486 6.22539e-17)
(19.6071 3.93103 -6.19026e-17)
(21.8459 3.53733 1.23307e-16)
(24.2993 3.00085 -1.20645e-16)
(26.8766 2.26291 1.17074e-16)
(29.4674 1.17658 -1.12553e-16)
(31.9078 -0.245797 5.51258e-17)
(34.0036 -1.83748 4.94289e-17)
(35.5667 -3.38714 -9.44167e-17)
(36.4723 -4.70538 4.63087e-17)
(36.6954 -5.6432 -5.84579e-19)
(36.2934 -6.09912 5.58531e-19)
(35.3526 -6.00605 3.23288e-17)
(33.9663 -5.34627 -3.23541e-17)
(32.2618 -4.17912 -3.86336e-19)
(30.4286 -2.64982 0)
(28.6826 -0.960407 -2.91041e-19)
(27.176 0.718796 0)
(25.9167 2.28583 -1.21098e-17)
(24.7815 3.69681 2.84722e-18)
(23.6136 4.93251 9.20449e-18)
(22.2627 5.96807 4.82442e-18)
(20.6432 6.78674 -4.72685e-18)
(18.745 7.36651 -2.12316e-19)
(16.6535 7.69804 -1.15449e-19)
(14.4806 7.76956 4.73747e-20)
(12.3409 7.57353 5.82036e-20)
(10.3507 7.12907 0)
(8.62541 6.47659 1.08404e-18)
(7.24948 5.66199 -1.06302e-18)
(6.25922 4.74268 9.48806e-20)
(5.62562 3.79536 -1.54935e-19)
(5.26971 2.91495 0)
(5.08655 2.17463 0)
(4.98392 1.61645 0)
(4.91329 1.26151 -1.52212e-19)
(4.85768 1.10007 2.42294e-18)
(4.8185 1.1009 -2.26817e-18)
(4.80853 1.22601 0)
(4.84419 1.43674 0)
(4.93946 1.69829 2.40364e-18)
(5.10481 1.98073 -2.24045e-18)
(5.34671 2.25864 2.38814e-18)
(5.66699 2.51125 -1.76368e-18)
(6.0629 2.72238 2.8492e-19)
(6.52724 2.88017 -2.0547e-18)
(7.04849 2.97709 2.6225e-18)
(7.61144 3.00942 -4.59809e-18)
(8.19753 2.97706 4.26444e-18)
(8.78513 2.8833 0)
(9.3503 2.73459 -2.68882e-19)
(9.86754 2.54005 -4.41552e-18)
(10.311 2.31097 2.54861e-19)
(10.6558 2.06004 8.80792e-18)
(10.8802 1.80046 -8.12113e-18)
(10.9669 1.54492 3.59816e-18)
(10.9049 1.30467 3.96069e-18)
(10.6905 1.08866 -2.90492e-18)
(10.3292 0.902555 -4.65188e-19)
(9.83774 0.747638 -3.52755e-18)
(9.24801 0.619508 3.44574e-18)
(8.60844 0.507677 -8.11732e-19)
(7.98003 0.397373 -3.43011e-18)
(7.42482 0.273797 2.95978e-18)
(6.99057 0.12692 0)
(6.69983 -0.0459003 -2.58606e-18)
(6.54836 -0.240544 6.69358e-19)
(6.51203 -0.448644 5.29777e-18)
(6.55665 -0.660185 -2.25176e-18)
(6.64568 -0.86581 2.08459e-18)
(6.74014 -1.05425 -2.03807e-18)
(2.31008 -2.22639 -7.22408e-18)
(7.73479 -12.9786 0)
(18.3358 -23.2941 0)
(25.4102 -36.8143 -1.63719e-20)
(32.1861 -45.1183 0)
(39.2281 -52.2383 0)
(45.8739 -57.6925 0)
(47.3126 -57.4549 2.84118e-19)
(38.2283 -47.5303 0)
(20.6503 -30.7398 -1.81608e-19)
(5.29152 -15.1076 3.54509e-17)
(-1.885 -4.36519 -7.30698e-17)
(-5.28441 3.716 3.71824e-17)
(-8.80519 11.1665 0)
(-12.3297 17.6796 5.61594e-20)
(-15.0784 22.373 -2.87544e-19)
(-16.6749 24.9034 0)
(-17.0479 25.3293 4.50084e-17)
(-16.228 23.8065 -9.00144e-17)
(-14.3201 20.6083 2.4031e-18)
(-11.5767 16.2222 4.22051e-17)
(-8.41862 11.3408 2.53846e-20)
(-5.34533 6.69063 0)
(-2.75712 2.80029 -2.81748e-17)
(-0.845212 -0.139243 2.93441e-17)
(0.399916 -2.21573 -2.20733e-17)
(1.08748 -3.61723 2.26613e-17)
(1.29521 -4.49597 1.68894e-17)
(1.05242 -4.92361 -1.70704e-17)
(0.39238 -4.91923 0)
(-0.640484 -4.50346 -1.16856e-17)
(-1.94433 -3.73414 1.18046e-17)
(-3.35801 -2.7431 1.16853e-19)
(-4.66881 -1.70927 -8.04553e-18)
(-5.68321 -0.786289 8.22387e-18)
(-6.24364 -0.0882377 9.8103e-20)
(-6.26127 0.326028 -1.80347e-19)
(-5.74181 0.452066 -4.61988e-18)
(-4.78017 0.325911 4.63946e-18)
(-3.52196 0.018329 3.50035e-18)
(-2.13214 -0.39001 -1.7019e-19)
(-0.766073 -0.818605 -3.52066e-18)
(0.461877 -1.20037 0)
(1.48784 -1.49144 1.81566e-19)
(2.29222 -1.67361 -2.37759e-18)
(2.89673 -1.74793 5.49379e-18)
(3.3474 -1.72585 -5.18058e-18)
(3.69554 -1.6267 2.39479e-18)
(3.98769 -1.47203 0)
(4.26093 -1.28247 1.48495e-19)
(4.54186 -1.07657 -2.33569e-18)
(4.84752 -0.870538 2.31561e-18)
(5.18678 -0.678191 -9.91653e-21)
(5.5617 -0.511023 -2.21795e-18)
(5.96861 -0.378076 1.63087e-18)
(6.39894 -0.285774 -2.15107e-18)
(6.83997 -0.237716 -2.40224e-18)
(7.27555 -0.234517 4.47992e-18)
(7.68696 -0.273758 -4.2018e-18)
(8.05401 -0.350095 4.40901e-18)
(8.3564 -0.455588 0)
(8.57541 -0.580275 -2.64731e-19)
(8.69551 -0.712932 -4.10138e-18)
(8.70582 -0.841875 3.50905e-18)
(8.60103 -0.955661 1.00483e-18)
(8.38227 -1.04377 0)
(8.05861 -1.09761 3.82896e-18)
(7.64953 -1.11219 -3.27991e-18)
(7.18738 -1.08827 -4.49754e-19)
(6.71727 -1.03384 -4.35099e-19)
(6.29127 -0.963444 8.28525e-19)
(5.95714 -0.894613 -6.59697e-21)
(5.74596 -0.843026 -3.35774e-18)
(5.66527 -0.818803 2.89716e-18)
(5.70068 -0.82551 -3.41668e-19)
(5.8239 -0.861406 0)
(6.00204 -0.921454 -3.00191e-18)
(6.20413 -0.999 2.33046e-18)
(6.40437 -1.08588 0)
(6.57722 -1.17336 -2.06534e-18)
(-13.2268 8.05352 -1.37891e-19)
(-28.9072 16.841 -1.79709e-17)
(-33.9393 14.8978 1.65956e-17)
(-31.9834 8.96557 -3.18158e-17)
(-29.2101 0.926972 1.52949e-17)
(-24.5573 -8.24355 1.92619e-19)
(-17.4709 -19.1767 8.46731e-18)
(-7.62807 -32.4081 -8.9625e-18)
(4.81333 -47.406 -7.15656e-20)
(18.7883 -62.2749 1.21024e-19)
(31.2976 -74.8738 -6.02135e-18)
(36.0658 -81.593 -8.32461e-18)
(29.3803 -79.1643 1.5011e-17)
(15.2676 -70.2095 -1.78671e-17)
(-0.300367 -58.8408 3.69623e-17)
(-13.9389 -47.0568 -1.89804e-17)
(-24.8168 -35.9882 0)
(-33.2123 -26.083 0)
(-39.2436 -17.6062 2.3415e-17)
(-42.4544 -11.084 1.57035e-19)
(-42.2434 -7.12012 -2.32374e-17)
(-38.677 -5.86746 2.10953e-17)
(-32.8536 -6.71903 -4.11158e-17)
(-26.4002 -8.57305 1.95995e-17)
(-20.6277 -10.4322 1.6338e-17)
(-16.0717 -11.8173 -1.61219e-18)
(-12.6418 -12.7307 -1.58304e-17)
(-10.0182 -13.3468 8.72114e-20)
(-7.92996 -13.7872 -9.18476e-20)
(-6.24835 -14.0692 1.91643e-19)
(-4.93973 -14.1515 0)
(-3.97869 -13.9978 9.06059e-18)
(-3.29511 -13.6137 -1.76204e-17)
(-2.77932 -13.0404 8.54283e-18)
(-2.32239 -12.3188 0)
(-1.84734 -11.5149 -6.39694e-18)
(-1.32298 -10.6869 6.40825e-18)
(-0.761244 -9.86538 0)
(-0.198057 -9.06995 0)
(0.327984 -8.31777 -3.81266e-18)
(0.793272 -7.63784 3.94794e-18)
(1.19343 -7.04763 -1.08071e-20)
(1.54524 -6.54402 0)
(1.87162 -6.11893 2.71662e-18)
(2.18624 -5.75695 -3.17144e-19)
(2.49636 -5.44097 -2.91764e-18)
(2.80549 -5.15457 -1.61139e-19)
(3.11502 -4.88495 3.12125e-19)
(3.4256 -4.62444 0)
(3.73789 -4.37035 -2.48832e-18)
(4.05247 -4.12389 4.61524e-18)
(4.36951 -3.88887 -2.41745e-18)
(4.68823 -3.67035 -2.80518e-19)
(5.00641 -3.47365 -2.47298e-18)
(5.32013 -3.30348 2.70924e-19)
(5.62369 -3.16346 4.31113e-18)
(5.90977 -3.05564 -1.5956e-18)
(6.1698 -2.98033 0)
(6.39441 -2.93595 0)
(6.57408 -2.91897 2.65868e-19)
(6.69976 -2.92394 2.639e-19)
(6.76362 -2.94349 0)
(6.75994 -2.96851 3.87146e-18)
(6.68655 -2.98859 -3.79746e-18)
(6.54645 -2.99264 -4.51184e-18)
(6.34971 -2.97037 -4.93885e-19)
(6.11483 -2.91403 3.36633e-18)
(5.86797 -2.82008 -3.72342e-18)
(5.63948 -2.69006 3.63695e-18)
(5.45807 -2.53039 8.12395e-23)
(5.34531 -2.35138 2.89676e-18)
(5.312 -2.16551 -2.82978e-18)
(5.3574 -1.98567 -2.63817e-18)
(5.47107 -1.82323 3.29965e-18)
(5.63633 -1.68646 -2.38987e-18)
(5.83401 -1.57974 2.65188e-18)
(6.04525 -1.50359 -2.46719e-18)
(6.2533 -1.45512 4.73378e-18)
(6.44483 -1.42777 -4.60139e-20)
(6.60531 -1.42034 -4.50867e-20)
(-11.9377 7.5292 2.08321e-17)
(-35.285 27.9095 1.80159e-19)
(-52.8695 38.8155 -2.3338e-17)
(-49.8043 43.1445 4.29609e-17)
(-39.1694 39.6715 -1.96785e-17)
(-29.464 37.1812 1.05981e-17)
(-23.1871 35.813 -4.00281e-18)
(-19.1155 34.1008 -7.51641e-18)
(-16.6644 31.2698 2.42375e-18)
(-16.8635 28.6075 -2.74933e-18)
(-20.7258 27.6154 5.32735e-20)
(-24.3681 25.4837 -1.90823e-19)
(-18.2498 15.3339 -3.05529e-18)
(-0.972959 -2.40754 3.16501e-18)
(16.0157 -18.1108 4.2731e-20)
(24.8507 -27.0983 4.78471e-20)
(27.084 -31.2479 -7.61203e-18)
(26.1815 -32.4699 7.75183e-18)
(23.9954 -31.7903 -1.12913e-19)
(21.3318 -29.7388 -5.03113e-20)
(18.6695 -26.7398 -9.99536e-18)
(16.2868 -23.2464 9.99167e-18)
(14.3064 -19.701 0)
(12.7523 -16.4625 7.73916e-20)
(11.5507 -13.7809 0)
(10.528 -11.7769 0)
(9.48131 -10.4439 2.32654e-20)
(8.30946 -9.70359 1.46124e-18)
(7.04639 -9.43471 -1.48225e-18)
(5.76487 -9.46699 1.21841e-18)
(4.50837 -9.62524 -1.42465e-18)
(3.31424 -9.79289 1.98619e-19)
(2.2428 -9.92095 -1.97644e-19)
(1.36692 -10.002 0)
(0.747472 -10.0422 -9.96847e-20)
(0.414259 -10.0469 0)
(0.357192 -10.0152 0)
(0.534698 -9.93901 -1.07736e-19)
(0.88677 -9.80575 0)
(1.34875 -9.60529 0)
(1.86246 -9.33398 3.66963e-18)
(2.38105 -8.99609 -3.46012e-18)
(2.87207 -8.60361 0)
(3.31739 -8.1744 0)
(3.70966 -7.72788 0)
(4.04906 -7.28154 -1.53559e-19)
(4.34057 -6.84894 1.61316e-19)
(4.59146 -6.4394 2.28443e-18)
(4.80939 -6.05861 -2.42909e-18)
(5.0013 -5.70994 2.31986e-18)
(5.173 -5.39541 -2.59143e-18)
(5.329 -5.11641 2.83471e-19)
(5.47247 -4.87387 1.41893e-19)
(5.60516 -4.66819 0)
(5.72739 -4.49904 0)
(5.83796 -4.36517 -1.93033e-18)
(5.93437 -4.26405 -2.88476e-19)
(6.01306 -4.19163 2.17548e-18)
(6.06986 -4.14232 -2.17992e-18)
(6.10077 -4.10907 2.15753e-18)
(6.10311 -4.0838 4.02229e-18)
(6.07676 -4.05817 2.2947e-20)
(6.02514 -4.0247 -8.07649e-18)
(5.9555 -3.97707 4.10153e-18)
(5.87778 -3.91027 2.55892e-19)
(5.80225 -3.82052 4.92824e-19)
(5.73749 -3.70494 3.83522e-18)
(5.68965 -3.56182 -7.4706e-18)
(5.66311 -3.39154 3.63447e-18)
(5.66139 -3.19789 4.36383e-19)
(5.68755 -2.98816 3.335e-18)
(5.7438 -2.7718 -3.65577e-18)
(5.83022 -2.55897 0)
(5.94395 -2.35893 -3.65871e-19)
(6.07918 -2.17867 0)
(6.2277 -2.02238 2.65919e-18)
(6.37995 -1.89142 -4.8141e-20)
(6.52655 -1.78448 -2.45318e-18)
(6.66025 -1.69774 1.70065e-18)
(6.77312 -1.63742 5.17398e-19)
(-3.24302 0.272365 3.80102e-17)
(-7.509 -0.33553 -5.7101e-17)
(-9.53218 1.11372 -1.6247e-20)
(-10.7066 0.18957 -5.05048e-17)
(-10.4291 0.561296 5.16433e-17)
(-11.3081 1.71964 -4.1584e-17)
(-13.525 4.20503 7.95325e-17)
(-16.433 7.83371 -3.73445e-17)
(-19.3026 12.0248 2.81586e-17)
(-21.723 16.3045 -2.8258e-17)
(-23.599 20.5769 0)
(-24.6565 25.0218 6.86068e-20)
(-24.4898 29.2404 6.06574e-20)
(-23.0414 32.3864 0)
(-20.3651 33.6399 0)
(-16.4626 32.5937 0)
(-11.5762 29.5179 0)
(-6.06649 24.8397 -5.78767e-20)
(-0.0688688 18.9001 0)
(6.18319 12.2996 -8.90271e-19)
(12.2389 5.75327 1.02574e-18)
(17.45 -0.0656138 -7.75654e-19)
(21.0641 -4.61586 8.72356e-19)
(22.3054 -7.50299 6.97773e-19)
(20.6011 -8.47339 -8.79256e-19)
(16.0354 -7.5272 -8.00903e-19)
(9.83943 -5.31889 7.90804e-19)
(3.87615 -3.02728 -1.53997e-18)
(-0.5033 -1.58089 1.04627e-19)
(-3.0151 -1.14404 1.45466e-18)
(-4.07744 -1.40545 0)
(-4.2319 -2.06314 2.30229e-20)
(-3.8341 -2.93567 4.15534e-20)
(-3.05925 -3.91343 0)
(-2.00638 -4.91196 9.98201e-20)
(-0.767503 -5.85794 0)
(0.552017 -6.69599 0)
(1.85495 -7.37448 2.52925e-18)
(3.06837 -7.84925 -4.81622e-18)
(4.13504 -8.10611 2.48751e-18)
(5.01817 -8.15471 2.34549e-18)
(5.70123 -8.02331 -2.43879e-18)
(6.18765 -7.7542 -7.93008e-20)
(6.49908 -7.39687 0)
(6.66992 -6.99952 2.36333e-18)
(6.73951 -6.60085 -2.05839e-18)
(6.74475 -6.2252 0)
(6.71416 -5.88276 0)
(6.66623 -5.5737 -2.08902e-18)
(6.6112 -5.29417 2.37287e-18)
(6.55425 -5.04062 2.57324e-18)
(6.49836 -4.81153 -2.40735e-18)
(6.44581 -4.60702 -2.45863e-18)
(6.39865 -4.42778 4.6229e-18)
(6.35864 -4.27417 -2.30382e-18)
(6.32717 -4.14582 -5.84101e-19)
(6.30523 -4.04152 0)
(6.29346 -3.95929 2.98125e-19)
(6.29205 -3.89631 -1.99797e-18)
(6.30052 -3.84885 4.25282e-18)
(6.31728 -3.81217 -2.23387e-18)
(6.33936 -3.78047 0)
(6.36246 -3.7472 -2.65904e-19)
(6.38157 -3.70567 0)
(6.39244 -3.65005 -2.5588e-19)
(6.39299 -3.57619 -2.58946e-19)
(6.38443 -3.48212 -5.03056e-19)
(6.37122 -3.36803 -3.80558e-18)
(6.36012 -3.23596 3.2455e-18)
(6.35848 -3.08931 -4.54222e-19)
(6.37241 -2.93237 -3.41249e-18)
(6.40562 -2.76997 4.15088e-18)
(6.4588 -2.60702 -3.13857e-18)
(6.52969 -2.44813 3.05164e-18)
(6.61356 -2.29719 -3.23338e-18)
(6.70411 -2.1571 2.43249e-18)
(6.79471 -2.02967 2.60217e-18)
(6.8798 -1.91534 -2.52208e-18)
(6.95614 -1.8137 5.85082e-19)
(7.02049 -1.73532 -5.62833e-19)
(8.77175 -1.86825 3.59702e-17)
(24.6094 -4.94645 5.13374e-17)
(36.2804 -6.88751 -1.02289e-16)
(45.1479 -6.23493 9.86193e-17)
(52.6507 -6.44699 -4.86865e-17)
(60.7232 -7.35009 6.30753e-21)
(68.7264 -8.83216 3.46561e-17)
(75.1108 -10.0633 -6.4152e-17)
(78.6362 -10.1976 6.66463e-18)
(79.0439 -8.93263 2.30773e-17)
(76.8901 -6.44364 -5.67745e-20)
(72.7924 -3.06689 -5.65027e-18)
(66.8111 1.02582 5.7729e-18)
(58.1966 6.00912 2.89932e-18)
(46.0855 12.1524 -2.95869e-18)
(30.7521 19.2554 -8.58346e-18)
(14.3472 26.2907 8.75704e-18)
(0.121735 31.7644 5.9636e-20)
(-9.51796 34.5757 0)
(-14.2738 34.5885 1.11475e-17)
(-15.4145 32.4218 -1.12417e-17)
(-14.515 28.8954 -1.9042e-19)
(-12.7448 24.6937 -7.83302e-18)
(-10.8011 20.3259 8.08868e-18)
(-9.01432 16.1986 -1.16497e-20)
(-7.43739 12.5887 0)
(-5.88803 9.54102 4.763e-20)
(-4.3121 7.06301 5.32737e-20)
(-2.87041 5.16114 2.99749e-18)
(-1.69811 3.78557 -3.03761e-18)
(-0.733211 2.79308 -3.99842e-19)
(0.191412 2.02824 4.17503e-19)
(1.21397 1.36063 5.27554e-20)
(2.39938 0.721541 -2.60354e-18)
(3.74564 0.0862559 5.58041e-18)
(5.20957 -0.545054 -3.09017e-18)
(6.72674 -1.14604 -3.46928e-18)
(8.21173 -1.68998 3.62369e-18)
(9.56808 -2.1612 3.48862e-20)
(10.7022 -2.54284 -1.20921e-19)
(11.538 -2.8164 8.78448e-20)
(12.0283 -2.97496 -2.82824e-18)
(12.1649 -3.03099 2.5761e-19)
(11.9858 -3.0164 2.65491e-18)
(11.5691 -2.97551 -2.62723e-18)
(11.0137 -2.94935 2.47703e-18)
(10.4156 -2.95743 0)
(9.84339 -2.99526 2.62403e-18)
(9.33112 -3.0422 -2.621e-18)
(8.88632 -3.07619 2.3632e-18)
(8.50338 -3.08478 -1.25636e-19)
(8.17484 -3.06769 2.23049e-20)
(7.89588 -3.03244 2.13032e-20)
(7.66372 -2.98887 2.00435e-20)
(7.47573 -2.94537 -2.4983e-18)
(7.32806 -2.90749 1.41341e-19)
(7.21531 -2.87807 0)
(7.13088 -2.85789 -2.76532e-18)
(7.06758 -2.84634 2.1383e-18)
(7.01839 -2.84192 0)
(6.97728 -2.84257 -2.67646e-18)
(6.93995 -2.846 2.02865e-18)
(6.90433 -2.84974 0)
(6.8707 -2.8512 -2.87501e-19)
(6.84111 -2.8477 0)
(6.81847 -2.8364 -3.95461e-18)
(6.80558 -2.81458 8.44789e-18)
(6.80438 -2.77998 -3.9937e-18)
(6.81573 -2.73124 4.7091e-19)
(6.83945 -2.66818 4.54083e-19)
(6.87448 -2.5918 -3.52885e-18)
(6.91897 -2.50416 3.0178e-18)
(6.9704 -2.40795 -4.1558e-19)
(7.02568 -2.30618 -3.97e-19)
(7.0815 -2.20176 7.45689e-19)
(7.13465 -2.09736 3.49943e-19)
(7.18249 -1.99513 3.02139e-18)
(7.22344 -1.89649 -5.11648e-20)
(7.25738 -1.80297 -2.77378e-18)
(7.28335 -1.7264 -5.9385e-19)
(2.04821 -1.78499 0)
(-4.55411 -1.80653 -7.73039e-20)
(-16.0593 2.12503 2.57388e-19)
(-29.6924 5.43831 2.77928e-17)
(-41.6368 9.60861 -5.33645e-17)
(-50.2528 11.8929 4.6998e-17)
(-54.1187 11.5626 -2.17789e-17)
(-53.9277 8.90859 0)
(-51.2252 4.90753 1.06384e-19)
(-47.3146 0.544422 7.74673e-18)
(-43.0346 -3.48012 -7.85067e-18)
(-38.921 -6.72349 -3.44727e-18)
(-35.2326 -8.93091 5.81667e-18)
(-32.0282 -9.93766 -6.81927e-19)
(-29.1984 -9.63315 -3.4965e-19)
(-26.4802 -7.97359 -9.02418e-19)
(-23.5435 -5.04956 -8.80248e-20)
(-20.2157 -1.10756 1.68932e-18)
(-16.5461 3.4742 -1.66758e-18)
(-12.7307 8.26659 -1.05139e-19)
(-9.00585 12.9057 -1.56991e-20)
(-5.55351 17.1565 1.88696e-19)
(-2.46931 20.8947 1.78323e-18)
(0.212827 24.0809 -6.21833e-19)
(2.48154 26.7634 -1.26052e-18)
(4.3522 29.0089 1.1973e-19)
(5.82305 30.8732 -8.75478e-19)
(6.92953 32.3662 1.88136e-18)
(7.77768 33.4163 -2.81472e-18)
(8.49474 33.9513 1.44949e-18)
(9.20954 33.9668 0)
(10.0225 33.5239 -4.49065e-18)
(10.9757 32.6714 9.09948e-18)
(12.0371 31.4433 -4.62734e-18)
(13.1385 29.8977 4.68221e-18)
(14.1963 28.1099 -5.25069e-18)
(15.1178 26.1643 -1.3187e-19)
(15.8093 24.1353 0)
(16.1742 22.0718 8.67142e-20)
(16.1272 20.0127 -3.70977e-18)
(15.6195 17.9937 4.04541e-18)
(14.6532 16.0479 -1.69057e-19)
(13.2906 14.2044 1.5453e-19)
(11.6814 12.4901 0)
(10.0341 10.8902 0)
(8.57002 9.34747 1.83862e-18)
(7.47548 7.82392 -2.29699e-18)
(6.80836 6.29785 -1.38831e-19)
(6.51576 4.80759 -2.05792e-18)
(6.47525 3.41691 4.39293e-18)
(6.55979 2.18426 -1.94262e-18)
(6.67855 1.14137 0)
(6.78528 0.293168 2.65199e-18)
(6.86513 -0.374488 -2.44068e-18)
(6.91853 -0.885673 0)
(6.95092 -1.26764 2.78984e-18)
(6.96828 -1.54697 -2.59991e-18)
(6.97597 -1.7477 2.63696e-18)
(6.97869 -1.89032 -2.24898e-18)
(6.98057 -1.99151 0)
(6.98508 -2.06407 6.42005e-19)
(6.99474 -2.11718 3.01051e-19)
(7.01091 -2.1569 -2.42246e-18)
(7.03376 -2.18674 3.07332e-19)
(7.06248 -2.20842 2.31125e-18)
(7.09576 -2.22252 0)
(7.13225 -2.22905 2.62939e-19)
(7.1709 -2.22772 0)
(7.21104 -2.21824 0)
(7.2522 -2.20031 -3.81942e-18)
(7.29395 -2.17379 3.72374e-18)
(7.33566 -2.13868 3.05637e-18)
(7.37638 -2.0952 3.54219e-19)
(7.41488 -2.0438 -2.86193e-18)
(7.44971 -1.98518 -3.42591e-18)
(7.47935 -1.92029 2.95832e-18)
(7.50246 -1.85033 -3.42986e-19)
(7.51829 -1.7765 -2.61466e-18)
(7.5269 -1.70105 5.63697e-18)
(7.52751 -1.63592 -1.83848e-18)
(-3.60651 0.921651 -4.54136e-17)
(7.72285 -3.09004 3.41085e-17)
(33.3314 -10.5713 3.36577e-17)
(52.4046 -14.7383 -3.44795e-17)
(55.2909 -13.2473 -2.36665e-19)
(48.414 -9.7396 -2.19463e-19)
(39.6741 -6.90631 0)
(33.4098 -5.72792 -2.94623e-17)
(30.3571 -6.04056 2.99317e-17)
(29.8373 -7.3967 0)
(31.0587 -9.42468 2.41052e-17)
(33.4142 -11.864 -4.64314e-17)
(36.4238 -14.5077 2.64635e-18)
(39.6383 -17.1618 3.65112e-17)
(42.5892 -19.6451 -1.71664e-17)
(44.8177 -21.7833 -1.07568e-19)
(46.0169 -23.4286 1.58721e-19)
(46.0368 -24.4784 0)
(44.8707 -24.8996 -3.28762e-18)
(42.6395 -24.7239 3.29529e-18)
(39.5471 -24.0003 1.10203e-19)
(35.8493 -22.8039 3.25699e-18)
(31.83 -21.2472 -3.19855e-18)
(27.7463 -19.4573 6.25698e-18)
(23.7693 -17.5136 -6.32678e-18)
(19.963 -15.463 -1.20536e-19)
(16.3027 -13.3257 8.92165e-18)
(12.7705 -11.1343 1.21026e-19)
(9.39496 -8.94506 -1.78494e-17)
(6.22587 -6.84322 2.30533e-19)
(3.32539 -4.92567 8.58945e-18)
(0.75799 -3.27369 7.835e-18)
(-1.42177 -1.94632 -8.16755e-18)
(-3.17529 -0.992215 0)
(-4.48705 -0.430275 2.78531e-19)
(-5.384 -0.243824 2.62376e-19)
(-5.9403 -0.388005 0)
(-6.23885 -0.783999 9.56146e-18)
(-6.33768 -1.33676 -9.83659e-18)
(-6.26065 -1.96025 -2.02856e-19)
(-6.0042 -2.57716 0)
(-5.56577 -3.13105 1.7242e-19)
(-4.95041 -3.58372 6.88044e-18)
(-4.15329 -3.90517 -6.8086e-18)
(-3.20168 -4.07748 0)
(-2.13052 -4.10943 -4.91359e-18)
(-0.973065 -4.01317 5.55059e-18)
(0.205539 -3.83758 0)
(1.35502 -3.61852 0)
(2.43124 -3.38966 -1.97153e-19)
(3.40207 -3.17337 -1.94131e-19)
(4.24985 -2.97764 0)
(4.96871 -2.80194 3.46376e-18)
(5.56151 -2.6425 -3.62201e-18)
(6.03731 -2.49546 -3.41321e-18)
(6.40924 -2.35842 2.93163e-19)
(6.69256 -2.23063 6.45777e-18)
(6.90302 -2.11263 -6.24595e-18)
(7.05557 -2.00568 -2.94531e-19)
(7.16358 -1.91124 2.56894e-18)
(7.2384 -1.83068 -3.3509e-19)
(7.28938 -1.76498 0)
(7.3241 -1.71458 0)
(7.34873 -1.6793 2.52e-18)
(7.36825 -1.65823 -2.78449e-18)
(7.38672 -1.64979 0)
(7.40721 -1.65173 2.89668e-19)
(7.43183 -1.6613 0)
(7.46169 -1.6754 2.07266e-18)
(7.49694 -1.69081 -2.02265e-18)
(7.5368 -1.70436 4.87085e-19)
(7.57971 -1.71319 4.07843e-18)
(7.62348 -1.71487 -3.53149e-18)
(7.66546 -1.70753 4.21952e-19)
(7.70281 -1.69002 0)
(7.73278 -1.66198 0)
(7.7531 -1.62378 0)
(7.76242 -1.57638 -3.02145e-18)
(7.76046 -1.52238 -2.58464e-19)
(7.7467 -1.47318 4.91995e-18)
(24.2223 -7.54175 4.80839e-17)
(70.904 -20.5585 7.09261e-17)
(96.0524 -29.8071 -7.27037e-17)
(81.2504 -24.3833 7.00973e-17)
(40.7957 -12.7282 -7.21674e-17)
(2.93321 -2.24956 -3.48732e-19)
(-18.2162 3.51401 -3.40259e-19)
(-23.6118 5.6717 0)
(-20.2888 6.25583 1.11192e-19)
(-14.0642 6.7625 0)
(-7.95202 7.80482 -3.09392e-19)
(-3.10194 9.16258 -4.13365e-17)
(-0.00871302 10.4289 4.18666e-17)
(0.991273 11.4147 3.0101e-17)
(0.0426843 12.0738 -3.02726e-17)
(-2.14144 12.3106 2.08737e-17)
(-4.70409 11.9703 -2.20984e-17)
(-7.02622 10.965 0)
(-8.79152 9.32174 0)
(-9.8933 7.13361 0)
(-10.3471 4.53886 -1.14613e-17)
(-10.2856 1.71461 2.25115e-17)
(-9.87264 -1.1995 -7.36924e-19)
(-9.2763 -4.07501 -2.08747e-17)
(-8.62439 -6.78966 1.07233e-17)
(-8.00764 -9.23025 0)
(-7.4858 -11.3175 3.23452e-19)
(-7.11245 -12.9772 0)
(-6.92104 -14.1505 -9.96588e-18)
(-6.89394 -14.8428 9.78628e-18)
(-6.9661 -15.1122 1.4503e-20)
(-7.05748 -15.0383 0)
(-7.08875 -14.7068 8.51318e-18)
(-6.99231 -14.1958 -1.63126e-17)
(-6.72285 -13.5703 8.0292e-18)
(-6.26273 -12.8827 -6.71695e-18)
(-5.62047 -12.1676 1.29689e-17)
(-4.82159 -11.4418 -6.24429e-18)
(-3.9022 -10.718 0)
(-2.9018 -10.0044 0)
(-1.8599 -9.30294 0)
(-0.808405 -8.61497 4.13705e-18)
(0.226256 -7.93951 -1.2021e-17)
(1.22979 -7.28625 7.64664e-18)
(2.18142 -6.65815 0)
(3.06679 -6.0593 -6.29766e-18)
(3.87905 -5.4957 6.09748e-18)
(4.61354 -4.9735 5.35294e-18)
(5.26692 -4.49783 -6.25528e-19)
(5.83685 -4.07068 -2.49203e-19)
(6.32264 -3.6904 -2.13704e-19)
(6.72619 -3.3526 -4.48962e-18)
(7.05173 -3.05145 0)
(7.30519 -2.78083 0)
(7.49354 -2.53528 -3.52729e-18)
(7.62445 -2.31061 3.75194e-18)
(7.70616 -2.10427 0)
(7.74736 -1.91522 0)
(7.75693 -1.74371 2.09097e-19)
(7.7437 -1.59075 3.78423e-19)
(7.71599 -1.45767 0)
(7.68128 -1.34566 0)
(7.64593 -1.2555 -3.55092e-19)
(7.61501 -1.18731 -3.40737e-19)
(7.59231 -1.14052 2.85874e-18)
(7.58041 -1.11385 -4.93507e-18)
(7.58078 -1.10536 -2.41233e-19)
(7.59387 -1.11248 4.53226e-18)
(7.61922 -1.13212 -4.61177e-18)
(7.65551 -1.16074 4.14594e-18)
(7.70056 -1.1945 -7.79024e-19)
(7.75143 -1.22947 -1.90785e-18)
(7.80451 -1.26183 3.5566e-18)
(7.85581 -1.28813 -6.61828e-20)
(7.90121 -1.30556 -6.49991e-18)
(7.9369 -1.31217 3.50839e-18)
(7.95978 -1.30693 0)
(7.96793 -1.28977 6.90744e-19)
(7.96066 -1.26269 0)
(7.93734 -1.23551 -2.4741e-18)
(3.01425 -2.47311 0)
(-5.3654 3.99364 -4.45982e-20)
(-29.5031 1.78281 5.08464e-20)
(-51.1873 6.16405 -2.35247e-17)
(-63.2058 3.25728 4.63489e-17)
(-57.9348 -2.71322 -2.19619e-17)
(-37.5191 -11.5172 3.40233e-19)
(-12.1757 -20.4227 0)
(9.31678 -27.3114 0)
(23.6722 -31.4037 0)
(31.016 -32.8687 3.11438e-19)
(32.9701 -32.3347 3.30146e-19)
(31.5646 -30.4495 0)
(28.3304 -27.6912 -2.00861e-20)
(24.2297 -24.4702 -4.60686e-19)
(19.9458 -21.1499 2.59001e-17)
(15.945 -17.9946 -2.5654e-17)
(12.4297 -15.1843 -3.38458e-20)
(9.39698 -12.8436 0)
(6.75475 -11.054 7.01027e-20)
(4.4228 -9.85504 -2.28475e-19)
(2.339 -9.24887 1.51268e-17)
(0.492128 -9.24026 -1.30611e-18)
(-1.0952 -9.80119 -1.39222e-17)
(-2.35277 -10.8554 -3.50706e-19)
(-3.191 -12.2525 1.46315e-19)
(-3.55654 -13.7544 -1.08404e-17)
(-3.49531 -15.0648 1.00638e-17)
(-3.17258 -15.9109 2.77136e-19)
(-2.81526 -16.1513 2.82249e-19)
(-2.59939 -15.8298 2.67894e-19)
(-2.56861 -15.1292 -7.00313e-18)
(-2.64435 -14.2664 7.06906e-18)
(-2.70159 -13.4067 4.22569e-19)