/*--------------------------------*- C++ -*----------------------------------*\
| =========                 |                                                 |
| \\      /  F ield         | OpenFOAM: The Open Source CFD Toolbox           |
|  \\    /   O peration     | Version:  2012                                  |
|   \\  /    A nd           | Website:  www.openfoam.com                      |
|    \\/     M anipulation  |                                                 |
\*---------------------------------------------------------------------------*/
FoamFile
{
    version     2.0;
    format      ascii;
    class       volScalarField;
    location    "0.49";
    object      p;
}
// * * * * * * * * * * * * * * * * * * * * * * * * * * * * * * * * * * * * * //

dimensions      [0 2 -2 0 0 0 0];


internalField   nonuniform List<scalar> 
42400
(
7633.68
7699.35
7836.08
7977.69
8073.76
8093.22
8044.15
7926.25
7729.79
7454.17
7112.76
6727.94
6323.61
5918.52
5522.52
5136.82
4757.37
4378.67
3990.64
3583.31
3144.72
2667.99
2159.63
1640.25
1137.06
680.375
297.938
0.16163
-221.106
-378.282
-479.188
-528.743
-533.978
-505.816
-457.09
-399.424
-341.3
-287.852
-241.647
-203.582
-173.523
-150.729
-134.142
-122.617
-115.063
-110.52
-108.18
-107.364
-107.497
-108.086
-108.699
-108.971
-108.612
-107.43
-105.359
-102.455
-98.5723
-94.285
-89.819
-85.3683
-81.1159
-77.1712
-73.5819
-70.3576
-67.4864
-64.9411
-62.6811
-60.6557
-58.8115
-57.101
-55.4903
-53.9625
-52.5158
-51.1594
-49.9067
-48.7692
-47.7527
-46.8593
-46.0743
-45.4501
-6306.91
-6526.26
-6806.48
-7085.25
-7367.66
-7611.33
-7801.01
-7919.04
-7949.19
-7881.44
-7711.42
-7439.95
-7073.5
-6624.98
-6113.56
-5563.19
-5000.53
-4452.05
-3940.78
-3482.78
-3084.66
-2741.92
-2438.34
-2150.87
-1861.64
-1563.77
-1251.54
-923.117
-593.591
-290.653
-39.4551
144.55
257.076
306.241
307.304
277.641
232.357
182.206
133.683
90.0917
52.7013
21.5994
-3.70499
-23.9778
-40.0716
-52.8196
-62.9698
-71.1434
-77.7742
-83.1558
-87.4305
-90.634
-92.7466
-93.7405
-93.6246
-92.4886
-90.555
-87.9069
-84.8752
-81.7071
-78.5863
-75.6458
-72.9567
-70.539
-68.3782
-66.44
-64.6807
-63.0547
-61.5196
-60.0409
-58.5952
-57.171
-55.7677
-54.3913
-53.0497
-51.7466
-50.4787
-49.234
-48.0629
-46.9507
-13133.6
-12662.1
-12050.5
-11321.2
-10428.5
-9431.07
-8364.89
-7280.78
-6231.3
-5260.5
-4398.34
-3659.89
-3048.5
-2560.14
-2185.31
-1908.97
-1713.81
-1581.59
-1494.11
-1432.63
-1376.7
-1305.34
-1199.43
-1051.78
-876.549
-702.712
-557.176
-448.896
-372.135
-316.749
-275.318
-245.322
-223.811
-208.481
-196.062
-183.799
-170.306
-155.47
-139.966
-124.717
-110.563
-98.1443
-87.8809
-79.9892
-74.4697
-71.1242
-69.6088
-69.5145
-70.4819
-71.9943
-73.758
-75.4662
-76.8738
-77.8072
-78.164
-77.917
-77.1175
-75.9822
-74.5676
-73.0357
-71.4896
-70.0202
-68.677
-67.4683
-66.3898
-65.4298
-64.5707
-63.7868
-63.0404
-62.2816
-61.4546
-60.5068
-59.3988
-58.1107
-56.645
-55.0231
-53.2726
-51.3854
-49.3646
-47.4897
17161
16987.5
16711
16220.4
15501.9
14623.5
13647.5
12619.4
11568.2
10513.3
9471.2
8456.23
7479.96
6549.53
5666.74
4829.12
4033.59
3278.28
2567.68
1918.34
1357.06
907.594
575.672
346.083
191.966
85.6822
6.68824
-56.4675
-107.839
-147.981
-175.836
-191.24
-195.196
-189.221
-175.194
-155.43
-132.669
-109.718
-88.9059
-71.718
-58.7948
-50.1846
-45.5302
-44.1165
-44.9863
-47.1886
-50.017
-53.0791
-56.1903
-59.2408
-62.1333
-64.7635
-67.0293
-68.844
-70.1489
-70.9236
-71.1914
-71.0171
-70.4925
-69.7015
-68.7806
-67.8025
-66.9482
-66.1267
-65.3736
-64.696
-64.0631
-63.4299
-62.7358
-61.9186
-60.92
-59.6953
-58.225
-56.519
-54.6155
-52.5733
-50.4469
-48.2754
-46.1382
-44.1661
-976.984
-1154.14
-1380.55
-1585.61
-1727.72
-1755.57
-1685.12
-1546.92
-1357.45
-1121.57
-845.564
-542.585
-230.041
74.6891
357.429
607.643
818.29
985.162
1106.25
1181.69
1213.73
1206.69
1166.75
1101.54
1019.73
929.588
837.59
747.724
662.454
583.295
510.91
444.911
384.575
329.11
277.82
230.294
186.51
146.832
111.834
82.0041
57.558
38.2466
23.282
11.6464
2.33252
-5.56559
-12.6931
-19.4751
-26.1504
-32.7585
-39.2025
-45.3163
-50.9262
-55.8909
-60.1161
-63.5584
-66.2212
-68.1471
-69.4099
-70.1043
-70.3378
-70.2058
-69.6533
-68.8844
-67.9418
-66.8309
-65.5541
-64.1707
-62.5954
-60.8356
-58.9033
-56.8076
-54.5679
-52.2157
-49.796
-47.3795
-45.071
-43.0588
-41.3944
-40.0284
-8487.87
-8132.05
-7645.57
-7035.94
-6231.89
-5323.34
-4402.64
-3565.65
-2860.82
-2281.4
-1801.86
-1407.95
-1096.38
-862.689
-696.424
-583.787
-509.929
-459.209
-418.776
-380.596
-342.089
-304.304
-268.916
-236.566
-207.285
-181.391
-159.321
-140.415
-122.076
-100.884
-75.3137
-47.0993
-19.5581
4.48951
23.3818
36.591
44.3274
47.2279
46.3409
42.9455
38.1935
32.7664
26.7878
20.0901
12.5262
4.17702
-4.59594
-13.3319
-21.6617
-29.3762
-36.3999
-42.7321
-48.3996
-53.4313
-57.8485
-61.6644
-64.888
-67.5289
-69.6013
-71.1251
-72.1251
-72.6279
-72.6637
-72.2775
-71.5102
-70.3917
-68.9119
-67.0072
-64.7935
-62.3141
-59.6151
-56.7611
-53.8325
-50.9238
-48.1398
-45.5882
-43.3661
-41.5409
-40.1573
-39.16
9816.2
9731.6
9528.06
9098.72
8430.41
7602.54
6715.12
5857.91
5091.5
4446.48
3928.77
3525.21
3213.38
2967.93
2763.82
2580.05
2400.86
2214.73
2015.35
1799.09
1564.67
1314.39
1054.07
792.891
542.24
313.478
115.745
-45.0576
-165.955
-246.312
-287.858
-295.85
-278.876
-246.248
-205.877
-163.742
-123.734
-88.5874
-59.6637
-37.3063
-21.1516
-10.4635
-4.36571
-1.98081
-2.49716
-5.1928
-9.45047
-14.7572
-20.6929
-26.916
-33.1528
-39.1892
-44.8638
-50.0622
-54.7103
-58.7667
-62.2159
-65.0606
-67.3158
-69.0037
-70.1503
-70.7833
-70.9317
-70.6245
-69.8895
-68.7517
-67.2356
-65.3704
-63.2012
-60.7822
-58.1811
-55.4698
-52.733
-50.0617
-47.5465
-45.2785
-43.3348
-41.7719
-40.5841
-39.7993
-488.483
-327.85
-92.8789
152.025
388.626
533.436
583.666
568.061
516.359
447.801
373.01
297.628
224.081
152.985
84.0587
16.4924
-50.6211
-117.511
-183.234
-245.596
-301.129
-345.397
-373.193
-380.744
-367.98
-339.022
-300.591
-259.461
-220.282
-184.622
-152.39
-123.649
-99.0399
-78.6257
-62.0175
-48.7351
-38.3831
-30.4906
-24.622
-20.5619
-18.2463
-17.639
-18.6515
-21.0914
-24.6735
-29.0639
-33.9288
-38.9715
-43.9526
-48.6953
-53.0798
-57.0321
-60.5123
-63.5041
-66.0067
-68.0285
-69.5842
-70.6923
-71.374
-71.6523
-71.5515
-71.0969
-70.3141
-69.2291
-67.8677
-66.257
-64.4269
-62.4124
-60.2531
-57.9953
-55.6892
-53.3918
-51.1605
-49.0583
-47.1409
-45.4491
-44.0153
-42.849
-41.9447
-41.3005
-8337.01
-8515.36
-8711.54
-8835.98
-8867.07
-8786.07
-8611.69
-8363.9
-8058.38
-7710.96
-7341.27
-6968.74
-6599.76
-6230.33
-5844.76
-5424.55
-4953.65
-4419.77
-3814.71
-3134.39
-2386.18
-1607.24
-872.465
-263.669
178.648
467.085
638.877
727.725
757.608
746.668
708.891
653.994
589.432
520.542
450.786
382.571
317.621
257.292
202.491
153.604
110.647
73.4065
41.5265
14.5726
-7.92579
-26.4545
-41.5009
-53.5414
-63.0266
-70.3682
-75.9291
-80.0194
-82.8977
-84.7756
-85.8248
-86.1842
-85.9669
-85.2656
-84.1582
-82.7107
-80.9809
-79.0195
-76.8723
-74.5809
-72.1834
-69.7152
-67.2098
-64.6995
-62.2156
-59.7889
-57.4496
-55.2268
-53.1479
-51.236
-49.5088
-47.9764
-46.6397
-45.4898
-44.5096
-43.6798
-1198.49
-970.73
-684.789
-453.196
-273.727
-175.32
-129.504
-115.358
-106.115
-59.4394
61.2037
261.302
509.091
752.663
946.644
1071.68
1130
1131.25
1088.01
1019.67
951.007
899.937
867.868
842.75
811.448
767.746
712.001
646.604
573.939
496.597
417.454
339.653
265.624
196.82
134.433
79.2167
31.4802
-8.84213
-42.1248
-68.9874
-90.1951
-106.546
-118.776
-127.504
-133.256
-136.517
-137.766
-137.469
-136.049
-133.857
-131.155
-128.127
-124.887
-121.506
-118.025
-114.464
-110.839
-107.159
-103.438
-99.6888
-95.9298
-92.1808
-88.464
-84.8025
-81.2199
-77.7389
-74.3809
-71.1653
-68.1092
-65.2268
-62.5298
-60.0261
-57.7206
-55.614
-53.7026
-51.9776
-50.4257
-49.0291
-47.7632
-46.604
7429.95
7353.3
7274.67
7168.65
7010.22
6802.62
6557.15
6285.28
5996.68
5698.6
5387.72
5050.17
4674.03
4258.67
3817.11
3366.23
2920.15
2489.55
2082.79
1703.91
1357.18
1043.88
763.515
513.875
292.772
99.6846
-66.342
-209.352
-334.059
-441.427
-529.521
-597.062
-644.077
-671.021
-678.795
-668.865
-643.292
-604.861
-557.045
-503.809
-449.232
-397.031
-350.087
-310.058
-277.286
-251.099
-230.31
-213.667
-200.083
-188.709
-178.908
-170.221
-162.321
-154.981
-148.049
-141.425
-135.046
-128.876
-122.898
-117.111
-111.518
-106.131
-100.964
-96.0284
-91.3373
-86.8997
-82.7216
-78.8061
-75.1525
-71.7574
-68.6146
-65.7155
-63.049
-60.6023
-58.3604
-56.3069
-54.4239
-52.692
-51.0876
-49.6073
1868.53
1771.25
1603.1
1322.45
897.686
346.726
-291.375
-963.291
-1617.14
-2201.4
-2673.6
-3010.62
-3209.16
-3282.24
-3255.28
-3156.87
-3009.33
-2825.57
-2612.59
-2376.16
-2124.71
-1869.62
-1626.54
-1412.06
-1236.51
-1099.44
-992.335
-905.29
-830.725
-764.206
-703.905
-649.562
-601.239
-559.009
-522.866
-492.109
-465.288
-440.826
-417.727
-395.737
-375
-355.618
-337.48
-320.354
-303.999
-288.247
-273.031
-258.366
-244.313
-230.933
-218.262
-206.307
-195.047
-184.443
-174.445
-165.003
-156.069
-147.603
-139.576
-131.968
-124.768
-117.971
-111.574
-105.574
-99.9664
-94.7446
-89.8969
-85.4082
-81.2607
-77.4341
-73.9068
-70.6569
-67.6627
-64.9029
-62.3571
-60.0058
-57.8305
-55.8121
-53.9319
-52.1974
-5977.23
-5880.72
-5771.03
-5634.06
-5420.57
-5096.61
-4654.42
-4136.25
-3609.74
-3131.51
-2732.33
-2419.6
-2184.85
-2011.26
-1879.68
-1774.39
-1682.81
-1595.72
-1505.79
-1407.99
-1301.41
-1189.9
-1081.01
-983.292
-898.836
-828.434
-769.655
-719.794
-676.14
-636.336
-599.051
-564.163
-532.478
-505.05
-482.032
-462.209
-443.957
-426.182
-408.428
-390.706
-373.297
-356.513
-340.449
-325.109
-310.392
-296.164
-282.321
-268.821
-255.663
-242.876
-230.495
-218.556
-207.083
-196.089
-185.575
-175.533
-165.949
-156.81
-148.105
-139.832
-131.994
-124.597
-117.649
-111.155
-105.112
-99.5132
-94.3414
-89.5746
-85.1857
-81.1447
-77.421
-73.985
-70.8088
-67.8674
-65.1384
-62.6015
-60.239
-58.0332
-55.9696
-54.0531
-5252.15
-5022.86
-4682.13
-4227.7
-3653.32
-3069.55
-2543.11
-2099.53
-1742.71
-1486.09
-1348.98
-1329.58
-1395.13
-1499.65
-1604.08
-1689.74
-1755.63
-1801.7
-1817.01
-1780.69
-1673.84
-1499.42
-1292.26
-1102.05
-961.671
-873.791
-823.567
-799.016
-789.823
-788.823
-789.606
-786.7
-775.959
-754.627
-721.654
-678.381
-628.272
-575.653
-524.593
-477.749
-436.366
-400.617
-370.031
-343.852
-321.269
-301.536
-284.017
-268.25
-253.85
-240.541
-228.125
-216.455
-205.418
-194.931
-184.925
-175.346
-166.157
-157.333
-148.864
-140.755
-133.026
-125.699
-118.797
-112.339
-106.333
-100.775
-95.6507
-90.9344
-86.5948
-82.5963
-78.9033
-75.482
-72.3022
-69.3384
-66.5688
-63.9755
-61.543
-59.2569
-57.1054
-55.0925
5581.31
5383.34
5108.65
4741.05
4264.57
3732.22
3162.15
2560.94
1937.57
1311.57
713.703
180.641
-255.849
-583.824
-822.406
-1004.82
-1160.6
-1302.05
-1420.2
-1487.88
-1466.49
-1326.55
-1086.41
-817.855
-594.324
-442.264
-349.77
-298.842
-276.381
-271.052
-272.971
-275.447
-275.585
-273.633
-271.422
-270.176
-270.068
-270.822
-271.704
-272.064
-271.49
-269.759
-266.777
-262.56
-257.204
-250.857
-243.697
-235.905
-227.652
-219.09
-210.349
-201.536
-192.737
-184.018
-175.429
-167.008
-158.784
-150.784
-143.038
-135.579
-128.443
-121.667
-115.283
-109.313
-103.767
-98.6407
-93.9163
-89.5659
-85.5542
-81.8429
-78.395
-75.1767
-72.1597
-69.3211
-66.6434
-64.1129
-61.7188
-59.4513
-57.3036
-55.2805
-535.039
-321.952
-62.4466
185.771
446.471
676.125
877.432
1054.09
1203.5
1321.88
1410.65
1480.36
1545.86
1612.26
1665.13
1669.83
1595.71
1447.27
1263.5
1087.84
944.563
834.075
744.018
662.721
584.688
508.339
432.91
357.118
279.976
202.639
127.935
58.8737
-2.36871
-54.7471
-98.0643
-132.78
-159.805
-180.247
-195.228
-205.763
-212.73
-216.854
-218.717
-218.77
-217.363
-214.764
-211.18
-206.775
-201.683
-196.011
-189.853
-183.297
-176.425
-169.323
-162.078
-154.78
-147.515
-140.367
-133.411
-126.715
-120.336
-114.317
-108.685
-103.452
-98.6142
-94.1527
-90.0388
-86.2365
-82.7074
-79.4141
-76.3235
-73.4077
-70.6449
-68.0184
-65.5162
-63.1299
-60.8534
-58.6813
-56.6113
-54.6484
-5079.62
-5035.66
-4988.15
-4940.09
-4908.04
-4908.88
-4929.49
-4932.61
-4881.68
-4761.96
-4581.54
-4356.22
-4095.07
-3801.77
-3482.73
-3149.41
-2814.5
-2487.71
-2174.93
-1881.1
-1612.72
-1376.71
-1177.26
-1016
-891.561
-799.308
-732.442
-683.591
-646.206
-615.094
-586.758
-558.931
-530.294
-500.334
-469.097
-437.02
-404.784
-373.182
-343.01
-314.982
-289.662
-267.415
-248.385
-232.49
-219.447
-208.819
-200.084
-192.706
-186.191
-180.128
-174.202
-168.203
-162.013
-155.602
-149.004
-142.304
-135.615
-129.053
-122.726
-116.72
-111.095
-105.883
-101.086
-96.6843
-92.643
-88.9156
-85.4528
-82.2085
-79.1444
-76.2329
-73.4561
-70.8031
-68.2664
-65.8398
-63.5171
-61.2927
-59.162
-57.1206
-55.1674
-53.3062
1277.56
1216.18
1135.37
1032.79
875.826
688.844
482.335
265.224
50.8733
-144.53
-312.232
-451.417
-564.57
-655.004
-725.977
-780.77
-823.052
-856.959
-886.583
-914.94
-942.8
-968.205
-987.207
-995.179
-988.583
-966.086
-928.458
-878.039
-818.048
-752.3
-684.62
-618.261
-555.563
-497.972
-446.155
-400.154
-359.615
-324.019
-292.855
-265.705
-242.269
-222.319
-205.636
-191.952
-180.915
-172.103
-165.06
-159.341
-154.536
-150.282
-146.273
-142.264
-138.087
-133.656
-128.967
-124.082
-119.113
-114.188
-109.427
-104.923
-100.731
-96.8674
-93.3147
-90.0303
-86.957
-84.0343
-81.2077
-78.4384
-75.7082
-73.0208
-70.3952
-67.8561
-65.423
-63.1056
-60.9031
-58.8085
-56.8125
-54.9065
-53.0853
-51.349
3804.75
3677.18
3502.18
3277.99
3006.02
2729.66
2459.33
2192.26
1931.33
1689.18
1477.35
1298.36
1146.58
1014.41
895.932
787.645
687.818
595.306
508.716
426.18
345.652
267.248
193.866
129.754
78.7255
42.6728
21.0888
11.3571
9.51884
11.7918
14.7848
16.0055
14.4164
9.6972
1.99022
-8.27554
-20.474
-33.873
-47.741
-61.3819
-74.1541
-85.4634
-94.7715
-101.661
-105.953
-107.827
-107.841
-106.795
-105.462
-104.358
-103.627
-103.119
-102.571
-101.753
-100.552
-98.9689
-97.0876
-95.0262
-92.8995
-90.7939
-88.7561
-86.7941
-84.8842
-82.9814
-81.0309
-78.9795
-76.7892
-74.4482
-71.9775
-69.4291
-66.8729
-64.3787
-61.9984
-59.7581
-57.6607
-55.6945
-53.8424
-52.0883
-50.4213
-48.8353
-8803.97
-8499.15
-8075.34
-7523.88
-6821.46
-6040.98
-5243.98
-4483.85
-3788.1
-3157.3
-2578.86
-2042.73
-1549.82
-1111.16
-740.019
-448.366
-245.793
-137.013
-115.566
-159.155
-231.646
-293.863
-312.973
-275.984
-193.303
-90.8773
5.00018
78.7947
126.44
149.809
152.92
140.41
116.734
86.4393
53.7935
22.2881
-6.06141
-29.9257
-48.9361
-63.3043
-73.5535
-80.2959
-84.0408
-85.1717
-84.0787
-81.3065
-77.6585
-74.0138
-71.1521
-69.5251
-69.1774
-69.8381
-71.0964
-72.5571
-73.9285
-75.0452
-75.8474
-76.3435
-76.5731
-76.5794
-76.3931
-76.0249
-75.4649
-74.6865
-73.6545
-72.3363
-70.7167
-68.8104
-66.6695
-64.3782
-62.0369
-59.7395
-57.5534
-55.5121
-53.6197
-51.862
-50.2184
-48.6699
-47.2027
-45.8066
-7275.39
-6880.04
-6367.47
-5845.57
-5312.55
-4826.73
-4367.7
-3920.07
-3482.41
-3061.7
-2666.99
-2305.52
-1980.48
-1689.57
-1426.73
-1185.76
-963.675
-762.775
-590.38
-454.908
-360.195
-303.436
-276.174
-268.678
-272.425
-281.045
-290.284
-297.371
-300.842
-300.157
-295.308
-286.568
-274.339
-259.058
-241.173
-221.133
-199.424
-176.595
-153.22
-129.876
-107.124
-85.5033
-65.5347
-47.7369
-32.5744
-20.3167
-10.9419
-4.15832
0.504705
3.57345
5.52152
6.72917
7.47466
7.94766
8.26961
8.51312
8.71902
8.91029
9.10276
9.31185
9.55485
9.84928
10.2096
10.6453
11.1497
11.7052
12.2851
12.8557
13.3818
13.8327
14.1849
14.4241
14.5441
14.5454
14.4339
14.2194
13.9141
13.5283
13.0749
12.5795
-1991.22
-1906.74
-1762.49
-1560.34
-1328.29
-1107.51
-913.996
-748.853
-605.495
-474.864
-347.811
-217.409
-84.6239
33.8056
111.462
138.784
141.038
162.312
233.305
349.861
481.005
596.321
678.647
726.553
745.437
741.482
720.11
685.871
642.701
593.987
542.417
490.013
438.21
388.169
340.797
296.825
256.8
221.031
189.562
162.184
138.508
118.062
100.393
85.1389
72.0485
60.9543
51.716
44.168
38.1025
33.2832
29.4742
26.4636
24.0739
22.1642
20.6244
19.3684
18.3307
17.4635
16.7363
16.1345
15.6553
15.3023
15.0768
14.9494
14.9312
14.9929
15.0935
15.1934
15.2554
15.2489
15.1526
14.9549
14.6536
14.2534
13.7646
13.2016
12.5799
11.9106
11.2125
10.5279
11734.6
11546.9
11343.6
11073.5
10639.8
10087.5
9415.14
8618.39
7694.16
6642.73
5516.97
4462.07
3649.35
3131.2
2811.25
2579.46
2401.2
2272.57
2173.75
2081.26
1983.17
1878.46
1769.3
1656.03
1538.43
1415.94
1289.33
1160.79
1033.45
910.787
795.902
690.899
597.013
514.977
443.884
382.732
330.384
285.638
247.363
214.569
186.414
162.176
141.223
123.004
107.053
92.9892
80.5813
69.6482
60.0906
51.8433
44.8426
39.0087
34.2387
30.4075
27.3745
24.9932
23.1219
21.6376
20.4506
19.5101
18.7879
18.2624
17.9751
17.8528
17.8069
17.7723
17.6901
17.5134
17.2153
16.7868
16.2309
15.5591
14.7884
13.9369
13.0248
12.0734
11.1021
10.1233
9.16263
8.2831
-923.043
-342.1
380.323
977.484
1472.37
1907.87
2364.2
2831.36
3267.36
3640.86
3945.04
4184.01
4341.1
4378.98
4276.64
4050.61
3739.05
3378.46
2996.22
2613.33
2247.23
1911.72
1615.92
1364.21
1154.64
981.843
838.443
717
611.692
519.291
438.727
369.617
311.352
262.67
223.075
191.52
167.068
148.379
133.97
122.551
113.037
104.568
96.5606
88.6951
80.8648
73.1003
65.507
58.2225
51.3925
45.157
39.6424
34.9506
31.1463
28.2423
26.1894
24.8736
24.1325
23.664
23.2572
22.9187
22.6192
22.3796
22.1467
21.9322
21.6509
21.2098
20.609
19.8771
19.0097
18.0176
16.9064
15.7099
14.4486
13.1432
11.815
10.4868
9.17973
7.90771
6.70438
5.65386
-1826.24
-1975.96
-2140.11
-2293.75
-2470.81
-2672.25
-2901.81
-3162.25
-3458.76
-3789.28
-4137.61
-4480.47
-4797.37
-5073.71
-5293.89
-5435.7
-5476.63
-5406.05
-5230.66
-4970.14
-4648.36
-4284.84
-3890.45
-3470.18
-3029.4
-2578.17
-2131.07
-1704.01
-1311.39
-964.339
-669.523
-429.397
-242.819
-105.122
-9.06617
54.5089
93.8707
115.692
125.04
125.762
120.731
112.039
101.181
89.2277
76.9549
64.9368
53.606
43.2947
34.2639
26.7216
20.827
16.6795
14.2939
13.5707
14.256
15.8955
17.8543
19.6438
20.9301
21.5723
21.8265
22.0545
22.4629
23.0091
23.4907
23.6756
23.3736
22.5311
21.2417
19.6291
17.8251
15.9147
13.9693
12.039
10.1675
8.38448
6.70717
5.14224
3.71982
2.53069
-10689.8
-10423.6
-10087.5
-9696.68
-9250.98
-8794.21
-8352.98
-7944.33
-7560.99
-7169.64
-6727.88
-6207.9
-5607.06
-4939.68
-4227.86
-3501.73
-2800.06
-2164.64
-1628.32
-1208
-902.944
-698.508
-572.785
-503.096
-469.741
-457.043
-452.945
-448.647
-438.565
-419.999
-392.88
-358.931
-320.465
-279.742
-238.165
-196.959
-157.388
-120.599
-87.6277
-59.243
-35.8415
-17.4409
-3.7268
5.8618
12.0316
15.5361
17.0981
17.3642
16.8924
16.1597
15.5707
15.4449
15.9796
17.2145
18.9667
21.1369
22.9458
24.089
24.5415
24.6624
24.4988
24.2575
23.9954
23.6467
23.1077
22.3069
21.2129
19.8325
18.207
16.3977
14.4688
12.4668
10.453
8.466
6.53683
4.69517
2.96654
1.36454
-0.0744972
-1.25176
6645.49
6572.03
6509.79
6428.21
6279.62
6069.33
5817.94
5563.26
5352.86
5224.64
5187.49
5216.44
5263.92
5276.41
5209
5036.17
4755.14
4383.4
3950.56
3492.57
3045.84
2638.85
2283.29
1976.37
1707.5
1467
1249.3
1052.13
874.846
717.304
579.276
460.248
359.423
275.417
206.439
150.835
107.324
74.727
51.3561
35.7384
26.3986
21.8852
20.8569
22.1409
24.7658
27.9708
31.2022
34.0965
36.4572
38.2267
39.4522
40.2409
40.7019
40.8829
40.736
39.8147
38.2336
35.8898
32.9312
29.5946
26.5826
24.173
22.3588
20.939
19.6613
18.3366
16.8681
15.2316
13.4419
11.5458
9.58151
7.58796
5.60128
3.65435
1.77873
0.00270976
-1.65003
-3.16549
-4.50908
-5.58384
9620.92
9422.67
9197.65
8915.49
8516.93
8008.61
7394.67
6703.29
5988.79
5313.4
4722.36
4225.32
3804.21
3431.59
3082.2
2738.24
2393.16
2051.35
1722.59
1416.61
1141.35
901.63
698.659
530.894
395.544
289.477
209.556
152.472
114.239
90.3497
75.933
66.8378
60.1258
54.0922
48.002
41.7772
35.6301
29.7661
24.9917
21.5157
19.4599
18.8649
19.6298
21.5401
24.3214
27.6077
31.0794
34.422
37.3609
39.6743
41.1941
41.8077
41.4622
40.1806
38.0871
35.4038
32.4214
29.4022
26.5326
23.9082
21.5716
19.5089
17.6619
15.9448
14.273
12.5845
10.8462
9.04978
7.20272
5.32151
3.42624
1.53891
-0.317374
-2.11857
-3.83953
-5.45446
-6.94326
-8.29293
-9.47354
-10.3928
-2299.64
-2212.75
-2071.86
-1887.05
-1713.18
-1660.91
-1792.91
-2095.39
-2474.65
-2811.9
-3022.98
-3090.41
-3047.7
-2941.86
-2801.68
-2627.69
-2411.56
-2159.53
-1891.65
-1626.22
-1374.2
-1142.07
-935.224
-757.877
-611.897
-495.988
-406.148
-336.652
-281.696
-236.568
-197.999
-164.036
-133.924
-107.301
-83.9423
-63.6972
-46.3969
-31.8153
-19.8048
-10.0355
-2.07966
4.42745
9.79607
14.2702
18.0213
21.154
23.719
25.728
27.1726
28.0429
28.3437
28.1046
27.3825
26.2552
24.8105
23.1376
21.3216
19.4418
17.5628
15.7276
13.9538
12.2374
10.5591
8.89415
7.22074
5.52502
3.80195
2.05386
0.288271
-1.48367
-3.24794
-4.98797
-6.68495
-8.3183
-9.86609
-11.3063
-12.6206
-13.798
-14.8146
-15.5851
-12641.1
-11872.2
-10979.2
-10181.7
-9369.39
-8572.34
-7790.27
-7047.22
-6352.9
-5705.24
-5107.44
-4566.47
-4087.78
-3670.59
-3306.26
-2984.72
-2699.94
-2446.03
-2215.01
-1998.06
-1787.94
-1580.27
-1374.06
-1171.9
-977.321
-794.501
-627.371
-479.111
-351.523
-245.294
-160.131
-94.8667
-47.2
-14.2529
7.07818
19.8137
26.6118
29.5502
30.1498
29.6611
28.7503
27.7571
26.859
26.1145
25.4797
24.8797
24.2428
23.5093
22.6349
21.5943
20.381
19.0064
17.4959
15.8845
14.2114
12.5156
10.8323
9.18885
7.60321
6.08179
4.62007
3.20421
1.81471
0.430755
-0.966049
-2.38923
-3.84647
-5.33951
-6.8643
-8.41158
-9.96752
-11.5143
-13.0313
-14.4961
-15.8859
-17.1784
-18.3549
-19.4033
-20.305
-20.9896
2087.69
1803.27
1307.3
675.767
54.3889
-305.239
-402.912
-355.369
-241.023
-82.0389
112.419
329.218
554.954
777.436
982.333
1148.4
1253.69
1292.8
1280.05
1236.24
1177.69
1112.39
1042.03
966.7
886.242
801.815
715.485
629.902
547.352
469.687
398.395
334.585
278.769
230.88
190.423
156.603
128.556
105.621
87.1267
72.3747
60.7645
51.7369
44.7234
39.1818
34.642
30.6995
27.079
23.7301
20.547
17.4487
14.4049
11.4247
8.54437
5.81383
3.28344
0.993857
-1.0303
-2.78278
-4.27478
-5.53302
-6.59674
-7.51387
-8.33661
-9.11683
-9.90201
-10.7318
-11.6358
-12.632
-13.7262
-14.9121
-16.1725
-17.4828
-18.813
-20.1319
-21.4088
-22.6157
-23.7275
-24.7245
-25.5788
-26.2394
13659
13576.6
13485.4
13332.2
13049.2
12673.9
12217
11672.1
11032.8
10306.3
9514.34
8685.4
7850.07
7034.94
6259.27
5532.7
4868.25
4281.86
3785.54
3373.28
3017.42
2682.08
2346.41
2012.04
1688.81
1384.84
1105.39
855.353
639.615
461.016
319.211
210.762
130.085
70.8882
27.6379
-3.60234
-25.3328
-39.2931
-46.626
-48.2623
-45.4603
-39.8829
-32.8591
-25.5577
-18.9595
-13.7704
-10.1454
-8.06226
-7.31874
-7.93444
-9.56193
-11.7648
-14.1538
-16.4343
-18.4291
-20.0504
-21.2714
-22.1013
-22.561
-22.6863
-22.5294
-22.1584
-21.654
-21.1043
-20.5973
-20.2124
-20.0144
-20.0494
-20.34
-20.8834
-21.6541
-22.6095
-23.6978
-24.8652
-26.0611
-27.24
-28.3621
-29.3906
-30.2808
-30.9788
-426.061
-565.131
-826.754
-1232.21
-1824.19
-2468.5
-3060.89
-3529.1
-3842.58
-3998.63
-4005.76
-3879.61
-3645.52
-3340.44
-3003.76
-2664.91
-2338.77
-2030.81
-1747.82
-1502.27
-1303.17
-1145.62
-1009.92
-873.647
-725.064
-567.797
-413.091
-271.733
-151.262
-55.7354
14.1688
60.249
85.614
94.3657
91.084
80.1917
65.6318
50.4614
36.6662
24.9713
15.8437
9.62591
5.77365
3.54516
2.24843
1.30074
0.0655982
-2.08571
-4.70849
-7.5412
-10.7568
-14.3831
-18.2736
-22.2129
-25.956
-29.2592
-31.917
-33.7936
-34.838
-35.0833
-34.636
-33.654
-32.3195
-30.8159
-29.3108
-27.944
-26.8236
-26.0265
-25.5984
-25.5524
-25.8694
-26.5028
-27.388
-28.453
-29.6277
-30.848
-32.0561
-33.1985
-34.2162
-35.04
-17133.6
-16625.9
-16028.5
-15384.8
-14675.9
-13863.7
-12890.5
-11729.8
-10394.7
-8929.92
-7418.23
-5990.47
-4802.34
-3949.5
-3415.15
-3105.74
-2938.07
-2874.12
-2895.19
-2972.35
-3061.33
-3114.33
-3095.71
-2991.35
-2808.12
-2565.75
-2286.98
-1992.53
-1699.42
-1420.45
-1164.42
-937.486
-742.829
-581.167
-451.047
-349.471
-272.226
-214.967
-173.812
-144.89
-125.056
-112.044
-103.951
-99.2326
-96.6514
-95.1391
-93.7301
-91.5301
-88.9207
-85.4528
-81.0672
-76.0153
-70.657
-65.3767
-60.5109
-56.2914
-52.8016
-49.9762
-47.6435
-45.5942
-43.6469
-41.6894
-39.6881
-37.6727
-35.712
-33.8911
-32.2978
-31.0134
-30.1027
-29.6042
-29.5222
-29.8281
-30.4681
-31.3748
-32.4752
-33.6955
-34.9611
-36.198
-37.3288
-38.2713
7862.3
7709.17
7537.58
7325.84
7050.96
6780.92
6541.13
6327.85
6104.83
5808.56
5374.38
4767.71
4005.71
3151.56
2285.1
1469.91
739.285
104.167
-429.772
-849.126
-1135.14
-1281
-1305.57
-1246.39
-1141.23
-1016.28
-886.201
-759.274
-641.049
-535.629
-444.859
-369.647
-310.358
-266.114
-235.053
-214.768
-202.673
-196.331
-193.673
-193.089
-193.448
-193.985
-194.128
-193.366
-191.258
-187.429
-181.604
-173.695
-163.584
-151.836
-138.856
-125.228
-111.681
-98.9197
-87.5137
-77.8089
-69.8918
-63.6202
-58.7019
-54.7914
-51.5713
-48.7998
-46.3224
-44.0585
-41.9801
-40.0922
-38.418
-36.9895
-35.8426
-35.0107
-34.5179
-34.373
-34.5658
-35.0671
-35.8291
-36.787
-37.8619
-38.9663
-40.0117
-40.8789
4514.1
4740.74
5027.7
5208.38
5273.21
5265.73
5271.78
5321.5
5414.06
5532.38
5649.36
5740.98
5792.22
5794.26
5742.83
5638.92
5487.77
5294.47
5058.74
4772.12
4422.84
4009.21
3549.25
3075.33
2617.72
2196.5
1819.83
1487.8
1196.71
941.887
718.767
524.961
359.169
220.528
108.197
20.8846
-43.4269
-87.7126
-115.909
-132.525
-141.92
-147.529
-151.405
-154.263
-155.93
-155.853
-153.534
-148.796
-141.817
-132.667
-122.206
-111.106
-100.015
-89.534
-80.1284
-72.0854
-65.5088
-60.3423
-56.4156
-53.4974
-51.3425
-49.7235
-48.4483
-47.3658
-46.3667
-45.3807
-44.3764
-43.3582
-42.3606
-41.4385
-40.6562
-40.0755
-39.7443
-39.688
-39.9029
-40.3551
-40.9832
-41.705
-42.4401
-43.0383
1548.76
1396.23
1252.34
1157.43
1058.27
1021.02
1104.97
1332.87
1656.78
1991.63
2266.83
2440.98
2494.83
2429.65
2267.38
2044.3
1799.2
1562.15
1349.38
1164.15
1002.07
857.071
725.633
607.744
505.257
419.663
350.827
296.88
254.936
221.869
194.729
171.165
149.574
129.01
109.046
89.6294
70.8551
52.8072
35.5206
19.0326
3.45458
-11.0017
-24.063
-35.4694
-45.0405
-52.7055
-58.4931
-62.5029
-64.8977
-66.1992
-66.3916
-65.7394
-64.5383
-63.0157
-61.3849
-59.8009
-58.3475
-57.0591
-55.9323
-54.9398
-54.0461
-53.2153
-52.4147
-51.6159
-50.7939
-49.9295
-49.0128
-48.0481
-47.057
-46.0781
-45.163
-44.3684
-43.7458
-43.3319
-43.1401
-43.157
-43.3445
-43.6397
-43.9911
-44.2396
3152.13
3065.9
2968.32
2815.74
2542.42
2088.38
1433.83
607.811
-330.788
-1316.59
-2284.93
-3164.85
-3880.03
-4376.84
-4649.99
-4737.09
-4686.26
-4532.57
-4297.08
-3994.13
-3635.51
-3235.39
-2812.27
-2389.1
-1988.66
-1627.91
-1315.19
-1050.34
-829.999
-648.959
-501.816
-383.583
-289.777
-216.392
-159.879
-117.141
-85.5129
-62.7533
-47.0106
-36.7714
-30.7959
-28.0552
-27.6851
-28.9582
-31.2732
-34.1532
-37.2416
-40.2925
-43.1517
-45.7339
-47.9917
-49.9149
-51.5118
-52.8085
-53.8068
-54.5229
-54.9404
-55.1341
-55.1279
-54.952
-54.6419
-54.2293
-53.7381
-53.1834
-52.5724
-51.9084
-51.1944
-50.4363
-49.6452
-48.8388
-48.0424
-47.2868
-46.6045
-46.0238
-45.5624
-45.2229
-44.9928
-44.8369
-44.7362
-44.5473
-17734.2
-16939.9
-15947.2
-14879.6
-13743.8
-12630.9
-11551.3
-10488.6
-9398.4
-8212.91
-6866.78
-5341.18
-3714.84
-2173.91
-935.343
-115.113
320.265
484.79
486.955
399.722
271.467
138.374
24.8524
-58.6643
-114.16
-148.615
-168.127
-176.665
-177.012
-172.006
-164.35
-156.124
-148.579
-142.204
-136.928
-132.355
-128
-123.462
-118.515
-113.125
-107.407
-101.563
-95.825
-90.4051
-85.4724
-81.1392
-77.4618
-74.4456
-72.054
-70.2177
-68.8445
-67.8283
-67.0596
-66.4331
-65.8566
-65.2549
-64.6119
-63.845
-62.9149
-61.853
-60.6868
-59.441
-58.1555
-56.8807
-55.6642
-54.5376
-53.5091
-52.5664
-51.685
-50.8394
-50.0116
-49.1949
-48.3943
-47.6225
-46.895
-46.224
-45.616
-45.0611
-44.5609
-44.0281
10105.8
9881.44
9530.28
8989.43
8231.52
7434.71
6710.76
6110.2
5627.5
5218.69
4825.67
4389.54
3864.21
3234.59
2531.91
1826.6
1197.19
697.502
342.704
118.208
-2.2813
-44.8419
-35.3893
-2.68475
26.8565
38.515
31.9249
15.0081
-4.67018
-23.3376
-40.4771
-56.9675
-73.576
-90.2289
-105.991
-119.527
-129.685
-135.893
-138.255
-137.387
-134.165
-129.492
-124.159
-118.778
-113.772
-109.397
-105.758
-102.849
-100.569
-98.7576
-97.2198
-95.7529
-94.1738
-92.345
-90.1915
-87.661
-85.0116
-82.0565
-79.0157
-76.0222
-73.1264
-70.3693
-67.7783
-65.3723
-63.1629
-61.1492
-59.3156
-57.6333
-56.0681
-54.5886
-53.1725
-51.8104
-50.5053
-49.2695
-48.1185
-47.0647
-46.1113
-45.2447
-44.4307
-43.5985
11.6188
10.153
8.62218
6.99978
5.2178
3.25499
1.07641
-1.3393
-4.01308
-6.94665
-10.0951
-13.3569
-16.6293
-19.6383
-22.2407
-24.2552
-25.5239
-25.8981
-25.2086
-23.3777
-20.5576
-17.1957
-13.8599
-10.9709
-8.68169
-6.94076
-5.62169
-4.60892
-3.82599
-3.23108
-2.80176
-2.52189
-2.37568
-2.34708
-2.42116
-2.58545
-2.83051
-3.1498
-3.53941
-3.99758
-4.52437
-5.12144
-5.79222
-6.54231
-7.38001
-8.31655
-9.36577
-10.5428
-11.8613
-13.3292
-14.9425
-16.6797
-18.4976
-20.3313
-22.0994
-23.7118
-25.0783
-26.1177
-26.766
-26.9836
-26.7607
-26.1159
-25.0945
-23.7651
-22.21
-20.5109
-18.7367
-16.94
-15.161
-13.4325
-11.7815
-10.229
-8.78711
-7.45909
-6.24061
-5.12341
-4.09892
-3.16105
-2.30726
-1.5381
-0.855043
-0.257789
0.257534
0.697918
1.0717
1.38731
1.65318
1.87796
2.07016
2.23745
2.38606
2.5206
2.64435
2.75949
2.8675
2.96933
3.06557
3.15658
3.24262
3.32383
3.40031
3.47209
3.53921
3.60168
3.65958
3.713
3.76198
3.8066
3.84688
3.88308
3.91541
3.94405
3.96917
3.99096
4.00958
4.02523
4.03806
4.04819
4.0557
4.06068
4.0632
4.0633
4.06096
4.05615
4.04884
4.03898
4.0265
4.0113
3.99322
3.97204
3.94756
3.91953
3.88767
3.85163
3.81096
3.76517
3.71375
3.65624
3.59232
3.52189
3.44513
3.36255
3.27495
3.18326
3.08832
2.99063
2.8902
2.78645
2.67827
2.56417
2.44242
2.3112
2.16882
2.01375
1.8447
1.66064
1.46082
1.24473
1.01213
0.763106
0.498082
0.217886
-0.0762408
-0.382605
-0.699041
-1.02288
-1.35097
-1.67968
-2.00498
-2.32256
-2.62794
-2.91662
-3.18421
-3.42656
-3.63993
-3.82106
-3.96734
-4.07684
-4.14843
-4.1817
-4.177
-4.13535
-4.0584
-3.94832
-3.80771
-3.63953
-3.44694
-3.23323
-3.00172
-2.75562
-2.49805
-2.23192
-1.96002
-1.68476
-1.40889
-1.13357
-0.863454
-0.593631
-0.343814
-0.0739012
9.32367
7.78229
6.37676
5.00901
3.54088
1.92422
0.114479
-1.91667
-4.19319
-6.72451