/*--------------------------------*- C++ -*----------------------------------*\
| =========                 |                                                 |
| \\      /  F ield         | OpenFOAM: The Open Source CFD Toolbox           |
|  \\    /   O peration     | Version:  2012                                  |
|   \\  /    A nd           | Website:  www.openfoam.com                      |
|    \\/     M anipulation  |                                                 |
\*---------------------------------------------------------------------------*/
FoamFile
{
    version     2.0;
    format      ascii;
    class       surfaceScalarField;
    location    "0.49";
    object      phi;
}
// * * * * * * * * * * * * * * * * * * * * * * * * * * * * * * * * * * * * * //

dimensions      [0 3 -1 0 0 0 0];
oriented        oriented;


internalField   nonuniform List<scalar> 
84340
(
-0.000319938
-2.39572e-05
0.000343895
-0.000905901
-0.000464371
0.00105033
-0.00143747
-0.00105753
0.0015891
-0.00181515
-0.0013403
0.00171798
-0.0021146
-0.00121849
0.00151795
-0.00237839
-0.000930174
0.00119397
-0.00263834
-0.000649678
0.000909627
-0.00290982
-0.000427717
0.000699191
-0.00319934
-0.000247462
0.000536985
-0.00349641
-9.04094e-05
0.000387483
-0.00377939
5.39066e-05
0.000229075
-0.00401487
0.000190445
4.50371e-05
-0.0041608
0.000320636
-0.000174713
-0.00417708
0.000443772
-0.00042749
-0.00404057
0.000558641
-0.000695154
-0.0037525
0.00066488
-0.000952946
-0.00333057
0.000763068
-0.001185
-0.00279376
0.000853953
-0.00139076
-0.002156
0.000936763
-0.00157452
-0.00144321
0.00100779
-0.00172057
-0.000733256
0.00105734
-0.0017673
-0.000174808
0.00106898
-0.00162743
7.16435e-05
0.00102175
-0.0012682
-3.83104e-05
0.000878426
-0.000768472
-0.000403932
0.000637188
-0.000271567
-0.000839921
0.000311714
0.000124275
-0.00116167
-8.19066e-05
0.000403651
-0.00129081
-0.000476072
0.000605217
-0.00125521
-0.000791494
0.000755891
-0.00111614
-0.00100376
0.000864694
-0.0009339
-0.00111286
0.000930624
-0.000750908
-0.00113774
0.000954749
-0.000587383
-0.00110944
0.000945918
-0.00044658
-0.00106012
0.000919314
-0.000324131
-0.0010131
0.000890652
-0.000214895
-0.000979349
0.000870113
-0.000115667
-0.000959364
0.000860135
-2.49429e-05
-0.000948151
0.000857427
5.83555e-05
-0.000940031
0.000856732
0.000135896
-0.000931229
0.000853689
0.000210295
-0.000920259
0.00084586
0.000284908
-0.000907063
0.00083245
0.000363338
-0.00089197
0.000813539
0.000448812
-0.000874882
0.000789408
0.000543577
-0.000854923
0.000760158
0.000648478
-0.000830499
0.000725598
0.000762849
-0.000799659
0.000685288
0.000884673
-0.000760527
0.000638701
0.00101096
-0.000711679
0.000585395
0.00113802
-0.000652222
0.000525156
0.00126182
-0.00058192
0.00045812
0.00137818
-0.000501234
0.000384874
0.00148268
-0.000411103
0.000306605
0.0015708
-0.000313589
0.000225473
0.00163799
-0.000211215
0.000144017
0.00168065
-0.00010803
6.53782e-05
0.00170621
-9.74312e-06
-1.58218e-05
0.00171091
8.11215e-05
-8.58172e-05
0.00169788
0.000160673
-0.000147642
0.00167247
0.000227048
-0.000201645
0.00164118
0.000280168
-0.000248876
0.00161014
0.000321411
-0.000290374
0.00158389
0.000352948
-0.000326694
0.00156471
0.000377123
-0.000357941
0.00155283
0.000396058
-0.000384179
0.00154723
0.000411448
-0.000405849
0.00154666
0.000424391
-0.00042382
0.00155043
0.000435247
-0.000439017
0.00155873
0.00044357
-0.000451871
0.00157247
0.00044815
-0.00046189
0.00159282
0.000447185
-0.000467537
0.00162074
0.000438522
-0.000466442
0.00165663
0.000419929
-0.00045582
0.00170027
0.000389307
-0.000432942
0.00175079
0.00034499
-0.000395512
0.00180716
0.000285553
-0.00034192
0.00186819
0.000210373
-0.000271406
0.00193371
0.000118741
-0.000184258
0.00200001
1.46499e-05
-8.09534e-05
-9.85004e-05
2.92955e-05
0.00206922
-0.000262858
0.000238901
-0.0011778
0.000450575
-0.00271353
0.000478196
-0.00449856
0.000444727
-0.00614276
0.000425709
-0.00749952
0.000426585
-0.00856827
0.000419074
-0.00937423
0.000378245
-0.00991709
0.000295398
-0.0101771
0.000169622
-0.0101363
1.30774e-05
-0.00978947
-0.000156382
-0.00914637
-0.000322457
-0.00822961
-0.000472988
-0.00707199
-0.000598984
-0.0057128
-0.000694313
-0.00419434
-0.000755385
-0.00255932
-0.000781072
-0.000849824
-0.00077273
0.000893611
-0.000735649
0.00263015
-0.000679193
0.0043131
-0.000613967
0.00586696
-0.000532118
0.00720861
-0.000463221
0.00831239
-0.00046659
0.0091485
-0.000524399
0.00966132
-0.000594725
0.00981613
-0.000630886
0.00962938
-0.000604743
0.00913904
-0.000513415
0.00840001
-0.000373834
0.0074972
-0.000234936
0.00651067
-0.000122913
0.005529
-7.84475e-05
0.00461197
-9.60753e-05
0.00379178
-0.000159152
0.00307958
-0.000247169
0.00247372
-0.000342291
0.00196599
-0.000432295
0.00154546
-0.000510697
0.00120081
-0.000575612
0.000921934
-0.000628189
0.000700778
-0.000670814
0.000531313
-0.000705417
0.000408733
-0.000732342
0.000328436
-0.000750202
0.000285429
-0.000756652
0.000274394
-0.000749491
0.000290027
-0.000727312
0.00032766
-0.000689855
0.00038319
-0.00063745
0.000452964
-0.000571008
0.000533721
-0.00049186
0.0006219
-0.000401768
0.000713949
-0.000303264
0.000805728
-0.000199809
0.000891732
-9.57461e-05
0.000970149
2.70422e-06
0.00103569
9.51348e-05
0.00108545
0.000177288
0.00111896
0.000246653
0.001138
0.000302367
0.00114603
0.000344918
0.00114735
0.000375809
0.00114634
0.000397062
0.00114705
0.000410742
0.00115297
0.000418468
0.0011671
0.000421119
0.0011919
0.000418768
0.00122922
0.000410838
0.00128009
0.000396311
0.00134465
0.000373958
0.00142205
0.000342529
0.00151049
0.000300874
0.00160748
0.000247993
0.00170963
0.000183412
0.00181417
0.000105832
0.00191548
1.74284e-05
0.00200599
-7.58635e-05
-0.000182845
0.00209034
0.000770824
-0.000531923
0.00187577
-0.00065437
0.00273342
-0.000379451
0.00330454
-0.000126401
0.00369502
3.52308e-05
0.00397651
0.000145099
0.00417288
0.000222702
0.00427867
0.000272452
0.00428315
0.000290918
0.00417792
0.00027485
0.00396583
0.000225174
0.00366294
0.000146508
0.00329551
4.49687e-05
0.00289553
-7.30067e-05
0.00248848
-0.000191936
0.00211038
-0.000316214
0.00179229
-0.000437289
0.00155908
-0.000547859
0.00142694
-0.000640592
0.00139678
-0.000705493
0.00144401
-0.000726423
0.00152235
-0.000692303
0.00160039
-0.000610158
0.00164007
-0.000502908
0.00156539
-0.000391905
0.00133502
-0.000294027
0.00095371
-0.000213418
0.000478678
-0.000155855
-9.3571e-06
-0.000116708
-0.000414137
-0.000108635
-0.000668273
-0.000119697
-0.000758692
-0.000144517
-0.00069782
-0.000183784
-0.000539955
-0.000236313
-0.00033729
-0.00029874
-0.000130586
-0.000365856
5.38745e-05
-0.00043163
0.000201972
-0.000490389
0.000307712
-0.000538035
0.00037012
-0.000573105
0.000391796
-0.000597288
0.000378523
-0.000614916
0.000339019
-0.00063131
0.000283648
-0.000650045
0.000222812
-0.000671507
0.000165326
-0.000692716
0.00011751
-0.000708836
8.33959e-05
-0.000715377
6.56979e-05
-0.000709614
6.62794e-05
-0.000690436
8.67803e-05
-0.000657951
0.000128455
-0.000612682
0.000191976
-0.000555382
0.000277317
-0.000487108
0.000383384
-0.000409331
0.000507725
-0.000324149
0.000645892
-0.000233914
0.000790337
-0.00014174
0.000936356
-5.08841e-05
0.00107671
3.69392e-05
0.00120566
0.000117698
0.00131799
0.000190039
0.00141035
0.000252554
0.0014819
0.00030426
0.00153404
0.000344922
0.00157022
0.000374565
0.00159541
0.000393272
0.00161547
0.000401065
0.00163631
0.000397922
0.0016633
0.00038385
0.00170061
0.000359002
0.00175087
0.000323702
0.0018149
0.000278492
0.00189152
0.000224256
0.00197777
0.000161738
0.00206845
9.27322e-05
0.00215593
1.83551e-05
0.00223883
-6.54678e-05
0.00230905
-0.000146086
-0.000238965
0.00236517
-0.000621865
8.99417e-05
-0.00101317
-0.000263067
-0.000674573
-0.000718045
8.73493e-05
-0.000888323
0.000884375
-0.000761795
0.00150641
-0.000476932
0.00190687
-0.000177765
0.00211582
6.3506e-05
0.00216688
0.000239857
0.00207509
0.000366643
0.0018446
0.00045566
0.00148054
0.00051057
0.000994774
0.000530733
0.000409002
0.000512765
-0.000241373
0.000458439
-0.000924951
0.000367364
-0.00160218
0.000239936
-0.00222872
7.86828e-05
-0.00276167
-0.000107636
-0.00316845
-0.000298721
-0.00342941
-0.000465456
-0.00354039
-0.000581328
-0.00351275
-0.000637801
-0.00336623
-0.000649426
-0.00312148
-0.000636657
-0.00280099
-0.00061451
-0.00242393
-0.000590482
-0.00201263
-0.000567158
-0.00158312
-0.000546214
-0.00116397
-0.000527787
-0.000771019
-0.000512646
-0.000413505
-0.000502032
-0.000100193
-0.000497096
0.000161976
-0.000498482
0.000369002
-0.000505765
0.000519733
-0.000516587
0.000614785
-0.000526682
0.000655696
-0.0005313
0.000644784
-0.000527123
0.000585781
-0.000514102
0.000485223
-0.000496731
0.000353988
-0.00048368
0.000207546
-0.000484868
6.34991e-05
-0.000505998
-6.2753e-05
-0.000545254
-0.000162117
-0.000593352
-0.000232521
-0.000638432
-0.000276381
-0.000671517
-0.000297123
-0.000688872
-0.000296984
-0.000690575
-0.000276543
-0.000678392
-0.000235036
-0.000654189
-0.000171027
-0.000619391
-8.30738e-05
-0.000575061
2.97488e-05
-0.000522154
0.000167323
-0.000461724
0.000328453
-0.000395044
0.000510363
-0.00032365
0.000708893
-0.000249415
0.000920233
-0.0001744
0.00113901
-0.000101076
0.00135942
-3.03735e-05
0.00157285
3.91235e-05
0.00177703
0.000100079
0.00196837
0.000153581
0.00214408
0.000198862
0.00230238
0.00023497
0.0024423
0.000261146
0.00256352
0.000276695
0.00266606
0.000281312
0.00275018
0.000274889
0.00281639
0.000257486
0.00286553
0.000229351
0.00289878
0.000191011
0.00291689
0.000143627
0.00292001
8.96149e-05
0.00290461
3.37533e-05
0.00287141
-3.22705e-05
0.00282005
-9.47206e-05
-0.000165942
0.00274703
-7.046e-06
9.69875e-05
-0.000225555
-4.4558e-05
-0.000545173
-0.000398428
-0.000870878
-0.000562617
-0.00121558
-0.00041709
-0.00155315
-0.000139362
-0.00177458
4.3658e-05
-0.00174747
3.64045e-05
-0.00141305
-9.45688e-05
-0.000808039
-0.000238366
-1.78958e-05
-0.000334483
0.000872672
-0.000379998
0.00179619
-0.00039279
0.00269578
-0.000386823
0.00352546
-0.000371235
0.00424512
-0.000352305
0.00482007
-0.00033501
0.00522252
-0.00032377
0.0054336
-0.000318715
0.00545155
-0.000316671
0.00529933
-0.000313237
0.00502325
-0.000305245
0.00467734
-0.000291887
0.0043022
-0.000274288
0.00391983
-0.000254286
0.00353879
-0.000233476
0.00316156
-0.000213249
0.00279021
-0.000195804
0.00242869
-0.000184694
0.00208458
-0.00018368
0.00176667
-0.000194735
0.00148177
-0.000217134
0.00123302
-0.000248343
0.00101953
-0.000284996
0.000837168
-0.000323402
0.000680489
-0.000359908
0.000545211
-0.000391404
0.000428762
-0.00041485
0.000330399
-0.000428761
0.000250304
-0.000434007
0.000185658
-0.000432085
0.000131743
-0.000429764
8.22331e-05
-0.000435358
2.71381e-05
-0.000450904
-3.92367e-05
-0.00047888
-0.000118158
-0.000514431
-0.000206651
-0.000549938
-0.00029818
-0.000579989
-0.000384822
-0.000602229
-0.00045887
-0.000616528
-0.000513932
-0.00062333
-0.000545211
-0.000622911
-0.00054934
-0.000615261
-0.000524148
-0.000600253
-0.00046848
-0.000577822
-0.000382109
-0.000548094
-0.000265709
-0.000511444
-0.000120854
-0.000468504
4.98918e-05
-0.00042016
0.000242996
-0.000367504
0.000453658
-0.000311739
0.000677389
-0.000254104
0.000912542
-0.000196029
0.00115191
-0.000139284
0.00139132
-8.58321e-05
0.00162474
-3.45581e-05
0.00184755
1.21544e-05
0.00205326
5.54424e-05
0.00223932
9.06314e-05
0.00240244
0.000118192
0.00253962
0.000137714
0.00264809
0.000149009
0.00272528
0.000152167
0.0027688
0.000147484
0.00277719
0.000135237
0.00275159
0.000115217
0.00269892
8.64256e-05
0.00261978
4.68674e-05
0.00252975
-4.69038e-06
-6.47362e-05
0.00242854
0.000351812
-0.000254825
0.000593395
-0.000286141
0.00042308
-0.000228112
2.5097e-05
-0.000164634
-0.000343407
-4.85861e-05
-0.00055382
7.1051e-05
-0.000616333
0.00010617
-0.000607334
2.74063e-05
-0.000593915
-0.000107988
-0.00061421
-0.000218071
-0.000682957
-0.000265736
-0.000803007
-0.000259947
-0.000974903
-0.000220894
-0.0012014
-0.000160323
-0.00147959
-9.30525e-05
-0.00180379
-2.81042e-05
-0.00217257
3.37778e-05
-0.0025688
7.2461e-05
-0.00297776
9.0239e-05
-0.00338497
9.05421e-05
-0.00377459
7.63861e-05
-0.00413134
5.14989e-05
-0.00444351
2.02808e-05
-0.00470399
-1.38074e-05
-0.00490937
-4.89001e-05
-0.00505797
-8.48768e-05
-0.0051471
-0.000124116
-0.00517013
-0.000172776
-0.00511599
-0.000238842
-0.00497453
-0.00032513
-0.0047471
-0.000422167
-0.00445257
-0.000511667
-0.00412161
-0.000579308
-0.00378395
-0.00062265
-0.00346193
-0.000645422
-0.00316872
-0.000653123
-0.0029097
-0.000650417
-0.00268534
-0.000639214
-0.00249127
-0.000622829
-0.00232006
-0.000605214
-0.00216186
-0.000590284
-0.00201092
-0.000580708
-0.00186879
-0.000577485
-0.00173964
-0.000580056
-0.00163137
-0.000587146
-0.00154874
-0.000597068
-0.00149044
-0.000608236
-0.00145107
-0.000619355
-0.00142395
-0.000629345
-0.0014032
-0.000637287
-0.0013841
-0.000642425
-0.00136285
-0.000644164
-0.00133607
-0.000642039
-0.00130064
-0.000635682
-0.00125366
-0.000624802
-0.00119258
-0.000609178
-0.00111534
-0.000588677
-0.00102058
-0.000563271
-0.000907685
-0.000533053
-0.000776948
-0.000498242
-0.000629487
-0.0004592
-0.000467165
-0.000416426
-0.000292617
-0.000370576
-0.000109472
-0.000322429
7.7533e-05
-0.000272837
0.000265441
-0.000222466
0.000449946
-0.00017235
0.000628905
-0.000123516
0.000796699
-7.71619e-05
0.000949763
-3.48714e-05
0.00108478
2.69874e-06
0.00119952
3.42694e-05
0.00129329
5.83948e-05
0.00136712
7.36567e-05
0.00142401
7.83526e-05
0.00146902
7.01981e-05
0.00150833
4.71163e-05
0.00154845
6.752e-06
0.00159279
-4.90316e-05
-0.000118197
0.00164625
-3.51656e-05
-0.000219659
0.00059932
-0.000920627
0.00197146
-0.00160025
0.00370274
-0.00189591
0.00539706
-0.00174291
0.00677606
-0.00130795
0.00771464
-0.000832404
0.00820438
-0.000462337
0.0082868
-0.000190405
0.00804428
2.4449e-05
0.00757522
0.000203321
0.0069537
0.000361573
0.00622967
0.000503139
0.00544294
0.000626403
0.00462122
0.000728673
0.00378627
0.000806847
0.00296297
0.000857072
0.00216141
0.00087402
0.0013994
0.000852256
0.000700929
0.00078901
8.73589e-05
0.000689956
-0.000419712
0.00055857
-0.000805799
0.000406368
-0.00106589
0.000246279
-0.00120523
9.04417e-05
-0.0012386
-5.15056e-05
-0.00118769
-0.00017502
-0.0010773
-0.000283175
-0.000932535
-0.000383603
-0.000779896
-0.000477769
-0.000639356
-0.000562707
-0.00052183
-0.000629193
-0.000433847
-0.000667291
-0.000377528
-0.000678969
-0.000350849
-0.000672102
-0.000349425
-0.000654546
-0.000368733
-0.000631109
-0.000403415
-0.000604532
-0.000449204
-0.00057704
-0.000503134
-0.000551285
-0.000563775
-0.000529644
-0.000629672
-0.000514811
-0.000699828
-0.000507328
-0.000773428
-0.000506456
-0.000849838
-0.000510737
-0.000928349
-0.000518558
-0.0010081
-0.000528488
-0.00108805
-0.000539401
-0.00116694
-0.000550457
-0.0012432
-0.000561024
-0.00131505
-0.000570578
-0.00138058
-0.000578634
-0.0014379
-0.000584715
-0.00148523
-0.000588349
-0.00152095
-0.000589085
-0.00154362
-0.000586505
-0.00155206
-0.00058024
-0.00154533
-0.000569997
-0.00152282
-0.000555563
-0.00148425
-0.000536819
-0.00142969
-0.000513752
-0.00135965
-0.000486471
-0.00127501
-0.000455215
-0.00117708
-0.00042036
-0.00106749
-0.000382423
-0.000947852
-0.000342107
-0.000819882
-0.00030032
-0.000685278
-0.00025812
-0.00054542
-0.00021702
-0.000402201
-0.000178091
-0.000256185
-0.000143317
-0.000107941
-0.000113975
4.41031e-05
-9.36493e-05
0.000200882
-8.3122e-05
0.000363297
-8.40629e-05
0.000533096
-9.96013e-05
0.000708889
-0.000128676
0.000888184
-0.000172543
0.00107003
-0.000230878
-0.00030219
0.00125402
-5.23702e-05
-0.000167289
-0.000283286
-0.000689711
-0.00062945
-0.00125409
-0.000942518
-0.00158285
-0.00117798
-0.00150745
-0.00138386
-0.00110207
-0.0016236
-0.000592666
-0.00192194
-0.000163999
-0.00225275
0.00014041
-0.00258234
0.000354035
-0.00288591
0.000506893
-0.00314091
0.000616568
-0.00333392
0.000696152
-0.00345936
0.00075184
-0.00351386
0.000783172
-0.00349387
0.000786853
-0.00339778
0.000760983
-0.00322967
0.000705909
-0.00300234
0.000624934
-0.00273883
0.000525498
-0.0024661
0.000417222
-0.00221047
0.000302943
-0.00197612
0.000172022
-0.00174221
1.23673e-05
-0.00148473
-0.000167045
-0.00120068
-0.000335548
-0.000911354
-0.000464349
-0.000650582
-0.000543947
-0.000452993
-0.000581191
-0.000341338
-0.000589425
-0.00032133
-0.000582715
-0.000376259
-0.000574263
-0.00048299
-0.00056056
-0.000613641
-0.000548318
-0.000746392
-0.000539351
-0.000868963
-0.000531976
-0.000973917
-0.000526155
-0.0010546
-0.000523851
-0.00110822
-0.00052342
-0.0011368
-0.000522708
-0.00114533
-0.000521108
-0.00114132
-0.000518826
-0.00113211
-0.000516539
-0.00112363
-0.00051493
-0.00111987
-0.000514498
-0.00112294
-0.000515491
-0.00113351
-0.000517912
-0.00115134
-0.00052157
-0.00117565
-0.000526146
-0.00120541
-0.000531267
-0.00123943
-0.000536556
-0.00127641
-0.000541653
-0.00131491
-0.00054622
-0.00135333
-0.000549925
-0.00138998
-0.000552435
-0.00142308
-0.000553411
-0.00145081
-0.000552512
-0.0014714
-0.000549408
-0.00148316
-0.000543794
-0.00148457
-0.000535415
-0.00147424
-0.000524084
-0.001451
-0.000509709
-0.0014139
-0.000492313
-0.0013622
-0.000472059
-0.00129535
-0.00044927
-0.001213
-0.000424461
-0.00111498
-0.000398342
-0.00100125
-0.000371849
-0.000872141
-0.000346127
-0.000727754
-0.000322478
-0.000568705
-0.000302365
-0.000395272
-0.000287408
-0.000209552
-0.00027937
-1.29487e-05
-0.000279725
0.000192864
-0.000289876
0.000404309
-0.000311046
0.000619428
-0.000343795
0.000835397
-0.000388512
0.00104973
-0.000445216
-0.000513084
0.00126063
-0.000241587
7.42983e-05
-0.00128428
0.00035298
-0.00307805
0.000539686
-0.00507193
0.000411039
-0.00669765
0.000118273
-0.0077023
-9.74272e-05
-0.00808635
-0.000208612
-0.00794786
-0.000302487
-0.00738643
-0.000421024
-0.00649019
-0.000542204
-0.00534879
-0.0006345
-0.00404458
-0.000687643
-0.00265365
-0.000694782
-0.00123578
-0.000666028
0.000173318
-0.000625926
0.00154522
-0.000585048
0.00284542
-0.000539217
0.00403502
-0.000483693
0.00506349
-0.000403531
0.00586753
-0.00027855
0.00639255
-0.000107798
0.0066192
7.62965e-05
0.00657026
0.000220961
0.00630646
0.000276171
0.0059028
0.000236614
0.00542714
0.000140113
0.00492226
4.05282e-05
0.00441502
-3.67072e-05
0.00392743
-9.36036e-05
0.00347377
-0.000135762
0.0030604
-0.000169348
0.002678
-0.000191862
0.00232397
-0.000206527
0.00200037
-0.000224719
0.00170413
-0.00024311
0.00143284
-0.000260685
0.00118377
-0.000277089
0.000952067
-0.000292146
0.000734572
-0.000305924
0.000530609
-0.000318745
0.000340353
-0.000330853
0.000164083
-0.000342557
1.81001e-06
-0.000354266
-0.000146684
-0.000366436
-0.000281719
-0.000379464
-0.000403652
-0.000393558
-0.000512912
-0.000408653
-0.000610058
-0.000424423
-0.000695819
-0.000440385
-0.000771061
-0.000456026
-0.000836706
-0.000470911
-0.000893638
-0.000484721
-0.000942617
-0.000497241
-0.000984222
-0.00050832
-0.00101882
-0.000517839
-0.00104655
-0.000525683
-0.00106732
-0.000531736
-0.00108085
-0.00053588
-0.00108664
-0.000538009
-0.00108402
-0.000538034
-0.00107219
-0.000535909
-0.00105026
-0.000531639
-0.00101727
-0.000525307
-0.000972241
-0.000517085
-0.000914252
-0.00050726
-0.000842464
-0.000496249
-0.000756192
-0.000484614
-0.000654978
-0.000473063
-0.00053866
-0.000462444
-0.000407396
-0.000453743
-0.000261721
-0.00044804
-0.000102639
-0.00044649
6.82406e-05
-0.00045025
0.000248916
-0.000460401
0.000436916
-0.000477876
0.000629294
-0.000503423
0.00082301
-0.000537511
0.00101477
-0.000580267
0.00120096
-0.000631413
-0.000689645
0.00137752
-9.66908e-05
0.000170989
-0.000524403
0.000780692
-0.00149144
0.00150672
-0.00300852
0.00192812
-0.00481902
0.00192877
-0.00659126
0.00167482
-0.00808423
0.00128436
-0.00917478
0.000788058
-0.0098135
0.000217699
-0.00998968
-0.000366025
-0.00973312
-0.00089106
-0.00912716
-0.0012936
-0.00830678
-0.00151516
-0.0074201
-0.00155271
-0.00660292
-0.00144311
-0.00592788
-0.00126009
-0.00540556
-0.00106155
-0.00501366
-0.000875588
-0.00470354
-0.000713648
-0.00440924
-0.000572856
-0.00406305
-0.000453987
-0.00362186
-0.000364893
-0.00308708
-0.000313813
-0.00251334
-0.000297574
-0.0019761
-0.000300624
-0.00152648
-0.000309513
-0.00116766
-0.000318284
-0.000879243
-0.000325128
-0.000640748
-0.000332099
-0.00043728
-0.00033923
-0.000261416
-0.000345211
-0.000104775
-0.000348503
3.67807e-05
-0.000348082
0.000155531
-0.000343469
0.000247342
-0.000334921
0.00030965
-0.000322993
0.000341221
-0.00030866
0.000342341
-0.000293266
0.000314759
-0.000278341
0.000261372
-0.000265357
0.00018619
-0.000255671
9.41804e-05
-0.000250547
-8.95002e-06
-0.000251135
-0.000117152
-0.000258233
-0.000224677
-0.000271939
-0.000326752
-0.000291483
-0.000420028
-0.000315377
-0.000502636
-0.000341815
-0.000573939
-0.000369083
-0.000634125
-0.000395839
-0.000683814
-0.000421222
-0.000723747
-0.000444787
-0.000754606
-0.000466382
-0.000776925
-0.000486
-0.000791085
-0.000503679
-0.000797326
-0.000519442
-0.000795784
-0.000533277
-0.000786514
-0.000545151
-0.0007695
-0.000555022
-0.000744661
-0.000562873
-0.000711843
-0.000568726
-0.000670814
-0.000572669
-0.000621264
-0.000574857
-0.000562821
-0.000575528
-0.000495081
-0.000575
-0.00041765
-0.000573681
-0.000330201
-0.000572063
-0.000232538
-0.000570724
-0.000124664
-0.000570318
-6.84657e-06
-0.00057156
0.000120315
-0.000575202
0.000255832
-0.000582008
0.000398271
-0.000592689
0.000545759
-0.000607889
0.000695995
-0.000628113
0.000846239
-0.000653666
0.000993337
-0.000684609
0.00113377
-0.000720699
0.0012637
-0.000761349
-0.000805345
0.0013794
-0.000246464
0.000417453
-0.000637
0.00117123
-0.00108382
0.00195354
-0.00169725
0.00254156
-0.00246441
0.00269593
-0.00324907
0.00245948
-0.00396628
0.00200156
-0.00460447
0.00142625
-0.00517236
0.000785585
-0.00564993
0.000111546
-0.00599367
-0.000547317
-0.00616602
-0.00112126
-0.00614272
-0.00153846
-0.00594155
-0.00175388
-0.00560761
-0.00177704
-0.00520136
-0.00166634
-0.00476978
-0.00149312
-0.00433631
-0.00130906
-0.00390765
-0.00114231
-0.00348568
-0.000994829
-0.00307716
-0.000862502
-0.00270073
-0.000741328
-0.00238402
-0.000630519
-0.0021465
-0.000535101
-0.00198485
-0.00046227
-0.00187894
-0.000415426
-0.00180308
-0.000394141
-0.00173354
-0.000394669
-0.00165222
-0.000413421
-0.00154527
-0.000446179
-0.00140418
-0.000486298
-0.00122568
-0.000527003
-0.00100972
-0.00056404
-0.000764337
-0.000588855
-0.000504723
-0.000594536
-0.000250905
-0.000576812
-2.3848e-05
-0.000535718
0.00015871
-0.000475824
0.000285098
-0.000404729
0.000350648
-0.000330908
0.000357649
-0.000262672
0.000314626
-0.000207523
0.000234545
-0.000171055
0.000131932
-0.00015562
1.97652e-05
-0.000159772
-9.23468e-05
-0.00017937
-0.000198369
-0.000209355
-0.000295012
-0.000245172
-0.000380687
-0.000283408
-0.000454696
-0.00032183
-0.000516773
-0.000359145
-0.000566852
-0.000394709
-0.000604967
-0.000428267
-0.000631217
-0.00045975
-0.000645756
-0.00048914
-0.000648809
-0.000516388
-0.000640698
-0.000541388
-0.00062186
-0.000563988
-0.00059285
-0.000584032
-0.000554317
-0.000601406
-0.000506958
-0.000616086
-0.00045147
-0.000628156
-0.000388503
-0.000637824
-0.000318623
-0.000645408
-0.000242301
-0.000651322
-0.000159926
-0.000656055
-7.18355e-05
-0.000660153
2.1635e-05
-0.000664195
0.000120091
-0.000668775
0.00022301
-0.000674479
0.000329678
-0.00068187
0.000439129
-0.000691459
0.000550124
-0.000703683
0.000661119
-0.000718883
0.000770286
-0.000737279
0.000875571
-0.000758951
0.000974799
-0.000783836
0.00106584
-0.000811737
0.00114683
-0.000842337
-0.000875426
0.00121691
5.80366e-05
0.000359416
0.000387136
0.00084213
0.00121185
0.00112882
0.0024695
0.0012839
0.00390245
0.00126299
0.00525206
0.00110986
0.00633002
0.000923598
0.00703287
0.000723409
0.00733008
0.000488376
0.00723962
0.000202001
0.00681942
-0.000127111
0.00616188
-0.000463725
0.0053824
-0.00075897
0.00461296
-0.000984452
0.00396645
-0.00113052
0.003502
-0.00120189
0.00321985
-0.00121097
0.00308478
-0.00117398
0.00304803
-0.00110556
0.00306934
-0.00101614
0.00311902
-0.000912188
0.00317559
-0.000797899
0.00322442
-0.000679343
0.00325575
-0.000566433
0.00326396
-0.000470486
0.00324279
-0.000394255
0.00318588
-0.000337225
0.00308578
-0.000294573
0.00293572
-0.000263357
0.00273336
-0.000243826
0.00248583
-0.000238768
0.00220887
-0.000250035
0.00191814
-0.000273316
0.00162562
-0.000296337
0.00133432
-0.000303228
0.0010402
-0.000282693
0.00073884
-0.000234358
0.000432741
-0.000169725
0.000133903
-0.000105891
-0.000139909
-5.70959e-05
-0.000372058
-3.05227e-05
-0.000552315
-2.72665e-05
-0.000678628
-4.47421e-05
-0.000756313
-7.7935e-05
-0.000795278
-0.000120807
-0.00080687
-0.000167778
-0.000801411
-0.000214814
-0.000786896
-0.000259687
-0.000768703
-0.0003016
-0.000749903
-0.00034063
-0.000731776
-0.000377271
-0.000714336
-0.000412149
-0.000696759
-0.000445844
-0.000677728
-0.000478781
-0.000655719
-0.000511148
-0.000629249
-0.000542858
-0.000597074
-0.000573564
-0.000558333
-0.00060273
-0.000512617
-0.000629748
-0.000459965
-0.000654059
-0.00040079
-0.00067526
-0.000335777
-0.000693168
-0.000265764
-0.000707837
-0.000191628
-0.000719543
-0.000114211
-0.000728738
-3.42605e-05
-0.000736006
4.75907e-05
-0.000742004
0.000130809
-0.000747414
0.000214934
-0.000752899
0.000299525
-0.000759071
0.000384113
-0.000766457
0.000468147
-0.000775493
0.000550975
-0.000786511
0.00063184
-0.000799749
0.000709925
-0.000815363
0.000784416
-0.000833443
0.000854615
-0.000854034
0.00092004
-0.000877161
0.000980563
-0.00090286
-0.000931589
0.00103673
0.000177134
0.000182282
0.00054214
0.000477124
0.00103582
0.00063514
0.00163688
0.000682841
0.00226744
0.000632439
0.00282723
0.000550067
0.00324812
0.000502706
0.00345916
0.000512372
0.00339366
0.000553871
0.00301294
0.000582726
0.00231661
0.000569218
0.00134744
0.000505444
0.000187829
0.000400643
-0.00106002
0.000263396
-0.00228203
9.14939e-05
-0.00339017
-9.37596e-05
-0.00432371
-0.000277434
-0.00506166
-0.000436026
-0.00559307
-0.000574151
-0.00589082
-0.000718388
-0.00591794
-0.000885071
-0.0056599
-0.00105594
-0.00515159
-0.00118765
-0.00447092
-0.0012471
-0.00370573
-0.00123568
-0.00292244
-0.00117754
-0.00216851
-0.00109116
-0.00148208
-0.000981002
-0.000898013
-0.000847423
-0.000450704
-0.000691135
-0.000166679
-0.000522793
-5.59369e-05
-0.000360777
-0.000104526
-0.000224727
-0.000273515
-0.000127348
-0.00050901
-6.77337e-05
-0.000755711
-3.59923e-05
-0.000969782
-2.02869e-05
-0.0011273
-1.2204e-05
-0.00122069
-1.25038e-05
-0.00125268
-2.51046e-05
-0.00123251
-5.06935e-05
-0.00117364
-8.61371e-05
-0.00109153
-0.000126858
-0.00100059
-0.000168867
-0.000911901
-0.0002095
-0.000832249
-0.000247431
-0.000764687
-0.000282376
-0.000709686
-0.000314687
-0.000666184
-0.000345102
-0.000632311
-0.000374502
-0.000605788
-0.000403795
-0.00058411
-0.000433826
-0.000564677
-0.000465277
-0.000544906
-0.000498551
-0.000522389
-0.000533665
-0.00049506
-0.000570188
-0.000461366
-0.000607257
-0.000420393
-0.000643704
-0.000371903
-0.000678238
-0.000316299
-0.000709664
-0.000254507
-0.000737053
-0.000187813
-0.000759861
-0.000117687
-0.000777963
-4.56074e-05
-0.000791622
2.70783e-05
-0.000801424
9.92614e-05
-0.00080819
0.000170135
-0.000812878
0.000239208
-0.000816487
0.000306281
-0.000819972
0.000371374
-0.000824163
0.000434643
-0.000829727
0.000496289
-0.000837138
0.000556475
-0.000846697
0.000615284
-0.000858559
0.000672703
-0.000872782
0.000728636
-0.000889375
0.000782932
-0.00090833
0.000835407
-0.000929638
0.000885855
-0.000953308
-0.000979604
0.000933871
0.000205517
-2.32351e-05
0.000425603
0.000257039
0.00039189
0.000668853
6.63168e-05
0.00100841
-0.000504634
0.00120339
-0.00122246
0.00126789
-0.00197251
0.00125276
-0.00268368
0.00122354
-0.00334833
0.00121852
-0.0040067
0.0012411
-0.00471123
0.00127375
-0.00549093
0.00128515
-0.0063259
0.00123561
-0.00718308
0.00112058
-0.00801514
0.000923558
-0.00879836
0.000689454
-0.00954376
0.00046797
-0.0102489
0.000269156
-0.0108585
3.54355e-05
-0.0112553
-0.000321656
-0.0113024
-0.000837966
-0.0109422
-0.00141609
-0.0102768
-0.00185306
-0.00951833
-0.00200559
-0.0088342
-0.00191981
-0.00826426
-0.00174748
-0.00776984
-0.00158559
-0.00730524
-0.0014456
-0.00684462
-0.00130804
-0.00637701
-0.00115875
-0.00590457
-0.000995229
-0.00543871
-0.000826644
-0.00499323
-0.000670199
-0.0045764
-0.000544182
-0.00418334
-0.000460793
-0.00380473
-0.000414598
-0.00343382
-0.000391197
-0.00306412
-0.000381906
-0.00269904
-0.000377582
-0.00234876
-0.000375393
-0.00202508
-0.00037437
-0.00173722
-0.000373991
-0.00149008
-0.000373998
-0.00128447
-0.000374482
-0.00111807
-0.000375902
-0.000986548
-0.000378949
-0.000884534
-0.00038439
-0.000806217
-0.000393005
-0.000745861
-0.000405458
-0.000698052
-0.000422312
-0.000657853
-0.000443994
-0.000620933
-0.000470746
-0.00058365
-0.000502559
-0.000543126
-0.000539075
-0.000497283
-0.000579508
-0.000444861
-0.00062261
-0.000385385
-0.000666734
-0.0003191
-0.000709988
-0.000246873
-0.000750465
-0.000170061
-0.000786476
-9.03588e-05
-0.000816755
-9.65112e-06
-0.000840569
7.01458e-05
-0.00085776
0.000147239
-0.000868714
0.000220102
-0.000874287
0.000287608
-0.000875696
0.000349121
-0.00087439
0.00040454
-0.000871907
0.000454279
-0.00086971
0.000499162
-0.000869047
0.000540273
-0.000870838
0.000578759
-0.000875624
0.000615652
-0.00088359
0.000651735
-0.000894641
0.000687467
-0.000908513
0.000722982
-0.00092489
0.00075813
-0.000943479
0.000792548
-0.000964055
0.000825705
-0.000986465
-0.00101076
0.000856857
-0.00019527
0.000172034
-0.00033733
0.000399099
-0.000296491
0.000628015
-0.000188958
0.00090088
-0.000118836
0.00113327
-0.00014373
0.00129278
-0.000296121
0.00140515
-0.000575301
0.00150272
-0.000955198
0.00159841
-0.00139753
0.00168343
-0.00185826
0.00173448
-0.00229125
0.00171814
-0.00266216
0.00160652
-0.00290699
0.00136541
-0.00302016
0.00103672
-0.00303707
0.000706367
-0.002996
0.000426895
-0.00289722
0.00017038
-0.00271677
-0.000145014
-0.00244444
-0.000593987
-0.00213882
-0.00114358
-0.00189173
-0.00166318
-0.0017801
-0.00196468
-0.00182537
-0.00196033
-0.00200089
-0.00174428
-0.00226645
-0.00148192
-0.00258536
-0.00126668
-0.00292279
-0.00110816
-0.00323762
-0.000993212
-0.00348718
-0.00090919
-0.00363648
-0.000845926
-0.00366749
-0.000795637
-0.00358356