/*--------------------------------*- C++ -*----------------------------------*\
| =========                 |                                                 |
| \\      /  F ield         | OpenFOAM: The Open Source CFD Toolbox           |
|  \\    /   O peration     | Version:  2012                                  |
|   \\  /    A nd           | Website:  www.openfoam.com                      |
|    \\/     M anipulation  |                                                 |
\*---------------------------------------------------------------------------*/
FoamFile
{
    version     2.0;
    format      ascii;
    class       volScalarField;
    location    "0.24";
    object      p;
}
// * * * * * * * * * * * * * * * * * * * * * * * * * * * * * * * * * * * * * //

dimensions      [0 2 -2 0 0 0 0];


internalField   nonuniform List<scalar> 
42400
(
-6340.32
-6170.47
-5951.96
-5698.58
-5398.74
-5095.8
-4816.81
-4583.07
-4399.02
-4249.95
-4112.23
-3967.19
-3804.6
-3621.49
-3419.08
-3201.6
-2975.82
-2750.71
-2536.93
-2344.52
-2180.53
-2046.26
-1936.72
-1843.3
-1757.23
-1672.35
-1584.23
-1488.29
-1380.05
-1257.69
-1122.96
-979.248
-831.524
-685.54
-546.891
-420.287
-308.744
-213.321
-133.494
-67.8685
-14.7797
27.3815
60.1758
85.1223
103.672
117.14
126.66
133.158
137.369
139.858
141.054
141.282
140.786
139.742
138.29
136.529
134.533
132.353
130.027
127.578
125.021
122.366
119.615
116.767
113.819
110.765
107.603
104.327
100.938
97.4348
93.8202
90.0971
86.2688
82.3356
78.2944
74.1363
69.8421
65.3751
60.6742
55.5398
1856.7
1916.13
2009.87
2120.99
2249.71
2373.59
2472.8
2529.57
2549.69
2555.19
2549.74
2509.61
2408.66
2243.09
2036.43
1827.9
1653.33
1525.27
1430.9
1348.13
1261.38
1168.62
1078.24
999.889
936.901
885.522
839.529
793.363
743.085
687.672
628.121
566.585
505.557
447.25
393.342
344.951
302.697
266.776
237.01
212.903
193.726
178.643
166.823
157.533
150.169
144.254
139.427
135.415
132.019
129.092
126.523
124.237
122.145
120.078
118.099
116.181
114.295
112.422
110.549
108.668
106.769
104.84
102.87
100.84
98.731
96.5243
94.2017
91.7492
89.1578
86.4236
83.5466
80.5301
77.3929
74.1264
70.7354
67.2209
63.5799
59.8009
55.8957
51.7489
8813.08
8598.97
8341.06
8022.7
7583.25
7026.74
6328.04
5509.96
4692.09
4035.2
3612.6
3369.42
3202.21
3037
2846.69
2640.64
2445.81
2284.89
2168.9
2096.05
2059.97
2051.01
2054.46
2052.37
2028.1
1969.68
1871.03
1731.86
1561.06
1376.25
1195.36
1029.55
882.494
754.018
642.742
547.028
465.204
395.651
336.87
287.511
246.374
212.396
184.619
162.174
144.256
130.124
119.123
110.667
104.254
99.4429
95.8602
93.181
91.1669
89.7212
88.5747
87.6019
86.7258
85.8981
85.0942
84.3047
83.5253
82.7485
81.9584
81.1294
80.2281
79.2182
78.066
76.745
75.2389
73.5412
71.6552
69.5912
67.3479
64.9507
62.4082
59.727
56.9153
53.9628
50.9055
47.609
-1908.54
-1780.89
-1625.31
-1457.72
-1296.67
-1174.13
-1084.36
-1003.3
-879.246
-636.434
-234.394
289.397
855.579
1390.25
1842.05
2180.78
2390.97
2472.66
2438.83
2315.52
2136.77
1931.14
1705.3
1449.29
1165.69
884.942
649.105
491.735
419.054
402.381
401.558
391.998
370.048
340.135
306.402
271.489
237.203
204.878
175.444
149.455
127.156
108.52
93.3393
81.3065
71.9741
64.6962
59.3672
55.6553
53.2281
51.8019
51.1328
51.0093
51.258
51.7409
52.3501
53.0103
53.6774
54.3333
54.9789
55.625
56.2824
56.9519
57.6181
58.2478
58.7944
59.2061
59.4352
59.446
59.2185
58.7475
58.0397
57.1087
55.9707
54.6415
53.1348
51.4585
49.6253
47.618
45.4876
43.1231
-3854.58
-3780.48
-3686.85
-3611.11
-3581.08
-3595.19
-3621.39
-3642.2
-3649.22
-3623.98
-3547.48
-3416.43
-3253.17
-3093.05
-2957.58
-2844.73
-2734.37
-2597.14
-2403.14
-2141.24
-1832.12
-1515.57
-1229.88
-1006.16
-861.097
-782.909
-736.241
-688.45
-631.022
-574.815
-529.586
-494.042
-461.454
-426.91
-388.971
-348.418
-306.943
-266.366
-228.1
-193.054
-161.734
-134.314
-110.7
-90.6287
-73.6511
-59.0908
-46.8101
-36.4385
-27.6146
-20.0363
-13.4414
-7.61562
-2.39229
2.35011
6.69471
10.6962
14.3937
17.8211
21.0137
24.0084
26.8379
29.5229
32.0639
34.4402
36.6147
38.545
40.1957
41.5463
42.5937
43.3488
43.8313
44.0634
44.0658
43.8547
43.4426
42.8347
42.0427
41.0468
39.8883
38.5288
-2076.46
-1932.49
-1818.88
-1780.51
-1669.9
-1400.64
-1022.15
-678.12
-510.797
-559.667
-706.146
-788.666
-765.393
-711.263
-703.861
-761.671
-867.174
-996.33
-1132.65
-1266.85
-1387.09
-1476.26
-1521.97
-1523.28
-1486.13
-1415.83
-1316.71
-1197.21
-1071.13
-951.591
-845.38
-753.217
-673.344
-603.779
-542.681
-488.369
-439.829
-396.944
-358.795
-324.746
-293.538
-264.512
-237.559
-212.64
-189.72
-168.706
-149.52
-132.051
-116.152
-101.647
-88.3554
-76.1117
-64.7916
-54.3146
-44.6365
-35.7325
-27.5793
-20.1429
-13.3737
-7.21019
-1.58774
3.54926
8.23856
12.4977
16.3291
19.7309
22.7069
25.2728
27.4569
29.2944
30.8223
32.0734
33.0738
33.8417
34.3889
34.7212
34.8436
34.753
34.4454
34.0072
11261.7
11117.4
10851
10366.7
9653.79
8739.55
7706.93
6659.91
5591.35
4402.76
3070.57
1725.58
558.667
-315.869
-898.957
-1257.18
-1463.07
-1572.3
-1622.42
-1638.7
-1637.79
-1628.18
-1611.9
-1589.03
-1559.42
-1521.94
-1476.7
-1426.04
-1373.52
-1322.24
-1273.79
-1228.12
-1184.17
-1140.27
-1093.31
-1041.44
-983.522
-918.324
-847.337
-772.738
-697.399
-623.286
-551.928
-484.648
-422.518
-366.272
-316.26
-272.417
-234.291
-201.199
-172.42
-147.314
-125.371
-106.195
-89.451
-74.8331
-62.0489
-50.8214
-40.8985
-32.0645
-24.1478
-17.0227
-10.6053
-4.84303
0.299071
4.85239
8.85404
12.3498
15.3914
18.0313
20.3175
22.2901
23.9812
25.4145
26.6068
27.571
28.3114
28.8471
29.1308
29.3568
-13436.6
-12792.7
-11934.8
-10868.7
-9492.53
-7876.81
-6071.07
-4199.03
-2445.4
-957.833
209.892
1055.86
1602.54
1902.15
2017.39
1999.56
1887.91
1714.12
1503.73
1276.7
1047.1
824.468
617.63
433.751
275.118
138.793
18.2433
-92.8377
-197.571
-295.263
-383.298
-457.62
-516.669
-561.996
-596.002
-618.656
-630.272
-632.05
-624.242
-607.416
-582.487
-549.606
-508.823
-460.975
-408.001
-352.908
-298.739
-248.777
-205.431
-169.536
-141.062
-118.987
-101.838
-88.2105
-76.9906
-67.385
-58.8656
-51.0967
-43.874
-37.081
-30.6606
-24.5952
-18.892
-13.5715
-8.65607
-4.16112
-0.0887797
3.57321
6.84832
9.76589
12.3559
14.6459
16.6591
18.4152
19.9301
21.218
22.288
23.1614
23.8026
24.4079
1426.37
939.527
331.743
-300.485
-947.717
-1542.54
-2085.52
-2577.72
-3005.79
-3342.6
-3562.78
-3656.25
-3628.41
-3496.28
-3286.2
-3030.25
-2762.66
-2515.85
-2312.44
-2163.75
-2066.99
-2004.96
-1950.18
-1874.59
-1761.02
-1606
-1423.19
-1232.08
-1046.07
-871.901
-710.801
-563.862
-433.13
-320.21
-225.132
-146.682
-83.736
-35.7834
-2.15295
18.4411
27.9309
28.5694
22.4822
11.473
-2.74735
-18.2087
-33.445
-46.9721
-57.8179
-65.7604
-70.5802
-72.4348
-71.7658
-69.1163
-65.0417
-60.0463
-54.5367
-48.8093
-43.0637
-37.4261
-31.9745
-26.7569
-21.8048
-17.1397
-12.7762
-8.72289
-4.9829
-1.55369
1.57201
4.4052
6.95934
9.24916
11.2896
13.0953
14.68
16.0568
17.2386
18.2389
19.0613
19.8012
-1534.17
-1328.47
-1014.61
-649.452
-289.941
-27.9856
116.093
141.757
43.9596
-174.618
-492.414
-869.203
-1248.82
-1564.42
-1758.17
-1805.95
-1722.71
-1556.8
-1381.04
-1271.07
-1267.62
-1351.16
-1458.83
-1530.16
-1536.59
-1485.97
-1402.18
-1306.02
-1209.6
-1115.94
-1024.17
-933.138
-842.783
-753.527
-665.867
-581.135
-501.108
-427.437
-361.368
-303.587
-254.163
-212.848
-179.208
-152.671
-132.412
-117.291
-106.008
-97.1073
-89.7895
-83.427
-77.5765
-72.0168
-66.6374
-61.4018
-56.3069
-51.3521
-46.5355
-41.8551
-37.3105
-32.9043
-28.643
-24.5366
-20.5978
-16.84
-13.2761
-9.91696
-6.77038
-3.84056
-1.1283
1.36853
3.65435
5.73524
7.61839
9.31159
10.823
12.1611
13.3346
14.3523
15.2275
15.9699
9955.86
9866.99
9654.63
9240.36
8668.31
8081.18
7572.78
7167.5
6831.48
6494.02
6075.17
5517.54
4815.78
4020.57
3218.29
2508.38
1966.91
1614.57
1402.41
1235.14
1034.48
792.032
553.706
360.55
220.572
121.783
49.5781
-8.06035
-57.7898
-101.922
-140.43
-172.562
-197.565
-215.416
-225.923
-229.42
-226.714
-218.922
-207.334
-193.289
-178.025
-162.524
-147.584
-133.747
-121.318
-110.347
-100.501
-91.6637
-83.2588
-75.161
-67.4627
-60.2665
-53.6822
-47.7984
-42.6374
-38.1433
-34.2028
-30.6797
-27.4472
-24.4068
-21.4941
-18.6741
-15.9337
-13.2736
-10.7019
-8.23001
-5.86918
-3.62935
-1.51818
0.459162
2.29986
4.0032
5.57017
7.00318
8.3056
9.48148
10.5353
11.4721
12.2976
13.0068
100.394
168.572
277.356
398.52
549.621
697.894
829.041
919.895
938.469
860.776
692.398
489.379
354.257
391.767
642.464
1034.73
1410.69
1628.98
1657.28
1561.1
1417.56
1263.33
1107.56
956.123
815.242
687.618
573.069
470.555
378.955
297.349
225.087
161.705
106.756
60.3332
22.0657
-8.53784
-32.1389
-49.5623
-61.7417
-69.6303
-74.1245
-76.0201
-75.9425
-74.3747
-71.7255
-68.1384
-63.9004
-59.1893
-54.2937
-49.3449
-44.4543
-39.7489
-35.3465
-31.3344
-27.7565
-24.6112
-21.8585
-19.4313
-17.2531
-15.2534
-13.3761
-11.5823
-9.84806
-8.16121
-6.51747
-4.91763
-3.36541
-1.86591
-0.424583
0.953406
2.26363
3.50254
4.66756
5.75703
6.77019
7.70707
8.56839
9.35542
10.0702
10.7099
-8458.37
-8578.23
-8676.65
-8672.47
-8545.1
-8305.98
-7989.39
-7644.99
-7331.78
-7088.05
-6904.21
-6725.23
-6482.88
-6131.64
-5661.41
-5087.29
-4436.58
-3748.93
-3078.34
-2476.54
-1971.73
-1564.21
-1238.68
-979.219
-773.782
-613.015
-488.922
-394.284
-322.644
-268.436
-227.01
-194.63
-168.437
-146.368
-127.06
-109.703
-93.8948
-79.5177
-66.6119
-55.2716
-45.5607
-37.4709
-30.9142
-25.7296
-21.7009
-18.579
-16.1187
-14.1049
-12.3806
-10.8523
-9.48726
-8.29534
-7.29901
-6.50719
-5.90432
-5.45172
-5.09523
-4.78153
-4.46419
-4.10936
-3.69653
-3.21673
-2.66986
-2.06168
-1.40135
-0.699603
0.0325573
0.784561
1.54671
2.31034
3.06794
3.81313
4.54054
5.24573
5.92504
6.57559
7.19515
7.78232
8.33746
8.85348
-8446.31
-7734.3
-6812.79
-5919.98
-5073
-4391.21
-3831.56
-3339.21
-2881.82
-2450.3
-2050.15
-1693.69
-1392.48
-1152.87
-975.501
-858.255
-797.995
-788.906
-819.706
-874.875
-936.942
-990.578
-1025.92
-1038.35
-1027.37
-994.865
-944.092
-879.07
-804.094
-723.347
-640.544
-558.719
-480.155
-406.426
-338.491
-276.821
-221.551
-172.651
-130.034
-93.6076
-63.2344
-38.6735
-19.5331
-5.2632
4.81396
11.4456
15.3806
17.3097
17.8248
17.4028
16.4064
15.0993
13.663
12.2164
10.8334
9.55613
8.4062
7.39225
6.51513
5.77114
5.15422
4.6569
4.27102
3.98823
3.80022
3.69877
3.67575
3.72323
3.83346
3.99892
4.2123
4.46658
4.7551
5.07154
5.41001
5.76501
6.13151
6.50523
6.88339
7.2537
9810.96
9689.8
9505.7
9190.09
8728.69
8147.2
7471.02
6715.45
5905.31
5083.48
4298.05
3580.26
2937.94
2366.07
1857.41
1407.34
1014.76
680.822
406.427
190.967
31.7715
-76.8922
-142.913
-174.894
-181.076
-168.765
-144.248
-112.676
-77.9489
-43.1606
-10.5262
18.5434
43.1996
62.9369
77.5375
87.1532
92.3622
94.0537
93.194
90.6197
86.8427
82.0697
76.3811
69.9192
63.0023
56.1027
49.6959
44.1084
39.4507
35.6423
32.5088
29.8524
27.5078
25.3575
23.3287
21.3851
19.5154
17.7238
16.022
14.4237
12.9416
11.5852
10.3605
9.27016
8.31352
7.48766
6.78771
6.20746
5.73972
5.37668
5.11016
4.93181
4.83322
4.80609
4.84232
4.93417
5.07425
5.25592
5.47372
5.71247
-948.618
-789.301
-550.218
-221.364
221.398
742.488
1306.31
1866.72
2380.1
2817.55
3168.12
3433.54
3620.77
3736.01
3784.68
3772.59
3706.6
3594.5
3444.05
3262.89
3057.99
2835.1
2599.65
2357.06
2112.72
1871.5
1637.19
1412.12
1197.15
992.618
799.433
619.85
457.496
316.912
202.749
118.37
64.2565
37.2156
29.6637
33.9134
43.6661
54.7359
65.1124
74.1244
81.579
87.1713
90.2693
90.1937
87.0876
81.4066
74.4334
66.9374
59.4656
52.3968
45.9348
40.1555
35.0552
30.5867
26.6841
23.2773
20.3012
17.6982
15.4202
13.4275
11.6878
10.1745
8.86596
7.74371
6.7918
5.99595
5.34312
4.82111
4.41835
4.12377
3.92677
3.81726
3.78564
3.82322
3.92238
4.06581
5465.63
5320.78
5141.19
4912.42
4601.18
4238.35
3837.27
3411.58
2976.01
2544.92
2131.32
1744.36
1387.36
1058.58
754.938
475.438
221.505
-4.4913
-200.668
-365.957
-499.671
-601.299
-670.632
-708.241
-715.887
-696.487
-654.189
-593.824
-520.919
-441.33
-361.574
-288.656
-228.92
-185.164
-155.278
-133.59
-114.101
-94.2974
-73.2473
-52.1773
-32.6233
-15.2838
-0.198653
12.8151
23.7827
32.6881
39.6558
44.5191
47.3466
48.6404
48.3637
46.9165
44.6972
41.9944
39.012
35.8939
32.7432
29.6347
26.6228
23.7465
21.0335
18.502
16.1632
14.0229
12.0826
10.3403
8.79162
7.4301
6.24785
5.23581
4.38411
3.68227
3.11947
2.68471
2.36703
2.15563
2.04004
2.01056
2.05828
2.1656
-5401.66
-5402.78
-5444.53
-5517.2
-5623.63
-5728.33
-5801.63
-5816.09
-5752.86
-5608.22
-5394.55
-5135.39
-4851.31
-4545.88
-4204.58
-3811.19
-3368.89
-2900.98
-2436.46
-2000.7
-1613.11
-1284.77
-1017.87
-807.596
-645.431
-521.328
-424.734
-347.74
-286.225
-239.133
-205.872
-184.305
-169.962
-157.394
-141.811
-120.758
-95.0135
-66.9889
-39.6309
-15.3096
4.83904
20.7675
32.9852
41.9662
48.5033
52.9066
55.2131
56.028
55.6408
54.2718
52.1161
49.3648
46.1986
42.7759
39.227
35.6546
32.1363
28.7287
25.4721
22.3941
19.5129
16.8396
14.3798
12.1353
10.1048
8.28456
6.66881
5.25027
4.02044
2.96983
2.08822
1.36483
0.788505
0.347959
0.031895
-0.170843
-0.271142
-0.279153
-0.204345
-0.0627034
-10507.9
-10144.5
-9691.72
-9139.05
-8431.26
-7547.78
-6497
-5346.41
-4200.04
-3165.08
-2317.98
-1680.16
-1212.41
-851.345
-563.324
-348.618
-209.461
-133.33
-98.609
-85.6671
-80.3865
-74.4073
-63.6494
-46.9614
-24.7183
1.55574
29.6592
57.5029
81.9901
100.371
111.294
115.198
113.578
108.032
99.9704
90.6897
81.3534
72.8655
65.7821
60.3024
56.3434
53.6927
52.0908
51.3676
50.9947
50.6366
50.0369
49.0402
47.5773
45.6436
43.2842
40.575
37.6072
34.4738
31.2608
28.042
24.8774
21.8143
18.8877
16.1233
13.5388
11.1456
8.95021
6.95519
5.16015
3.56219
2.15646
0.936531
-0.105335
-0.977895
-1.6907
-2.25389
-2.67803
-2.97389
-3.15224
-3.2238
-3.19904
-3.0878
-2.8991
-2.64553
12750.8
12304.4
11700.9
10936.8
9962.53
8953.43
7972.67
7027.13
6104.81
5206.35
4361.22
3622.31
3034.75
2599.94
2281.05
2033.43
1825.8
1646.8
1494.32
1366.12
1257.78
1163.79
1077.84
994.194
910.037
826.361
746.127
671.279
602.388
539.206
481.534
429.211
381.96
339.335
300.835
265.984
234.383
205.73
179.808
156.462
135.582
117.097
100.866
86.851
74.9798
65.0342
56.7307
49.7549
43.8011
38.6064
33.9704
29.7569
25.8817
22.2961
18.9719
15.8914
13.0413
10.4108
7.99062
5.77297
3.75122
1.91982
0.273895
-1.19114
-2.47995
-3.59761
-4.54976
-5.34282
-5.98384
-6.48075
-6.8421
-7.07699
-7.19487
-7.20543
-7.11844
-6.94354
-6.6902
-6.36713
-5.98185
-5.54232
-2030.92
-1901.2
-1715.96
-1493.94
-1212.42
-923.576
-647.96
-396.5
-172.636
24.6357
198.122
349.645
479.578
588.395
676.791
746.149
796.544
826.802
836.286
831.212
822.081
815.38
802.863
768.652
704.858
617.353
518.037
418.553
326.794
246.783
180.079
127.03
86.9227
57.3886
35.8597
19.6691
6.64092
-4.37101
-13.8249
-22.1616
-29.1319
-34.7445
-39.081
-42.1893
-44.1504
-45.0807
-45.1152
-44.3932
-43.0473
-41.1965
-38.943
-36.3718
-33.5523
-30.5433
-27.3978
-24.1682
-20.9091
-17.6771
-14.5273
-11.5087
-8.65978
-6.00672
-3.56375
-1.33577
0.6786
2.48435
4.08821
5.49756
6.71989
7.76256
8.63277
9.33758
9.88402
10.2791
10.53
10.6438
10.6276
10.4941
10.249
9.93593
-8823.94
-8491.67
-8043.31
-7545.19
-6993.82
-6483.58
-6011.37
-5547.05
-5072.7
-4596.16
-4138.28
-3712.39
-3318.5
-2951.49
-2608.92
-2291.48
-2002.65
-1747
-1528.15
-1346.66
-1198.23
-1075.11
-969.83
-877.192
-793.671
-716.444
-643.784
-575.078
-510.43
-450.235
-395.172
-345.67
-301.988
-264.117
-232.138
-205.903
-184.73
-167.56
-153.271
-140.917
-129.815
-119.52
-109.767
-100.423
-91.4484
-82.8588
-74.6935
-66.9907
-59.7747
-53.0509
-46.8067
-41.0158
-35.6435
-30.6521
-26.0069
-21.6795
-17.6498
-13.9055
-10.4393
-7.24632
-4.32062
-1.65434
0.762376
2.94043
4.89069
6.6232
8.14689
9.46967
10.5986
11.5404
12.3016
12.8887
13.3085
13.568
13.6745
13.6353
13.457
13.1505
12.7242
12.2312
7914.68
7701.78
7464.9
7179.37
6772.25
6246.98
5609.59
4901.42
4171.41
3444.29
2721.86
1999.33
1276.72
566.36
-99.5735
-675.31
-1121.83
-1426.69
-1606.05
-1690.86
-1710.31
-1684.25
-1625.76
-1544.47
-1447.87
-1342.26
-1232.26
-1121.32
-1012.71
-909.54
-813.383
-724.621
-642.88
-567.494
-498.318
-435.515
-379.201
-329.229
-285.23
-246.698
-213.068
-183.778
-158.283
-136.075
-116.7
-99.767
-84.9475
-71.9655
-60.589
-50.62
-41.8872
-34.2398
-27.5429
-21.6756
-16.5284
-12.0029
-8.01087
-4.47555
-1.32871
1.48451
4.00831
6.27642
8.31322
10.1357
11.7552
13.1795
14.4141
15.463
16.33
17.0186
17.5328
17.877
18.0562
18.076
17.9426
17.6624
17.2412
16.6878
16.0106
15.2628
-5344.88
-5190.8
-4996.12
-4747.06
-4412.77
-3975.21
-3420.67
-2771.66
-2094.72
-1472.45
-957.361
-558.772
-272.112
-95.7099
-21.8121
-30.7372
-97.9872
-201.825
-324.691
-450.687
-564.616
-654.147
-711.607
-735.758
-733.895
-717.759
-697.198
-675.534
-650.685
-619.436
-580.728
-535.469
-485.598
-434.034
-383.043
-334.311
-289.019
-247.764
-210.702
-177.811
-148.981
-123.98
-102.502
-84.1878
-68.6502
-55.5042
-44.3885
-34.9789
-26.9941
-20.1954
-14.3823
-9.38707
-5.06938
-1.31152
1.98492
4.9015
7.5046
9.84657
11.9672
13.8949
15.6487
17.2401
18.6744
19.953
21.0749
22.0373
22.8377
23.4737
23.9443
24.2493
24.3905
24.3705
24.1934
23.864
23.3881
22.7721
22.0215
21.1438
20.1464
19.0717
-2771.51
-2857.15
-2980.16
-3120.26
-3301.02
-3493.74
-3674.9
-3818.44
-3903.76
-3919.25
-3860.41
-3726.11
-3522.37
-3270.02
-2997.89
-2731.97
-2487.77
-2268.34
-2067.42
-1874.04
-1675.31
-1458.18
-1211.79
-932.169
-623.932
-301.453
10.237
279.94
480.033
597.267
636.916
617.901
562.952
490.853
414.11
340.385
274.169
217.599
171.093
133.945
104.936
82.7336
66.0502
53.7456
44.8504
38.5647
34.2432
31.376
29.567
28.5151
27.9953
27.8427
27.9393
28.2017
28.5717
29.0102
29.4892
29.9889
30.4947
30.9949
31.4794
31.9377
32.3583
32.7276
33.0307
33.2518
33.3761
33.3901
33.2833
33.048
32.6797
32.1764
31.5384
30.7678
29.8681
28.844
27.7003
26.4435
25.0791
23.6317
770.625
1179.59
1729.17
2334.62
2989.34
3650.51
4322.77
4984.25
5584.18
6068.5
6404.54
6584.72
6615.42
6506.72
6272.07
5932
5511.85
5040.89
4545.25
4045.26
3555.23
3085.09
2641.71
2229.36
1850.57
1506.11
1199.16
935.208
719.959
555.779
438.477
358.015
302.309
261.35
229.247
203.576
183.395
167.719
155.172
144.368
134.362
124.728
115.408
106.523
98.2314
90.6532
83.8511
77.8346
72.5747
68.0192
64.1045
60.7639
57.9322
55.5485
53.5572
51.9091
50.5606
49.4733
48.6114
47.9399
47.422
47.0171
46.6811
46.3683
46.0353
45.6447
45.1681
44.5867
43.8898
43.0731
42.1361
41.0808
39.9102
38.6282
37.2391
35.7476
34.1586
32.4785
30.7144
28.8758
16259.7
15894.6
15350.8
14482
13184.4
11669.5
10132.2
8708.87
7434.71
6289.25
5251.65
4315.91
3481.31
2750.48
2126.99
1614.12
1209.42
905.691
691.72
552.85
470.775
424.887
396.695
373.728
349.945
325.968
304.381
285.392
266.866
247.29
225.458
201.127
175.34
149.987
127.258
109.218
97.3151
91.8017
91.5544
94.5976
98.8759
102.834
105.597
106.846
106.621
105.146
102.711
99.6054
96.083
92.354
88.583
84.8927
81.371
78.0774
75.0505
72.3138
69.8804
67.7558
65.9376
64.4126
63.153
62.1123
61.2254
60.4144
59.6003
58.716
57.7161
56.5787
55.3009
53.8906
52.3598
50.7207
48.9835
47.1566
45.2464
43.2585
41.1977
39.0698
36.8823
34.6338
-8344.08
-8378.41
-8467.07
-8516.48
-8515.33
-8396.38
-8173.51
-7880.39
-7557.98
-7230.07
-6882.22
-6483.67
-6014.83
-5482.2
-4912.71
-4338.04
-3783.09
-3265.22
-2794.36
-2374.36
-2005.18
-1684.74
-1408.9
-1170.98
-962.908
-776.909
-607.817
-453.391
-312.109
-186.144
-78.8422
7.13603
71.0408
114.458
140.982
155.329
162.126
164.879
165.583
165.001
163.262
160.41
156.613
152.131
147.221
142.075
136.82
131.533
126.269
121.073
115.991
111.072
106.365
101.915
97.7626
93.9429
90.4817
87.3957
84.6894
82.3508
80.3465
78.6177
77.0815
75.6399
74.1954
72.6687
71.011
69.2047
67.2562
65.1839
63.0094
60.7512
58.4234
56.0356
53.5945
51.1044
48.569
45.9922
43.3802
40.7229
-14653.1
-14105.1
-13426.6
-12647.7
-11706.1
-10645.6
-9507.71
-8391.51
-7404.18
-6568.71
-5804.1
-5011.51
-4180.98
-3385.48
-2699.48
-2156.4
-1753.71
-1466.03
-1258.96
-1101.69
-971.547
-855.13
-749.837
-655.561
-572.696
-497.313
-422.344
-342.441
-257.33
-169.992
-85.5266
-8.9491
56.0373
107.457
145.08
170.282
185.272
192.53
194.62
193.412
190.151
185.655
180.422
174.754
168.842
162.828
156.829
150.934
145.212
139.713
134.472
129.513
124.854
120.505
116.47
112.75
109.34
106.229
103.395
100.809
98.4252
96.186
94.021
91.8557
89.6231
87.2752
84.7909
82.1741
79.4463
76.6353
73.767
70.8612
67.9302
64.981
62.0162
59.0369
56.0431
53.036
50.0196
46.9783
10859.6
10679.6
10458.3
10170.8
9813.5
9434.34
9031.87
8530.07
7801.49
6776.28
5555.38
4362.12
3367.85
2612.92
2066.54
1688.24
1439.34
1283.53
1188.5
1125
1067.47
996.372
901.153
783.214
651.976
519.39
397.693
297.265
223.341
176.291
153.295
148.713
156.553
171.252
187.423
200.313
207.148
207.585
202.865
194.969
186.119
177.582
170.158
164.012
158.855
154.511
150.851
147.685
144.842
142.185
139.613
137.057
134.486
131.89
129.276
126.66
124.058
121.483
118.937
116.414
113.892
111.342
108.729
106.021
103.191
100.229
97.1356
93.9279
90.6296
87.2677
83.8667
80.4462
77.0199
73.5957
70.1779
66.7682
63.3674
59.9764
56.5998
53.2232
5856.12
5707.26
5513.22
5271.24
4969.54
4657.42
4363.05
4100.85
3868.22
3644.35
3401.75
3124.51
2815.3
2488.63
2160.81
1843.68
1540.89
1251.3
973.888
709.698
462.471
237.418
40.194
-124.141
-251.838
-341.298
-392.368
-404.719
-378.927
-319.341
-237.509
-146.98
-63.4448
0.676277
41.4038
62.5516
71.0327
74.3648
78.8141
87.5856
100.204
114.43
128.025
139.642
148.86
155.581
159.957
162.333
163.095
162.603
161.175
159.063
156.466
153.537
150.393
147.12
143.785
140.427
137.071
133.72
130.365
126.987
123.561
120.066
116.485
112.813
109.053
105.22
101.333
97.4133
93.4825
89.5579
85.6525
81.7748
77.9295
74.119
70.3443
66.6061
62.9084
59.2426
-8077.69
-8098.98
-8081.8
-7952.7
-7730.85
-7429.72
-7081.72
-6707.7
-6317.91
-5916.69
-5506.76
-5091.68
-4674.82
-4259.07
-3847.15
-3443.34
-3053.79
-2685.87
-2346.21
-2039.43
-1767.96
-1532.06
-1329.71
-1156.94
-1008.82
-881.455
-770.965
-671.764
-575.334
-473.446
-358.324
-228.889
-91.5204
37.3743
134.534
184.969
194.394
182.674
166.904
155.857
151.4
152.198
156.062
161.27
166.699
171.605
175.566
178.399
180.08
180.66
180.236
178.922
176.844
174.131
170.912
167.306
163.424
159.357
155.176
150.932
146.653
142.35
138.024
133.668
129.276
124.847
120.383
115.894
111.394
106.902
102.434
98.0042
93.6256
89.3059
85.0502
80.861
76.739
72.6845
68.6992
64.7799
-2480.14
-2140.82
-1702.25
-1264.31
-848.643
-491.272
-165.662
147.094
446.871
722.47
959.396
1141
1256.37
1308.87
1310.72
1274.73
1211.83
1131.67
1042.72
951.776
863.718
781.98
709.17
647.341
597.981
561.54
536.357
518.696
502.622
482.875
454.95
414.515
363.1
312.299
276.145
260.811
263.974
279.697
301.244
322.406
338.712
347.995
350.095
345.957
337.05
324.917
310.929
296.187
281.489
267.355
254.096
241.805
230.478
220.048
210.43
201.537
193.28
185.579
178.36
171.556
165.104
158.945
153.024
147.293
141.712
136.25
130.887
125.611
120.417
115.308
110.286
105.358
100.528
95.7974
91.1692
86.6429
82.2174
77.8906
73.6618
69.5288
16054.4
15870.2
15612.4
15193.7
14538.2
13746.6
12814.7
11687.2
10383
9088.45
7984.87
7040.59
6160.26
5360.08
4681.48
4117.61
3645.84
3249.55
2915.89
2632.99
2389.19
2174.13
1980.15
1802.93
1641.16
1495.88
1369.85
1266.28
1187.06
1131.98
1096.82
1071.34
1045.34
1012.7
970.225
917.313
855.667
788.55
719.938
653.625
592.476
538.06
490.78
450.214
415.717
386.323
361.003
338.855
319.191
301.574
285.392
270.503
256.838
244.294
232.767
222.14
212.299
203.139
194.568
186.503
178.875
171.618
164.678
158.007
151.565
145.322
139.253
133.343
127.581
121.962
116.482
111.141
105.937
100.87
95.9375
91.1374
86.4663
81.9206
77.4978
73.1924
3572.77
3705.28
3884.39
4025.75
4068.71
3954.69
3691.51
3333.1
2968.22
2675.21
2457.62
2267.69
2103.82
2006.47
1985.18
2017.27
2079.73
2151.73
2216.33
2257.96
2261.34
2214.99
2116.26
1974.45
1808.95
1642.72
1494
1370.7
1270.98
1188.09
1114.8
1047.26
983.459
921.936
862.257
804.335
748.395
695.302
645.759
600.281
559.142
521.963
488.629
458.761
431.657
406.794
383.741
362.184
341.884
322.681
304.862
288.427
273.283
259.355
246.549
234.752
223.848
213.725
204.279
195.418
187.062
179.144
171.602
164.386
157.454
150.77
144.307
138.044
131.966
126.062
120.324
114.748
109.328
104.061
98.9428
93.9707
89.141
84.4506
79.8981
75.4731
-18133
-17587.1
-16910.2
-16180.1
-15364.5
-14490.8
-13555
-12578.4
-11591.9
-10616.2
-9663.14
-8751.23
-7899.73
-7121.04
-6422.29
-5803.61
-5252.01
-4741.1
-4245.1
-3745.23
-3232.81
-2709.92
-2186.03
-1673.32
-1185.47
-741.583
-367.012
-81.9769
113.003
236.746
313.885
363.296
396.133
418.503
433.76
443.684
449.062
450.021
446.853
439.988
429.998
417.604
403.512
388.295
372.445
356.355
340.452
325.097
310.501
296.748
283.836
271.721
260.339
249.612
239.462
229.818
220.62
211.819
203.375
195.258
187.44
179.898
172.611
165.56
158.727
152.097
145.656
139.393
133.3
127.369
121.595
115.973
110.499
105.171
99.9856
94.9408
90.0358
85.2709
80.6493
76.1569
1701.48
1613.7
1471.64
1271.62
1005.03
742.515
515.386
338.944
227.191
190.709
230.5
331.04
457.242
563.203
607.423
564.907
430.367
217.107
-48.4672
-336.142
-617.336
-865.604
-1055.56
-1165.7
-1186.92
-1128.93
-1015.51
-871.908
-716.983
-562.569
-415.848
-281.517
-162.501
-59.5384
27.3388
98.7131
155.728
199.924
233.078
257.019
273.491
284.007
289.622
291.091
289.46
285.593
280.072
273.389
266.005
258.332
250.667
243.166
235.863
228.719
221.67
214.672
207.708
200.79
193.936
187.17
180.507
173.955
167.52
161.202
154.999
148.91
142.93
137.059
131.295
125.637
120.084
114.636
109.295
104.061
98.9361
93.9233
89.0273
84.2553
79.6185
75.1041
17536.1
17312.9
17025
16581.8
15907.7
15061.7
14102.2
13095
12100.7
11159.9
10292.3
9502.33
8786.05
8134.31
7534.18
6972.18
6437.82
5925.09
5430.76
4952.93
4487.91
4030.31
3576.56
3128.89
2696.36
2291.06
1922.76
1596.55
1313
1070.42
866.785
700.469
569.299
468.28
392.297
335.914
293.967
262.532
238.928
221.473
209.053
200.784
195.909
193.891
194.009
195.354
197.394
199.638
201.631
203.024
203.597
203.255
201.987
199.845
196.92
193.328
189.193
184.639
179.776
174.695
169.468
164.151
158.784
153.395
148.006
142.629
137.277
131.955
126.669
121.424
116.224
111.073
105.974
100.932
95.9527
91.0424
86.2108
81.4708
76.8414
72.3115
-6491.28
-6032.84
-5404.05
-4658.48
-3759.2
-2776.88
-1729.8
-664.028
339.693
1200.76
1878.24
2371.6
2694.9
2864.26
2901.92
2838.34
2708.09
2543.49
2370.32
2203.9
2049.95
1907.31
1771.2
1636.02
1496.99
1351.31
1198.39
1039.36
879.059
724.048
581.487
457.273
354.608
275.235
218.098
180.161
157.596
146.27
142.382
142.921
145.78
149.659
153.905
158.362
162.489
166.324
169.793
172.721
174.969
176.466
177.181
177.132
176.382
175.016
173.124
170.787
168.071
165.032
161.714
158.154
154.384
150.433
146.328
142.093
137.747
133.309
128.793
124.215
119.585
114.914
110.211
105.485
100.743
95.9927
91.2423
86.5003
81.7771
77.0868
72.4489
67.8478
-4707.5
-4892.86
-5143.84
-5416.31
-5685.27
-5914.68
-6094.57
-6221.09
-6302.43
-6356.95
-6399.18
-6428.72
-6433.11
-6399.64
-6321.4
-6194.72
-6019.11
-5796.49
-5530.72
-5227.33
-4892.99
-4535.09
-4160.99
-3777.23
-3389.48
-3001.9
-2618.22
-2242.57
-1879.64
-1534.3
-1210.76
-914.125
-649.781
-422.414
-235.128
-89.0156
17.3426
88.8305
132.917
157.694
170.143
175.446
176.946
176.379
174.983
173.377
171.819
170.387
169.046
167.713
166.297
164.721
162.935
160.915
158.658
156.176
153.488
150.617
147.584
144.407
141.102
137.682
134.157
130.533
126.816
123.009
119.115
115.137
111.077
106.941
102.731
98.4517
94.1082
89.7036
85.2407
80.7205
76.1425
71.5045
66.8003
61.974
9.29053
7.97746
6.23204
4.16513
1.86733
-0.557227
-2.97869
-5.24503
-7.20376
-8.72069
-9.71038
-10.1784
-10.1805
-9.78183
-9.0767
-8.16188
-7.12308
-6.02859
-4.92973
-3.86441
-2.86136
-1.94577
-1.14209
-0.4246
0.205987
0.755938
1.22276
1.61826
1.9541
2.24118
2.48956
2.70826
2.90523
3.08731
3.26004
3.42775
3.59364
3.75988
3.92777
4.0979
4.27019
4.44375
4.6165
4.78497
4.94415
5.08759
5.20906
5.30217
5.36105
5.38171
5.3624
5.30362
5.20832
5.08131
4.92853
4.75642
4.5712
4.37828
4.18178
3.98442
3.7876
3.59161
3.39578
3.19874
2.99855
2.79283
2.57886
2.35355
2.11342
1.85456
1.57241
1.26166
0.91604
0.528351
0.0907986
-0.404272
-0.963157
-1.58926
-2.28163
-3.03391
-3.83401
-4.66434
-5.50228
-6.32111
-7.09126
-7.78211
-8.3643
-8.81218
-9.10588
-9.2332
-9.19268
-8.9895
-8.63824
-8.16035
-7.5819
-6.93121
-6.2365
-5.524
-4.81648
-4.13241
-3.48557
-2.88505
-2.33566
-1.83862
-1.39246
-0.99388
-0.638584
-0.321887
-0.0391897
0.213744
0.440658
0.644797
0.828971
0.995663
1.14715
1.28563
1.41323
1.53195
1.64346
1.74885
1.84851
1.94217
2.02915
2.10866
2.17983
2.2422
2.2956
2.34027
2.37679
2.40592
2.42854
2.44556
2.45778
2.46592
2.47054
2.47205
2.4707
2.46661
2.45977
2.45012
2.43753
2.42181
2.40272
2.37993
2.35315
2.32208
2.28652
2.24637
2.20164
2.15247
2.09905
2.04155
1.98003
1.9143
1.84388
1.76799
1.68558
1.59538
1.49599
1.38589
1.26358
1.12764
0.976868
0.810402
0.627784
0.429057
0.214829
-0.0136779
-0.25458
-0.505328
-0.762744
-1.02311
-1.28226
-1.53578
-1.77908
-2.00761
-2.21701
-2.40326
-2.56285
-2.69287
-2.79111
-2.85609
-2.88719
-2.88441
-2.84846
-2.78068
-2.68296
-2.55765
-2.40748
-2.23545
-2.04482
-1.83886
-1.62117
-1.39471
-1.16395
-0.929559
-0.700844
-0.467002
-0.263701
-0.0258728
11.2645
9.50671
7.30567
4.75894
1.96262
-0.960747
-3.85022
-6.52468
-8.80966
-10.558
-11.6777
-12.216
-12.1946
-11.7093
-10.8724
-9.79449
-8.57141
-7.27757
-5.96728
-4.68087
-3.44953
-2.30533
-1.28973
-0.38643
0.4141
1.11289
1.7025
2.19694
2.61154
2.9602
3.25539
3.50814
3.72806
3.92326
4.10037
4.2647
4.42028
4.56991
4.71534
4.85755
4.99693
5.13323
5.26547
5.39174
5.50901
5.61302
5.69889
5.76116
5.79441
5.79395
5.75681
5.68225
5.57193
5.4295
5.26019
5.07031
4.86641
4.65438
4.43884
4.22285
4.00804
3.79478
3.58237
3.3693
3.15348
2.93241
2.70321
2.46264
2.20712
1.93263
1.63456
1.30753
0.945216
0.540305
0.0848059
-0.429272
-1.00871
-1.65752
-2.37535
-3.15632
-3.98849
-4.85396
-5.7294
-6.58697
-7.3957
-8.12339
-8.73901
-9.21509
-9.53026
-9.67056
-9.63523
-9.42697
-9.06092
-8.55927
-7.9492
-7.26052
-6.52314
-5.76496
-5.01038
-4.27933
-3.58686
-2.94317
-2.35389
-1.8208
-1.34265
-0.916118
-0.536669
-0.199256
0.101128
0.369124
0.608854
0.823887
1.01728
1.19167
1.34937
1.49251
1.62312
1.74313
1.85423
1.95762
2.05394
2.14323
2.22502
2.29872