/*--------------------------------*- C++ -*----------------------------------*\
| =========                 |                                                 |
| \\      /  F ield         | OpenFOAM: The Open Source CFD Toolbox           |
|  \\    /   O peration     | Version:  2012                                  |
|   \\  /    A nd           | Website:  www.openfoam.com                      |
|    \\/     M anipulation  |                                                 |
\*---------------------------------------------------------------------------*/
FoamFile
{
    version     2.0;
    format      ascii;
    class       volVectorField;
    location    "0.29";
    object      U;
}
// * * * * * * * * * * * * * * * * * * * * * * * * * * * * * * * * * * * * * //

dimensions      [0 1 -1 0 0 0 0];


internalField   nonuniform List<vector> 
42400
(
(3.86113 -3.1134 -3.01044e-18)
(6.19134 -4.26684 -2.15295e-18)
(5.04531 -1.90766 2.39723e-18)
(7.49 -1.61972 0)
(14.4707 -5.18715 0)
(23.427 -9.85042 -3.73941e-19)
(32.3225 -13.8081 0)
(39.7511 -15.9299 3.35131e-19)
(44.7613 -15.7148 0)
(46.7919 -13.2428 2.67959e-19)
(45.7435 -9.2061 2.29395e-19)
(42.0958 -4.75556 -1.94454e-19)
(36.9106 -1.07948 -2.01472e-17)
(31.4307 1.15757 2.05475e-17)
(26.5834 2.0356 -1.35776e-19)
(22.7766 2.00637 0)
(20.0285 1.45447 0)
(18.2258 0.612277 0)
(17.2438 -0.391458 0)
(16.9116 -1.49605 0)
(16.9283 -2.62262 0)
(16.8253 -3.55122 -2.03733e-19)
(16.0609 -3.91103 -1.34533e-17)
(14.1792 -3.31134 2.20459e-18)
(10.9646 -1.50476 1.12459e-17)
(6.46428 1.51878 -1.4706e-19)
(1.11429 5.44937 -1.28141e-19)
(-4.32402 9.61332 2.21914e-19)
(-8.97421 13.0877 0)
(-12.0365 15.0971 0)
(-13.2064 15.4118 2.67207e-18)
(-12.8428 14.423 -2.70199e-18)
(-11.6826 12.8515 7.81056e-20)
(-10.404 11.3149 -2.56127e-19)
(-9.37528 10.1176 2.43026e-19)
(-8.67387 9.30975 0)
(-8.22964 8.81964 0)
(-7.93819 8.54995 0)
(-7.71156 8.41886 0)
(-7.49377 8.36772 3.40769e-18)
(-7.25989 8.35767 -3.41722e-18)
(-7.00524 8.36586 3.95319e-18)
(-6.73155 8.37918 -5.49878e-20)
(-6.43749 8.39023 -8.17929e-18)
(-6.1152 8.39367 4.02311e-18)
(-5.75303 8.38272 -4.18299e-18)
(-5.34015 8.3482 8.64558e-18)
(-4.87016 8.27982 -4.1905e-18)
(-4.3429 8.16786 -2.70601e-19)
(-3.76404 8.00483 4.41289e-18)
(-3.14354 7.78646 -8.74241e-18)
(-2.49395 7.51204 -4.87583e-19)
(-1.82914 7.18414 4.76914e-18)
(-1.1636 6.8083 -5.03419e-19)
(-0.512172 6.39248 0)
(0.110236 5.94659 0)
(0.68933 5.48193 0)
(1.21292 5.01037 4.53162e-19)
(1.67315 4.5431 4.39546e-19)
(2.06885 4.08928 0)
(2.40694 3.65474 6.79891e-18)
(2.70166 3.2417 -7.08363e-18)
(2.9719 2.84931 -6.33777e-18)
(3.23605 2.47463 6.22035e-18)
(3.50818 2.11425 0)
(3.79448 1.76591 0)
(4.09303 1.42877 -5.39784e-18)
(4.39602 1.10338 5.27749e-18)
(4.69328 0.791266 5.97042e-19)
(4.97585 0.494203 0)
(5.23862 0.213695 0)
(5.48158 -0.0493501 5.15309e-19)
(5.70942 -0.294622 4.88821e-19)
(5.92998 -0.522259 0)
(6.15211 -0.732717 4.37001e-19)
(6.38369 -0.926838 3.38232e-18)
(6.63001 -1.10625 -3.28118e-18)
(6.89291 -1.27391 -7.23582e-19)
(7.17463 -1.43035 -2.75052e-18)
(7.40206 -1.63207 -2.39437e-18)
(-1.55642 0.225202 0)
(-0.761803 -5.44841 9.8628e-17)
(9.44479 -13.9099 -1.01076e-16)
(18.8316 -27.9289 0)
(28.1714 -39.4846 0)
(35.6659 -50.4476 8.40637e-17)
(40.9344 -60.1618 -8.5565e-17)
(43.0239 -67.061 -3.34217e-19)
(39.6577 -68.9816 0)
(28.5674 -63.3721 -2.68198e-19)
(9.70895 -49.7218 -2.30099e-19)
(-12.606 -31.6924 -2.63844e-17)
(-31.2919 -16.0016 7.52727e-18)
(-41.5781 -7.59268 2.05783e-17)
(-43.6238 -6.3016 1.19509e-17)
(-40.5026 -8.99299 -1.18173e-17)
(-35.2207 -13.0683 0)
(-29.45 -17.2811 1.57111e-19)
(-24.1514 -20.7464 0)
(-20.3932 -22.414 0)
(-18.9664 -21.5288 0)
(-19.4658 -18.4506 -9.84894e-18)
(-20.6004 -14.72 -5.24671e-19)
(-21.3672 -11.6321 1.12885e-17)
(-21.4699 -9.35602 0)
(-21.1185 -7.57963 2.15314e-19)
(-20.5008 -6.15189 1.32134e-19)
(-19.5981 -5.04623 -2.28327e-19)
(-18.4034 -4.20953 -7.48328e-18)
(-16.9858 -3.60541 7.55421e-18)
(-15.4847 -3.17722 1.8671e-19)
(-14.0392 -2.84764 1.91685e-19)
(-12.7454 -2.56987 -3.20011e-18)
(-11.6431 -2.2984 2.94629e-18)
(-10.7248 -1.99536 6.69633e-19)
(-9.9613 -1.63679 -4.62666e-19)
(-9.31939 -1.21732 0)
(-8.76742 -0.742495 -1.86283e-19)
(-8.27572 -0.220576 0)
(-7.81984 0.337423 -3.4782e-19)
(-7.37953 0.92055 2.94537e-18)
(-6.9435 1.51248 -3.28561e-18)
(-6.51108 2.09088 2.42785e-19)
(-6.08113 2.63768 -2.53832e-19)
(-5.65057 3.13933 -3.39117e-20)
(-5.21681 3.58459 -2.67272e-19)
(-4.77824 3.96395 2.70382e-19)
(-4.335 4.27082 3.94455e-18)
(-3.88852 4.50202 -3.92623e-18)
(-3.44068 4.65787 0)
(-2.99276 4.74154 2.58998e-19)
(-2.54468 4.75804 5.24444e-19)
(-2.09512 4.7133 3.45666e-18)
(-1.64241 4.61354 -3.4314e-18)
(-1.18578 4.46526 -4.68106e-19)
(-0.726127 4.27557 6.90489e-18)
(-0.26599 4.05234 -7.71181e-18)
(0.191166 3.80394 -4.5384e-19)
(0.642091 3.5385 -4.40145e-19)
(1.0846 3.26318 6.48814e-18)
(1.51864 2.98281 -6.38559e-18)
(1.94397 2.70002 3.979e-19)
(2.36114 2.41349 3.53748e-19)
(2.76686 2.12315 0)
(3.15802 1.83074 -4.72804e-18)
(3.53274 1.53945 1.08231e-19)
(3.88839 1.25175 5.64775e-18)
(4.22382 0.970059 0)
(4.541 0.69683 -1.14241e-18)
(4.84518 0.434219 5.19774e-19)
(5.14384 0.18394 4.09958e-18)
(5.44478 -0.0526763 -4.50903e-18)
(5.75406 -0.274592 -4.18132e-18)
(6.07445 -0.481048 4.01285e-18)
(6.40484 -0.671689 -8.35639e-19)
(6.7405 -0.846733 3.10041e-18)
(7.07395 -1.00707 -2.30201e-18)
(7.39607 -1.15391 7.23479e-19)
(7.6975 -1.2886 -3.1488e-18)
(7.93308 -1.425 2.46657e-18)
(3.97389 -2.0555 1.95463e-17)
(14.6067 -1.23523 -8.08247e-20)
(15.7954 -1.4859 1.21214e-19)
(12.198 10.1847 -5.48716e-20)
(7.32808 20.4815 0)
(7.02518 27.4056 -4.6214e-18)
(8.61233 29.9566 2.0301e-17)
(10.83 29.3246 -1.59356e-17)
(12.8477 26.7432 3.0121e-17)
(13.8727 23.4054 2.66699e-18)
(13.2973 20.4911 -3.42078e-17)
(11.3776 18.6785 -2.5902e-19)
(9.15036 17.6995 -2.2093e-19)
(7.47912 16.5926 2.80086e-17)
(6.64033 14.6312 -2.84774e-17)
(6.69008 11.5776 -4.43131e-19)
(7.70909 7.31426 -1.41373e-17)
(9.73787 1.64548 5.51615e-18)
(12.657 -5.42714 9.72693e-18)
(16.2008 -13.3229 -5.34682e-19)
(19.9871 -20.9593 5.69959e-19)
(23.4299 -27.2708 5.95372e-19)
(25.412 -31.2606 0)
(24.7624 -32.0837 -5.63978e-19)
(21.2798 -29.777 -1.79786e-17)
(15.9351 -25.4633 3.6206e-17)
(10.0913 -20.5733 -1.88453e-17)
(4.80258 -16.1211 1.86436e-17)
(0.639891 -12.6148 -1.88769e-17)
(-2.23916 -10.2067 -1.86339e-17)
(-3.94661 -8.79471 3.48721e-17)
(-4.7293 -8.12239 -5.31248e-19)
(-4.87596 -7.88304 -1.6791e-17)
(-4.6577 -7.77532 0)
(-4.29634 -7.56161 0)
(-3.93618 -7.10384 -1.93556e-19)
(-3.64287 -6.37434 0)
(-3.4287 -5.4168 -1.25158e-19)
(-3.28467 -4.30955 8.8139e-18)
(-3.19516 -3.13391 -1.69638e-17)
(-3.14505 -1.95683 8.32229e-18)
(-3.11776 -0.822528 0)
(-3.09751 0.247295 0)
(-3.07741 1.23766 5.62891e-18)
(-3.05338 2.13795 -5.33038e-18)
(-3.02145 2.93715 -3.2038e-19)
(-2.97561 3.62138 0)
(-2.90232 4.1761 0)
(-2.78686 4.58831 4.3713e-18)
(-2.61493 4.8494 -4.34892e-18)
(-2.37559 4.95813 -2.58691e-19)
(-2.06432 4.92342 0)
(-1.68482 4.76481 -4.34815e-18)
(-1.24862 4.51039 3.83077e-18)
(-0.772547 4.19258 -6.80681e-18)
(-0.275382 3.84309 7.22056e-18)
(0.225491 3.48899 -6.36444e-18)
(0.715412 3.14923 1.32816e-17)
(1.18343 2.83546 -1.27956e-17)
(1.62119 2.55007 1.46406e-19)
(2.02491 2.29189 5.9865e-18)
(2.39232 2.05253 5.61321e-18)
(2.72993 1.82881 -5.86775e-18)
(3.0502 1.61805 0)
(3.35794 1.41051 4.28192e-18)
(3.65919 1.19991 -1.13084e-19)
(3.96236 0.984992 -5.75078e-18)
(4.27515 0.76661 0)
(4.60333 0.546871 1.03399e-18)
(4.94978 0.328637 3.39335e-18)
(5.31361 0.114986 -3.37114e-18)
(5.69007 -0.0912884 0)
(6.07107 -0.288088 0)
(6.44635 -0.47427 -4.22115e-19)
(6.80491 -0.649735 3.98618e-19)
(7.13634 -0.815322 2.13742e-18)
(7.43188 -0.97253 -3.43575e-18)
(7.68509 -1.12314 0)
(7.89104 -1.2698 6.17112e-19)
(8.05528 -1.40197 2.16364e-18)
(12.4484 -9.46831 -6.74438e-18)
(34.8572 -29.0775 7.79514e-18)
(62.1637 -46.2981 -3.11711e-18)
(83.3097 -61.8543 2.46106e-18)
(94.7735 -68.0759 -2.67572e-18)
(92.9913 -66.0492 0)
(79.8483 -57.5854 2.94421e-17)
(60.3086 -45.8754 -2.95826e-17)
(39.1561 -33.4928 4.35498e-17)
(19.0047 -21.6518 -4.45071e-17)
(0.993255 -10.8516 5.47779e-17)
(-13.8189 -1.69056 -1.16777e-16)
(-24.4411 5.22625 1.25119e-16)
(-30.7132 9.88311 -1.32889e-16)
(-33.3374 12.7667 1.38454e-16)
(-33.0816 14.358 -7.08663e-17)
(-30.7612 15.0192 -7.06023e-17)
(-27.8697 15.4532 1.40483e-16)
(-25.7272 16.1869 -7.06555e-17)
(-23.7429 16.4421 5.27682e-19)
(-20.4528 14.9508 3.55678e-19)
(-15.9325 11.7701 -6.53988e-17)
(-11.3413 7.92826 6.48797e-17)
(-8.10046 4.75456 5.89012e-19)
(-6.87392 3.02342 0)
(-7.24392 2.83303 5.48283e-19)
(-8.20318 3.83957 0)
(-8.94941 5.58193 4.11614e-17)
(-9.2224 7.61244 -4.64586e-18)
(-9.10478 9.57347 -3.73538e-17)
(-8.66548 11.1276 -2.92192e-17)
(-7.90406 12.0088 2.88853e-17)
(-6.82985 12.0588 -9.5215e-21)
(-5.52465 11.3438 -5.31584e-19)
(-4.12726 10.0597 -1.44744e-17)
(-2.815 8.49251 1.50001e-17)
(-1.7225 6.91155 0)
(-0.905831 5.50136 9.2369e-18)
(-0.349706 4.35649 -8.97622e-18)
(-0.000140348 3.50452 4.95412e-19)
(0.202369 2.9324 -4.8809e-19)
(0.30757 2.61494 0)
(0.356094 2.52833 0)
(0.372418 2.64327 0)
(0.368544 2.92659 -3.67226e-19)
(0.352579 3.34195 5.36033e-18)
(0.32456 3.84266 -5.02791e-18)
(0.287711 4.38197 0)
(0.254845 4.92191 0)
(0.23847 5.42059 4.26948e-18)
(0.25065 5.83979 -3.98535e-18)
(0.302084 6.14913 3.91754e-18)
(0.400161 6.32772 -2.94503e-18)
(0.547653 6.36517 4.34052e-19)
(0.742579 6.26226 -2.9993e-18)
(0.978047 6.03047 3.80154e-18)
(1.24242 5.69123 -6.18661e-18)
(1.51993 5.27256 5.76094e-18)
(1.79413 4.8062 0)
(2.05227 4.32024 -3.15159e-19)
(2.29021 3.83818 -5.1142e-18)
(2.51619 3.37514 4.26573e-19)
(2.74144 2.93344 9.76707e-18)
(2.97945 2.50747 -8.82614e-18)
(3.24743 2.1008 3.89693e-18)
(3.55423 1.7164 4.12911e-18)
(3.90074 1.35596 -3.03904e-18)
(4.28226 1.02113 -4.47716e-19)
(4.68978 0.712786 -3.68478e-18)
(5.11146 0.430852 3.53739e-18)
(5.53391 0.174192 -8.3557e-19)
(5.94364 -0.059178 -3.51409e-18)
(6.32828 -0.27183 3.05711e-18)
(6.67772 -0.466662 0)
(6.98484 -0.646649 -2.67308e-18)
(7.2459 -0.814634 7.5042e-19)
(7.46047 -0.973151 5.38909e-18)
(7.631 -1.12424 -2.30148e-18)
(7.76336 -1.26679 2.09061e-18)
(7.85055 -1.40599 -2.03984e-18)
(22.6976 -14.5208 3.55455e-17)
(63.3215 -40.4499 0)
(85.2372 -57.0405 0)
(78.2065 -53.3803 3.94312e-19)
(46.4372 -35.5687 0)
(5.17358 -12.3537 0)
(-28.6175 5.03415 0)
(-46.4477 11.4159 -3.16061e-19)
(-50.515 8.97302 0)
(-47.2173 2.7841 -2.09287e-19)
(-40.9076 -3.63489 1.12623e-16)
(-33.5516 -8.68557 -2.27374e-16)
(-25.9887 -11.9853 1.1572e-16)
(-18.2687 -15.0595 0)
(-10.1185 -19.594 -6.7506e-19)
(-1.98267 -24.9699 3.65684e-19)
(4.69289 -29.368 0)
(8.33242 -31.4159 7.18082e-17)
(8.18197 -31.1665 -1.36099e-16)
(5.55192 -30.1719 8.75798e-18)
(2.8764 -30.0431 5.49184e-17)
(0.795838 -31.0559 9.05672e-19)
(-1.11531 -33.1299 0)
(-3.18272 -36.2968 -4.07279e-17)
(-5.05295 -40.4681 4.12041e-17)
(-6.03261 -44.8357 -3.62386e-17)
(-6.01258 -47.8097 3.67357e-17)
(-5.72516 -47.9525 2.94108e-17)
(-5.94177 -45.1188 -2.91234e-17)
(-6.81022 -40.3659 0)
(-7.99842 -34.9905 -1.93293e-17)
(-9.14655 -29.7997 1.95044e-17)
(-10.0032 -25.1322 6.21423e-19)
(-10.4339 -21.069 -1.38572e-17)
(-10.4006 -17.6548 1.44993e-17)
(-9.93784 -14.8642 -1.67944e-19)
(-9.1326 -12.6234 -2.36046e-19)
(-8.10326 -10.8286 -1.06206e-17)
(-6.96885 -9.37069 1.06697e-17)
(-5.82628 -8.15366 8.90691e-18)
(-4.74532 -7.09562 -2.29663e-19)
(-3.77865 -6.13555 -8.83828e-18)
(-2.96542 -5.23331 0)
(-2.32708 -4.35937 3.47495e-19)
(-1.87021 -3.49549 -5.46287e-18)
(-1.5851 -2.6324 1.21678e-17)
(-1.44532 -1.7644 -1.09951e-17)
(-1.42001 -0.90013 5.00982e-18)
(-1.47505 -0.0615503 0)
(-1.57199 0.724878 2.39389e-19)
(-1.67173 1.43419 -4.0077e-18)
(-1.7396 2.04231 3.94512e-18)
(-1.7509 2.53132 -6.78059e-20)
(-1.69088 2.89098 -3.29221e-18)
(-1.55469 3.11941 2.43483e-18)
(-1.34619 3.22306 -2.83733e-18)
(-1.07522 3.21519 -2.85559e-18)
(-0.753885 3.11367 5.63087e-18)
(-0.392768 2.93848 -4.81209e-18)
(0.00146553 2.70934 5.05711e-18)
(0.426423 2.4438 0)
(0.882476 2.15665 -2.88136e-19)
(1.37129 1.86027 -4.07919e-18)
(1.88967 1.56602 3.47211e-18)
(2.43207 1.28091 9.43891e-19)
(2.98999 1.00865 0)
(3.55282 0.751727 3.38199e-18)
(4.10893 0.51184 -2.92042e-18)
(4.64649 0.289788 -4.28983e-19)
(5.15452 0.0855523 -3.56397e-19)
(5.62375 -0.101539 7.32406e-19)
(6.04734 -0.272638 4.78995e-20)
(6.42129 -0.429216 -2.93697e-18)
(6.74449 -0.57292 2.5548e-18)
(7.01854 -0.705485 -2.79246e-19)
(7.24729 -0.828706 0)
(7.43625 -0.94445 -2.67548e-18)
(7.59222 -1.05408 2.04252e-18)
(7.72213 -1.15829 0)
(7.81208 -1.28119 -1.75769e-18)
(19.5852 -11.8733 -3.26135e-19)
(35.8413 -23.5748 -1.62527e-18)
(24.3579 -18.1366 -2.87278e-18)
(4.29152 -9.13544 8.7759e-18)
(-10.9427 -2.34433 -6.74091e-18)
(-23.2752 5.57525 -1.11356e-18)
(-32.8528 15.004 -1.96609e-17)
(-39.6708 25.6198 2.08929e-17)
(-43.7472 36.3409 9.92012e-19)
(-44.2346 45.6215 1.13909e-18)
(-39.296 52.6781 2.44312e-17)
(-27.1401 57.391 1.61402e-17)
(-12.1783 62.8124 -4.14224e-17)
(-4.77062 75.2888 2.14791e-17)
(-6.61467 89.4433 -4.00537e-17)
(-11.1361 95.0472 1.9599e-17)
(-14.8254 93.5547 0)
(-19.0578 90.501 0)
(-25.3911 87.1729 -4.86524e-17)
(-33.3732 83.4167 -3.24699e-18)
(-41.9812 79.5597 5.37695e-17)
(-50.7553 75.8983 -5.10491e-17)
(-59.7284 72.3057 9.87052e-17)
(-68.2292 68.1893 -4.75033e-17)
(-72.4966 61.3711 -3.42748e-17)
(-64.799 47.7776 7.15501e-18)
(-41.9016 25.9542 2.81582e-17)
(-13.9233 2.08868 -2.38833e-19)
(4.91485 -14.8741 1.7627e-19)
(11.0852 -22.4123 -2.44714e-19)
(10.1653 -24.1204 0)
(7.45435 -23.7483 -2.7243e-18)
(5.01421 -22.8558 3.56594e-18)
(3.19773 -21.814 -7.64483e-19)
(1.91932 -20.6999 0)
(1.05473 -19.5451 -3.11804e-18)
(0.490881 -18.3718 3.13355e-18)
(0.130138 -17.194 0)
(-0.102731 -16.0202 0)
(-0.260942 -14.8568 -4.1035e-18)
(-0.382346 -13.7079 4.33206e-18)
(-0.493443 -12.5759 1.7869e-19)
(-0.613175 -11.461 0)
(-0.753388 -10.3623 3.83353e-18)
(-0.919605 -9.27845 -4.60761e-19)
(-1.11173 -8.2089 -4.35258e-18)
(-1.32334 -7.1556 -1.84318e-19)
(-1.542 -6.12401 4.49925e-19)
(-1.75202 -5.12184 0)
(-1.93643 -4.16257 -3.4361e-18)
(-2.08084 -3.26297 6.12413e-18)
(-2.16553 -2.43252 -3.14541e-18)
(-2.17437 -1.68048 -3.95418e-19)
(-2.10264 -1.02155 -2.91685e-18)
(-1.94914 -0.465182 4.5625e-19)
(-1.71653 -0.0146475 4.67554e-18)
(-1.41083 0.331902 -1.71275e-18)
(-1.03992 0.580553 0)
(-0.612142 0.740699 0)
(-0.135448 0.823858 2.17116e-19)
(0.3825 0.84252 2.10296e-19)
(0.934355 0.808992 0)
(1.51215 0.734793 3.1924e-18)
(2.10718 0.630561 -3.1368e-18)
(2.71021 0.505964 -3.62499e-18)
(3.3112 0.369716 -3.06718e-19)
(3.89952 0.229241 2.60274e-18)
(4.46476 0.090565 -2.84447e-18)
(4.9976 -0.0417168 2.77795e-18)
(5.49052 -0.164441 5.1834e-20)
(5.93833 -0.275774 2.16162e-18)
(6.3384 -0.375017 -2.11223e-18)
(6.69046 -0.462369 -1.96488e-18)
(6.99616 -0.538712 2.46405e-18)
(7.2585 -0.605482 -1.77074e-18)
(7.48132 -0.664656 1.99025e-18)
(7.66896 -0.718735 -1.83227e-18)
(7.82634 -0.770397 3.50346e-18)
(7.95816 -0.823694 -4.7158e-20)
(8.04698 -0.912976 -5.23913e-20)
(-13.8368 4.5525 -9.83549e-17)
(-32.7078 5.87197 -5.58861e-19)
(-43.0218 9.57611 1.42261e-16)
(-48.4156 -0.265266 -2.82631e-16)
(-40.8928 -13.9722 1.40987e-16)
(-23.3812 -35.6383 -1.21641e-16)
(-2.88926 -57.3272 9.76401e-18)
(14.9716 -74.1545 1.15827e-16)
(31.4526 -89.2091 -1.00277e-16)
(54.8949 -108.069 9.90745e-17)
(98.5951 -138.74 -7.75561e-17)
(161.879 -183.982 7.89168e-17)
(193.145 -207.324 -4.27729e-17)
(138.922 -168.697 4.34598e-17)
(46.2517 -107.889 -2.50397e-19)
(-12.8425 -72.2 -2.08904e-19)
(-36.7108 -55.3599 -2.37711e-17)
(-46.943 -44.3223 2.41869e-17)
(-53.1413 -35.0297 5.34949e-19)
(-57.6032 -26.3159 -8.96296e-21)
(-60.7529 -17.9924 -2.02858e-17)
(-62.3262 -10.1223 2.04488e-17)
(-61.6427 -3.1082 0)
(-57.769 2.55156 1.55585e-19)
(-49.9098 6.28473 0)
(-38.1551 7.40956 0)
(-24.4053 5.63878 1.50903e-19)
(-11.985 1.8034 9.77736e-18)
(-3.25714 -2.52175 -9.96141e-18)
(1.82023 -6.18721 -3.90097e-18)
(4.49569 -8.80964 4.1923e-18)
(5.78533 -10.4973 -8.42726e-20)
(6.2722 -11.4852 2.99006e-20)
(6.31537 -11.9971 0)
(6.15014 -12.2251 -2.65883e-20)
(5.91609 -12.2871 0)
(5.68268 -12.2305 0)
(5.47285 -12.0795 -6.79645e-20)
(5.2825 -11.8384 0)
(5.09629 -11.5063 0)
(4.89675 -11.0831 2.43511e-18)
(4.66849 -10.5714 -2.22832e-18)
(4.39995 -9.9774 0)
(4.08431 -9.31018 0)
(3.72002 -8.58123 0)
(3.31105 -7.80367 -1.12101e-19)
(2.86673 -6.99165 1.84057e-19)
(2.40111 -6.16018 1.80254e-18)
(1.93208 -5.32497 -1.9702e-18)
(1.4812 -4.50064 1.85321e-18)
(1.06962 -3.69962 -2.08113e-18)
(0.713395 -2.9424 2.31246e-19)
(0.42503 -2.24964 8.37714e-20)
(0.218466 -1.63 0)
(0.102687 -1.09114 0)
(0.0810945 -0.638132 -1.47807e-18)
(0.153164 -0.27243 -2.33117e-19)
(0.315066 0.0076982 1.59755e-18)
(0.561008 0.206984 -1.56123e-18)
(0.884158 0.332869 1.48678e-18)
(1.27663 0.394782 2.78104e-18)
(1.72938 0.403117 -2.15654e-20)
(2.23201 0.369125 -5.55024e-18)
(2.77251 0.304433 2.78902e-18)
(3.3375 0.220404 1.518e-19)
(3.91266 0.127469 3.56478e-19)
(4.48349 0.0345223 2.49861e-18)
(5.03636 -0.0515016 -4.84763e-18)
(5.55953 -0.125841 2.34898e-18)
(6.044 -0.185894 3.04659e-19)
(6.48382 -0.230965 2.11596e-18)
(6.87598 -0.261844 -2.29171e-18)
(7.21984 -0.280342 0)
(7.51638 -0.288883 -2.52035e-19)
(7.76749 -0.290271 0)
(7.97554 -0.287652 1.63604e-18)
(8.14329 -0.284591 -4.17891e-20)
(8.27416 -0.285244 -1.49787e-18)
(8.37305 -0.294245 1.05874e-18)
(8.42425 -0.353 2.54568e-19)
(0.399091 1.38225 -4.20181e-17)
(21.0204 0.554191 6.33206e-17)
(32.3616 -1.80596 4.94162e-19)
(6.43174 23.8531 5.04581e-17)
(-33.913 53.5779 -5.18148e-17)
(-53.2915 73.0659 4.02947e-17)
(-53.5777 80.8522 -7.33578e-17)
(-46.8456 81.5376 3.4553e-17)
(-37.4744 77.7646 -1.91298e-17)
(-26.294 69.2616 2.08563e-17)
(-13.3721 53.8276 0)
(-1.90088 31.7641 8.78581e-19)
(1.69611 10.8828 -4.50568e-19)
(-3.14403 -2.68816 0)
(-5.04283 -13.3935 0)
(-0.186362 -22.4858 0)
(3.79419 -27.3481 0)
(3.50287 -26.8565 1.27113e-19)
(0.0272757 -22.3386 0)
(-4.39808 -16.1771 -8.08243e-18)
(-8.10934 -9.8531 8.28384e-18)
(-10.3021 -4.03436 6.0759e-18)
(-10.7051 0.960152 -6.06814e-18)
(-9.47206 4.91067 5.58335e-19)
(-7.0266 7.6711 -7.76628e-19)
(-3.97989 9.20803 4.09719e-18)
(-1.03639 9.56512 -4.30039e-18)
(1.21142 8.95486 4.75448e-18)
(2.54196 7.67898 -4.59777e-19)
(3.13126 6.00677 -4.25362e-18)
(3.31878 4.1324 0)
(3.38582 2.17933 1.64401e-19)
(3.48994 0.222921 1.82959e-19)
(3.70706 -1.61606 0)
(4.06131 -3.23556 2.66835e-20)
(4.53127 -4.57576 0)
(5.07269 -5.60579 0)
(5.63438 -6.32886 2.32132e-18)
(6.16749 -6.75463 -4.48576e-18)
(6.62811 -6.90418 2.3979e-18)
(6.98084 -6.80754 2.1701e-18)
(7.20078 -6.50158 -2.30459e-18)
(7.27445 -6.02776 -9.31954e-20)
(7.1996 -5.4299 0)
(6.98418 -4.75175 1.63647e-18)
(6.6445 -4.03433 -1.39905e-18)
(6.20295 -3.31348 0)
(5.68543 -2.61785 0)
(5.11937 -1.96723 -9.3784e-19)
(4.53199 -1.37268 1.02905e-18)
(3.94973 -0.838387 1.0573e-18)
(3.39852 -0.365036 -1.00876e-18)
(2.89966 0.0481773 -1.03997e-18)
(2.4737 0.401696 1.93306e-18)
(2.13703 0.693872 -9.75414e-19)
(1.90107 0.921952 -2.62904e-19)
(1.7732 1.08428 0)
(1.75658 1.18182 1.07566e-19)
(1.84978 1.218 -1.01154e-18)
(2.04821 1.19893 2.07636e-18)
(2.34472 1.13358 -1.11712e-18)
(2.72931 1.03317 0)
(3.18868 0.909751 -1.59157e-19)
(3.7062 0.775545 0)
(4.26257 0.64204 -1.51722e-19)
(4.83708 0.51901 -1.1505e-19)
(5.40924 0.413811 -2.2341e-19)
(5.96062 0.331022 -1.95686e-18)
(6.47629 0.272455 1.70378e-18)
(6.94566 0.237498 -1.9838e-19)
(7.36248 0.22367 -1.71492e-18)
(7.72415 0.22728 2.08116e-18)
(8.03067 0.244067 -1.55072e-18)
(8.28347 0.269686 1.50788e-18)
(8.48451 0.299977 -1.546e-18)
(8.63588 0.330965 1.20616e-18)
(8.7399 0.358656 1.24329e-18)
(8.79954 0.378361 -1.20516e-18)
(8.82058 0.386931 3.13948e-19)
(8.7951 0.339797 -2.96326e-19)
(10.513 -4.98128 4.89301e-17)
(30.1429 -9.60932 6.93294e-17)
(49.9616 -20.8992 -1.37685e-16)
(61.8603 -20.8897 1.29834e-16)
(60.2213 -15.3295 -6.3281e-17)
(55.4904 -5.61411 -3.79231e-19)
(50.2086 4.86447 4.74931e-17)
(39.8489 17.6853 -9.3135e-17)
(21.9947 34.2272 2.83323e-18)
(-0.21818 52.8318 4.37277e-17)
(-20.4115 70.03 -4.96616e-20)
(-33.9466 82.7033 -3.66049e-17)
(-41.3235 90.566 3.73682e-17)
(-45.5666 96.301 -2.57563e-17)
(-45.6091 100.491 2.6302e-17)
(-35.5289 97.7009 9.73275e-18)
(-15.125 84.9861 -9.94511e-18)
(5.01536 69.7126 -1.25491e-19)
(15.4485 59.4233 0)
(16.4604 53.5394 7.43457e-18)
(13.1992 48.9087 -7.59185e-18)
(9.2717 44.3732 8.3838e-20)
(5.85962 39.8432 -5.28379e-18)
(3.10138 35.3055 5.19871e-18)
(0.904487 30.7594 2.5935e-19)
(-0.806396 26.2482 0)
(-2.04754 21.7999 -2.71652e-19)
(-2.76131 17.5203 -3.04746e-19)
(-2.9301 13.5061 -9.60652e-18)
(-2.54676 9.84883 1.00114e-17)
(-1.61114 6.61173 1.23944e-17)
(-0.182487 3.82552 -1.23816e-17)
(1.63287 1.51532 3.67751e-19)
(3.68874 -0.322434 -1.30206e-17)
(5.83103 -1.71981 2.446e-17)
(7.92636 -2.70722 -1.19393e-17)
(9.8661 -3.31464 -9.59094e-18)
(11.5654 -3.57443 1.00145e-17)
(12.9625 -3.52199 1.17029e-19)
(14.016 -3.19521 -2.38087e-19)
(14.7035 -2.63418 1.29488e-19)
(15.019 -1.88161 -4.3835e-18)
(14.9729 -0.983323 1.00589e-18)
(14.5901 0.0116887 3.47323e-18)
(13.9099 1.05139 -2.14946e-18)
(12.9849 2.08163 2.02405e-18)
(11.8785 3.04747 0)
(10.663 3.8959 8.30344e-19)
(9.41334 4.58034 -8.16021e-19)
(8.19983 5.06803 3.72766e-19)
(7.07585 5.34532 -1.06479e-19)
(6.07778 5.42119 -1.32311e-20)
(5.21992 5.32606 2.61203e-20)
(4.50153 5.10786 5.20556e-20)
(3.92187 4.81778 -4.02058e-19)
(3.48128 4.49505 7.56503e-20)
(3.18008 4.16551 0)
(3.02056 3.84337 -7.71455e-19)
(3.004 3.52984 5.43038e-19)
(3.12623 3.22342 0)
(3.37856 2.92318 -8.54094e-19)
(3.7469 2.63088 7.01848e-19)
(4.21278 2.35106 0)
(4.75163 2.09081 -7.6264e-20)
(5.33447 1.85709 0)
(5.93127 1.65523 -1.45232e-18)
(6.51427 1.48818 3.2021e-18)
(7.06068 1.35634 -1.48621e-18)
(7.55426 1.25791 2.07056e-19)
(7.9854 1.18947 1.98202e-19)
(8.35013 1.14657 -1.27883e-18)
(8.64857 1.12419 1.06563e-18)
(8.88313 1.11718 -1.183e-19)
(9.0571 1.12055 -1.12683e-19)
(9.1737 1.12967 2.60904e-19)
(9.23585 1.14031 1.45387e-19)
(9.2465 1.14845 1.02596e-18)
(9.20939 1.14948 -2.13745e-20)
(9.13106 1.14163 -9.39315e-19)
(9.0156 1.08381 -1.67033e-19)
(8.80144 -5.90319 0)
(21.8263 -13.623 -1.16793e-19)
(27.7884 -18.9297 -3.07319e-20)
(29.2956 -22.1846 4.19886e-17)
(29.4908 -25.0463 -8.55739e-17)
(27.764 -26.7618 8.7076e-17)
(24.357 -27.6712 -4.42767e-17)
(20.3931 -28.1172 0)
(17.4577 -28.0984 1.26406e-20)
(16.5552 -27.2961 3.55813e-17)
(17.2784 -25.5894 -3.62436e-17)
(18.3862 -23.1011 -2.58345e-17)
(18.7765 -20.0866 4.70254e-17)
(17.5581 -16.6224 -5.63471e-18)
(13.5222 -12.1021 -5.6376e-18)
(5.32234 -5.7825 -1.02172e-17)
(-7.03503 1.92938 5.03684e-20)
(-20.9576 9.29592 -4.06191e-18)
(-33.0199 14.7649 4.04637e-18)
(-41.4977 18.2568 1.45775e-20)
(-46.6572 20.5353 1.06872e-19)
(-49.411 22.1831 1.43736e-19)
(-50.4042 23.4024 -1.38324e-17)
(-49.9364 24.223 -6.58859e-20)
(-48.1186 24.6089 1.43396e-17)
(-44.9921 24.4935 2.37972e-19)
(-40.6554 23.8618 -1.48251e-17)
(-35.2696 22.8033 2.98165e-17)
(-29.0982 21.4108 -2.8831e-17)
(-22.4784 19.8067 1.3841e-17)
(-15.733 18.1299 0)
(-9.16902 16.4506 -2.29452e-17)
(-3.03228 14.8338 4.30037e-17)
(2.52255 13.3602 -2.0336e-17)
(7.40189 12.0743 1.61733e-17)
(11.5566 10.991 -1.6887e-17)
(14.9762 10.1147 -3.72379e-19)
(17.6733 9.44151 0)
(19.6734 8.96172 -8.60681e-20)
(21.0097 8.66245 -6.92653e-18)
(21.7215 8.52867 7.35227e-18)
(21.8544 8.54377 -1.20031e-19)
(21.4611 8.6896 1.00514e-19)
(20.6017 8.94695 0)
(19.3426 9.295 0)
(17.7555 9.71362 1.58921e-18)
(15.9202 10.174 -1.79862e-18)
(13.9193 10.6429 -6.23701e-20)
(11.8367 11.0783 -7.22634e-19)
(9.77121 11.4377 1.30555e-18)
(7.82559 11.6638 -4.86845e-19)
(6.09519 11.6892 0)
(4.6704 11.4909 2.22692e-19)
(3.60593 11.0757 -1.98721e-19)
(2.90199 10.4684 0)
(2.51836 9.72336 1.58745e-19)
(2.39164 8.90958 -1.37551e-19)
(2.45864 8.08636 1.99931e-19)
(2.67637 7.29264 -1.95084e-19)
(3.02307 6.55335 0)
(3.48807 5.87989 7.73027e-20)
(4.05691 5.27257 7.1485e-20)
(4.70458 4.7295 -4.03276e-19)
(5.39946 4.25294 4.83563e-20)
(6.10421 3.84117 4.15317e-19)
(6.78237 3.48942 0)
(7.4051 3.1918 7.47931e-20)
(7.95379 2.94176 0)
(8.41976 2.73302 0)
(8.8018 2.5601 -8.06619e-19)
(9.10328 2.41826 7.86474e-19)
(9.32954 2.30315 6.86985e-19)
(9.48622 2.21047 1.0872e-19)
(9.57835 2.13578 -5.8703e-19)
(9.61013 2.07453 -7.6941e-19)
(9.58525 2.02223 6.42993e-19)
(9.50756 1.97447 -9.69899e-20)
(9.38204 1.9265 -5.83705e-19)
(9.21557 1.87592 1.26698e-18)
(9.02417 1.79254 -3.74126e-19)
(29.4009 -10.0093 6.83888e-17)
(76.3499 -24.2819 -5.10796e-17)
(98.2814 -31.3233 -4.84599e-17)
(104.269 -30.5799 4.95692e-17)
(104.658 -29.7346 1.28352e-20)
(104.353 -29.1016 -5.13188e-22)
(104.415 -29.4837 0)
(103.592 -30.4941 3.48857e-17)
(99.4067 -31.0965 -3.5819e-17)
(89.8622 -30.3126 0)
(74.747 -27.7438 -2.20996e-17)
(55.7379 -23.7211 4.12244e-17)
(35.5594 -19.0593 -3.27838e-18)
(16.8586 -14.6284 -2.96726e-17)
(1.34813 -10.9872 1.37655e-17)
(-10.4326 -8.22742 2.40169e-20)
(-18.759 -6.07142 4.73705e-20)
(-24.2218 -4.14071 0)
(-27.4332 -2.18842 5.02499e-18)
(-28.9187 -0.147327 -5.01199e-18)
(-29.0873 1.93819 -1.0756e-19)
(-28.2288 4.00157 1.4184e-18)
(-26.5453 6.00914 -1.69802e-18)
(-24.2144 7.94242 2.42783e-19)
(-21.3689 9.77812 -2.47484e-19)
(-18.1178 11.4797 -2.41426e-19)
(-14.5465 13.0027 2.65569e-19)
(-10.7393 14.3081 7.67649e-20)
(-6.79157 15.3645 -4.35468e-19)
(-2.81102 16.1426 1.50997e-19)
(1.10651 16.6431 4.83593e-19)
(4.89279 16.9336 7.15812e-19)
(8.47776 17.0853 -6.53249e-19)
(11.7803 17.1221 0)
(14.7316 17.062 3.05865e-19)
(17.2762 16.9252 2.76767e-19)
(19.3626 16.7232 0)
(20.944 16.4654 2.61546e-18)
(21.9816 16.1582 -2.8218e-18)
(22.4522 15.8057 -1.65576e-19)
(22.3558 15.4116 0)
(21.7213 14.982 1.19414e-19)
(20.6079 14.5267 2.09727e-18)
(19.0977 14.0593 -2.16089e-18)
(17.286 13.5954 0)
(15.2695 13.1574 -1.53651e-18)
(13.1367 12.762 1.79785e-18)
(10.9743 12.4283 0)
(8.8547 12.1667 0)
(6.83934 11.9566 -5.40314e-20)
(4.99226 11.779 -4.25245e-20)
(3.38051 11.6189 0)
(2.05896 11.4284 3.67846e-19)
(1.07297 11.1587 -3.86984e-19)
(0.447705 10.7829 -5.18594e-20)
(0.178097 10.2944 1.02256e-19)
(0.232384 9.71055 -2.00435e-19)
(0.56244 9.06512 3.11703e-19)
(1.11603 8.39738 6.65935e-21)
(1.84435 7.74164 -1.22141e-19)
(2.70007 7.12068 -9.953e-21)
(3.63381 6.55324 0)
(4.5915 6.0483 0)
(5.51853 5.60014 -2.73096e-20)
(6.37113 5.20131 5.96837e-20)
(7.12105 4.84459 0)
(7.75683 4.52232 -2.18859e-20)
(8.28107 4.22857 0)
(8.70433 3.96 8.94178e-20)
(9.03891 3.71553 -8.72713e-20)
(9.29477 3.49533 -9.5112e-21)
(9.4784 3.29955 3.09399e-19)
(9.59353 3.12751 -2.41004e-19)
(9.64255 2.97731 7.39627e-21)
(9.6278 2.84598 0)
(9.55245 2.72983 0)
(9.42107 2.62473 0)
(9.24039 2.52646 -3.20368e-19)
(9.01845 2.43085 -6.45143e-20)
(8.77991 2.32456 5.9285e-19)
(13.5066 -4.92239 -5.72336e-18)
(20.1997 -10.0669 -6.74633e-18)
(9.45768 -7.1278 6.90141e-18)
(-6.40084 -4.46451 -3.23241e-18)
(-21.7057 -0.110359 3.56664e-18)
(-39.6954 4.84517 2.49765e-19)
(-58.1955 9.43135 2.34006e-19)
(-73.2656 12.2466 0)
(-81.9678 12.5099 1.63244e-19)
(-83.4829 10.4247 0)
(-78.9627 6.8843 1.65117e-19)
(-70.6025 3.02175 -1.01746e-17)
(-60.5992 -0.204827 1.05364e-17)
(-50.5328 -2.25808 8.08698e-18)
(-41.2704 -3.01007 -8.47335e-18)
(-33.1672 -2.59755 4.93657e-18)
(-26.2687 -1.26281 -4.71094e-18)
(-20.4468 0.750018 0)
(-15.5037 3.2215 0)
(-11.2402 5.96637 0)
(-7.4881 8.84222 3.03053e-18)
(-4.12248 11.736 -7.22977e-18)
(-1.06946 14.5677 -6.12588e-19)
(1.69268 17.2926 1.02237e-17)
(4.18296 19.8603 -5.5965e-18)
(6.41057 22.1749 0)
(8.3882 24.0857 -1.32582e-19)
(10.1364 25.4042 0)
(11.708 25.959 6.10805e-18)
(13.2307 25.6706 -6.1239e-18)
(14.8614 24.5966 -4.51434e-20)
(16.6478 22.9413 0)
(18.4559 21.002 -5.03958e-18)
(20.055 19.0384 9.47256e-18)
(21.2484 17.1958 -4.48959e-18)
(21.9205 15.5252 3.16953e-18)
(22.0097 14.0354 -5.71361e-18)
(21.4897 12.7191 2.53772e-18)
(20.3836 11.5628 0)
(18.7739 10.552 0)
(16.792 9.67233 0)
(14.5931 8.90726 3.33634e-21)
(12.3286 8.23982 -6.51207e-19)
(10.1233 7.65969 6.08104e-19)
(8.05663 7.16037 0)
(6.16387 6.7397 -1.58631e-18)
(4.44387 6.4062 1.53291e-18)
(2.88061 6.164 1.51984e-18)
(1.46174 6.01953 -2.17833e-19)
(0.18577 5.97536 -2.1868e-19)
(-0.935718 6.02537 -2.67349e-19)
(-1.86939 6.14776 -8.61455e-19)
(-2.56872 6.3125 0)
(-2.987 6.48776 0)
(-3.08942 6.64265 2.31792e-19)
(-2.86348 6.75279 -2.97792e-19)
(-2.32314 6.80348 0)
(-1.50746 6.78969 0)
(-0.47575 6.71331 -6.51483e-20)
(0.698242 6.57901 -5.7239e-20)
(1.93451 6.39174 0)
(3.15192 6.17374 0)
(4.28401 5.93155 1.11964e-19)
(5.28416 5.66862 1.02271e-19)
(6.13249 5.39168 -5.23167e-19)
(6.83512 5.10923 9.08621e-19)
(7.41421 4.82849 -2.88778e-20)
(7.89577 4.55548 -6.71882e-19)
(8.29987 4.29517 6.16384e-19)
(8.63645 4.05145 -4.61925e-19)
(8.90679 3.8269 8.63162e-20)
(9.10771 3.62273 1.61214e-19)
(9.2356 3.43879 -1.82546e-19)
(9.28897 3.2738 8.34423e-21)
(9.26935 3.12565 1.88371e-19)
(9.18119 2.99168 -9.06165e-20)
(9.0315 2.86891 0)
(8.82976 2.75438 9.78781e-21)
(8.58695 2.64336 0)
(8.33023 2.53836 -9.20392e-20)
(5.45484 -3.2116 0)
(25.5038 -11.1304 -4.736e-20)
(50.9465 -19.7165 4.68519e-20)
(69.8357 -24.627 6.41762e-17)
(72.068 -23.4871 -1.30415e-16)
(59.312 -17.6723 6.57908e-17)
(41.7467 -10.3525 -2.35272e-19)
(27.8004 -4.25502 0)
(19.8047 -0.247627 0)
(16.3949 1.94622 0)
(15.5447 2.83144 -1.6541e-19)
(15.757 2.80069 -1.05165e-19)
(16.158 2.12453 0)
(16.3051 0.980194 -3.12572e-20)
(16.0218 -0.510008 1.77044e-19)
(15.2948 -2.25437 -3.08031e-17)
(14.2318 -4.18061 3.08892e-17)
(13.0228 -6.23795 3.38764e-20)
(11.8808 -8.37261 0)
(10.9809 -10.5123 -3.66861e-20)
(10.4044 -12.5937 1.55333e-19)
(10.1416 -14.5631 -1.36338e-17)
(10.1031 -16.3926 2.58202e-18)
(10.1262 -18.0829 1.12509e-17)
(9.99793 -19.5638 2.02494e-19)
(9.42539 -20.656 -2.73758e-20)
(8.02488 -21.1527 1.57049e-18)
(5.53479 -20.8364 -1.40773e-18)
(2.21879 -19.6492 4.7965e-21)
(-0.913841 -18.0034 -5.10473e-20)
(-2.6305 -16.652 -3.95187e-20)
(-2.44098 -16.0032 -3.45679e-18)
(-0.860241 -15.8095 3.4975e-18)
(1.23435 -15.6214 7.40486e-21)
(3.19706 -15.2111 2.14747e-20)
(4.69275 -14.5563 2.39324e-20)
(5.60189 -13.707 -1.85594e-20)