/*--------------------------------*- C++ -*----------------------------------*\
| =========                 |                                                 |
| \\      /  F ield         | OpenFOAM: The Open Source CFD Toolbox           |
|  \\    /   O peration     | Version:  2012                                  |
|   \\  /    A nd           | Website:  www.openfoam.com                      |
|    \\/     M anipulation  |                                                 |
\*---------------------------------------------------------------------------*/
FoamFile
{
    version     2.0;
    format      ascii;
    class       volScalarField;
    location    "0.1";
    object      p;
}
// * * * * * * * * * * * * * * * * * * * * * * * * * * * * * * * * * * * * * //

dimensions      [0 2 -2 0 0 0 0];


internalField   nonuniform List<scalar> 
42400
(
-3044.88
-3044.85
-3123.83
-3286.11
-3522.89
-3733.46
-3834.6
-3775.44
-3537.74
-3137.54
-2643.47
-2147.67
-1707.55
-1331.88
-1008.22
-724.995
-478.191
-267.84
-90.828
61.0402
194.545
308.868
399.271
464.25
506.701
531.272
541.988
541.639
532.114
514.629
490.82
461.751
429.677
396.732
363.528
330.544
298.441
268.267
240.744
216.423
195.469
177.701
162.749
150.177
139.555
130.481
122.613
115.675
109.562
103.926
98.4952
93.1587
87.8353
82.4729
77.0501
71.5696
66.0507
60.5219
55.0134
49.5527
44.1603
38.8412
33.6179
28.5092
23.5472
18.7831
14.2851
10.1321
6.40365
3.16733
0.468612
-1.67702
-3.28945
-4.42546
-5.1755
-5.6553
-5.99279
-6.32236
-6.79638
-7.64221
12310.4
12080.8
11679.1
10984.3
9935.65
8791.15
7775.68
6934.18
6187.81
5498.47
4866.58
4278.56
3723.81
3210.21
2752.37
2369.03
2073.24
1854.13
1685.13
1547.66
1436.4
1346.88
1268.67
1190.53
1106.45
1016.56
922.387
826.87
732.847
642.664
558.224
480.867
411.24
350.294
298.534
255.822
221.466
194.388
173.554
157.767
145.875
136.862
129.842
124.068
118.935
113.92
108.636
103.053
97.3015
91.6267
86.0947
80.687
75.3748
70.125
64.9075
59.7006
54.4919
49.2777
44.0585
38.8396
33.6296
28.4585
23.3376
18.3106
13.4393
8.80196
4.48785
0.587418
-2.81809
-5.66735
-7.92826
-9.60483
-10.741
-11.4198
-11.7573
-11.8896
-11.9562
-12.0867
-12.3958
-12.9627
-438.256
-280.705
-35.9772
326.787
826.152
1440.04
2110.11
2756.98
3295.42
3644.28
3767.08
3695.95
3498.44
3238.62
2960.5
2686.23
2420.88
2158.53
1888.52
1602.23
1298.41
986.601
684.664
412.432
186.068
13.2102
-108.347
-186.657
-231.298
-250.213
-249.149
-232.802
-205.866
-173.156
-139.048
-106.732
-77.7958
-52.4161
-30.101
-10.4768
6.50702
20.8405
32.6254
42.0588
49.3511
54.6914
58.6435
61.35
62.724
62.8765
61.9883
60.2112
57.6833
54.5329
50.874
46.8064
42.4161
37.7754
32.9494
27.9963
22.9421
17.8671
12.8398
7.93065
3.22385
-1.18703
-5.20604
-8.74434
-11.7299
-14.1168
-15.8931
-17.0864
-17.7654
-18.0361
-18.0304
-17.8896
-17.7444
-17.6989
-17.8183
-18.103
-7182.41
-7087.63
-7024.89
-6999.62
-7035.89
-7028.62
-6866.87
-6487.12
-5899.77
-5174.55
-4413.17
-3713.42
-3131.78
-2668.33
-2295.11
-1988.17
-1737.11
-1538.34
-1387.67
-1277.58
-1196.02
-1125.92
-1047.43
-943.307
-806.862
-645.578
-478.589
-328.543
-210.659
-127.332
-72.1437
-35.6723
-9.77992
10.631
27.4611
40.1697
47.4395
49.1551
47.1726
44.1314
41.9607
41.3887
42.2691
44.0559
46.2354
48.4888
50.2103
51.1423
51.2408
50.5588
49.1907
47.198
44.6483
41.6075
38.1373
34.3004
30.1627
25.737
21.0948
16.3086
11.4755
6.63774
1.87786
-2.71353
-7.04194
-11.0126
-14.5373
-17.5421
-19.9758
-21.8169
-23.0803
-23.8197
-24.1268
-24.1221
-23.9406
-23.7117
-23.5409
-23.4964
-23.6064
-23.857
5129.02
4951.88
4653.86
4146.69
3305.89
2306.34
1337.83
527.243
-100.914
-569.811
-905.374
-1133.03
-1282.07
-1375.24
-1423.5
-1433.96
-1411.61
-1354.35
-1254.15
-1105.64
-915.081
-701.771
-490.889
-303.738
-152.026
-39.0256
39.1776
90.5019
123.487
146.046
164.532
183.13
203.877
227.049
250.969
271.549
283.292
282.43
269.314
247.935
222.621
196.608
171.74
149.17
129.369
112.325
97.8194
85.516
75.0268
65.9606
57.9638
50.7792
44.1973
38.0523
32.2181
26.5998
21.1292
15.8174
10.6386
5.58958
0.691995
-4.01752
-8.48895
-12.6634
-16.4782
-19.8719
-22.7906
-25.1943
-27.0632
-28.4047
-29.2574
-29.6926
-29.8101
-29.7267
-29.5599
-29.4098
-29.3452
-29.3981
-29.5708
-29.846
6209.47
6626.74
7127.71
7476.52
7715.35
7903.63
8030.49
7989.27
7729
7278.75
6707.66
6083.46
5452.62
4844.96
4283.04
3787.67
3379.29
3065.64
2823.93
2606.21
2369.92
2101.82
1815.46
1533.27
1272.47
1041.46
842.392
673.297
531.417
414.229
319.18
243.462
184.121
138.426
104.278
79.9012
63.5994
53.5066
47.6536
44.3473
42.4014
41.1351
40.2813
39.4796
38.525
37.4148
36.0961
34.49
32.5216
30.1455
27.3597
24.1972
20.7324
17.027
13.1399
9.11775
4.99986
0.829127
-3.34637
-7.4717
-11.4877
-15.3351
-18.9571
-22.3011
-25.3195
-27.9705
-30.2209
-32.0494
-33.4512
-34.4434
-35.0684
-35.394
-35.5075
-35.5037
-35.4692
-35.4692
-35.5392
-35.6868
-35.9045
-36.1804
-3859.16
-4018.01
-4206.27
-4398.51
-4599.11
-4723.89
-4694
-4476.75
-4090.76
-3587.54
-3039.37
-2529.86
-2142.76
-1929.54
-1873.41
-1900.13
-1931.13
-1916.68
-1826.25
-1638.1
-1352.86
-1003.22
-638.698
-301.981
-18.9473
199.883
355.643
455.283
508.614
526.141
517.379
490.292
451.459
406.485
359.551
313.193
268.928
227.542
189.468
154.985
124.288
97.5721
75.0703
56.5739
41.6806
29.8377
20.4465
12.9189
6.74056
1.52033
-2.98986
-6.91565
-10.3124
-13.2296
-15.7538
-18.0086
-20.1206
-22.1798
-24.2242
-26.2518
-28.2434
-30.1787
-32.0414
-33.8157
-35.4814
-37.0112
-38.3728
-39.5341
-40.471
-41.1753
-41.6603
-41.9612
-42.1295
-42.2225
-42.2905
-42.3681
-42.4706
-42.5984
-42.7491
-42.9176
-13548
-13149
-12633
-12016.6
-11238.7
-10331.3
-9331.89
-8321.1
-7358.17
-6398.72
-5352.59
-4243.64
-3218.94
-2392.55
-1763.78
-1269.37
-869.333
-570.288
-389.077
-314.94
-312.341
-344.816
-388.122
-429.808
-463.518
-485.266
-493.815
-489.426
-473.584
-448.425
-416.193
-378.917
-338.308
-295.885
-253.119
-211.555
-173.406
-140.883
-115.52
-97.4695
-85.6555
-78.2753
-73.6413
-70.2791
-67.3097
-64.3801
-61.3799
-58.2842
-55.1164
-51.9426
-48.8624
-45.9896
-43.4435
-41.3374
-39.7517
-38.7115
-38.1858
-38.1061
-38.3896
-38.9583
-39.7496
-40.716
-41.8182
-43.0157
-44.2614
-45.5004
-46.6737
-47.7253
-48.6111
-49.3054
-49.8056
-50.1301
-50.3125
-50.392
-50.4048
-50.3778
-50.328
-50.265
-50.1976
-50.1273
15513.8
15361.5
15184.5
14912.6
14528.7
14014.3
13336.5
12459.1
11307
9787.34
7992.02
6223.47
4738.78
3619.16
2831.24
2286
1886.14
1558.37
1260.28
972.313
689.544
416.46
164.423
-52.1486
-221.865
-342.083
-418.246
-460.827
-481
-487.014
-483.098
-470.722
-450.066
-421.012
-383.961
-340.556
-293.894
-247.964
-206.674
-172.46
-146.114
-126.874
-113.386
-104.147
-97.7914
-93.189
-89.4965
-86.1413
-82.8094
-79.4148
-76.0388
-72.8494
-70.0253
-67.6861
-65.8445
-64.4143
-63.2675
-62.2956
-61.4444
-60.7152
-60.1418
-59.7602
-59.587
-59.609
-59.7852
-60.0556
-60.3527
-60.6138
-60.7903
-60.8534
-60.7949
-60.6242
-60.3618
-60.033
-59.6617
-59.2669
-58.862
-58.4563
-58.0572
-57.6658
1156.88
1127.96
1136.4
1209.79
1369.59
1600.65
1852.85
2045.62
2124.23
2123.57
2146.67
2213.66
2239.33
2197.01
2128.9
2047.92
1942.51
1809.76
1657.62
1497.9
1341.5
1195.47
1061.97
939.756
826.33
719.953
620.149
527.034
441.044
362.045
290.336
225.449
166.957
114.766
68.9367
29.5433
-3.44592
-30.235
-51.1129
-66.8654
-78.4588
-87.0318
-93.3771
-97.9259
-101.082
-102.999
-103.873
-103.916
-103.318
-102.236
-100.795
-99.0863
-97.1889
-95.17
-93.0891
-90.9976
-88.9387
-86.9501
-85.066
-83.3172
-81.7286
-80.3152
-79.0781
-78.0034
-77.0632
-76.2213
-75.4387
-74.6808
-73.9214
-73.1455
-72.3484
-71.5334
-70.7084
-69.8828
-69.0652
-68.2622
-67.4787
-66.7188
-65.9859
-65.2823
-9503.46
-9297.78
-9046.26
-8736.7
-8341.32
-7880.85
-7404.48
-6982.15
-6654.74
-6376.94
-6023.84
-5499.03
-4816.71
-4064.37
-3317.22
-2624.98
-2023.45
-1531.18
-1139.76
-827.565
-576.632
-375.146
-214.254
-86.7089
13.3596
90.4301
147.777
187.623
212.044
223.045
222.479
212.628
195.688
173.577
148.178
120.822
92.7075
64.7385
37.5407
11.5752
-12.7348
-34.9588
-54.7022
-71.6872
-85.7087
-96.8164
-105.403
-111.8
-116.358
-119.395
-121.173
-121.898
-121.737
-120.838
-119.333
-117.351
-115.012
-112.431
-109.711
-106.947
-104.214
-101.572
-99.0616
-96.703
-94.5009
-92.4474
-90.527
-88.7216
-87.0146
-85.3927
-83.847
-82.3715
-80.9625
-79.6172
-78.3335
-77.1094
-75.943
-74.8331
-73.7784
-72.7824
1394.02
1178.87
901.379
698.149
579.478
561.755
558.463
524.343
451.345
326.339
138.459
-82.0569
-274.379
-396.578
-449.74
-455.844
-431.123
-383.04
-316.533
-237.821
-154.094
-70.2711
10.7802
83.9304
142.422
179.947
193.174
183.991
159.149
126.952
93.9651
63.5351
37.221
14.4826
-5.90267
-24.8604
-42.7172
-59.5713
-75.3918
-90.0724
-103.478
-115.48
-125.977
-134.9
-142.257
-148.169
-152.529
-155.504
-157.239
-157.87
-157.534
-156.356
-154.455
-151.941
-148.923
-145.5
-141.771
-137.83
-133.763
-129.652
-125.57
-121.578
-117.727
-114.057
-110.594
-107.352
-104.336
-101.539
-98.9526
-96.5598
-94.3434
-92.2857
-90.3699
-88.581
-86.906
-85.3335
-83.8539
-82.4594
-81.1439
-79.908
7705.98
7507.91
7161.01
6633.95
6017.6
5464.77
5034.67
4700.82
4413.51
4138.96
3863.87
3588.16
3319.23
3067.37
2836.47
2624.32
2425.34
2230.69
2032.89
1829.17
1619.37
1403.04
1179.32
948.319
714.506
487.025
275.619
86.5059
-77.6071
-215.401
-325.529
-407.429
-462.27
-492.831
-502.984
-497.106
-479.811
-455.289
-427.179
-398.233
-370.197
-344.024
-320.154
-298.738
-279.776
-263.184
-248.819
-236.41
-225.654
-216.297
-208.043
-200.611
-193.762
-187.297
-181.067
-174.968
-168.939
-162.954
-157.018
-151.156
-145.412
-139.835
-134.481
-129.403
-124.644
-120.235
-116.192
-112.511
-109.177
-106.159
-103.423
-100.931
-98.6489
-96.5458
-94.5963
-92.7795
-91.0785
-89.4799
-87.9737
-86.5552
-2443.37
-2229.85
-1988.89
-1731.35
-1370.45
-872.25
-281.815
276.654
705.971
987.421
1148.75
1223.82
1233.46
1184.97
1080.68
924.479
726.214
507.727
299.964
127.266
-3.74343
-99.8003
-170.894
-224.133
-264.02
-291.462
-306.274
-309.037
-304.132
-299.558
-303.393
-318.662
-341.672
-365.279
-383.358
-392.945
-393.639
-386.429
-373.049
-355.725
-336.841
-318.419
-301.76
-287.402
-275.329
-265.208
-256.601
-249.072
-242.343
-236.015
-229.781
-223.487
-217.038
-210.389
-203.535
-196.497
-189.32
-182.06
-174.784
-167.565
-160.482
-153.619
-147.057
-140.872
-135.128
-129.869
-125.116
-120.863
-117.082
-113.724
-110.731
-108.043
-105.607
-103.376
-101.313
-99.3881
-97.5803
-95.8732
-94.2546
-92.7174
-3544.95
-3632.49
-3756.25
-3883.62
-4032.45
-4180.76
-4324.57
-4449.74
-4541.19
-4597.24
-4630.23
-4653.25
-4661.61
-4618.93
-4469.63
-4190.34
-3830.07
-3469.63
-3145.13
-2840.4
-2535.31
-2228.7
-1931.02
-1657.06
-1420.79
-1228.16
-1071.75
-931.969
-791.549
-647.488
-513.435
-408.155
-340.46
-305.288
-290.774
-286.085
-284.758
-284.195
-283.868
-283.892
-284.322
-284.961
-285.431
-285.299
-284.222
-282.026
-278.664
-274.067
-268.346
-261.747
-254.47
-246.641
-238.389
-229.841
-221.115
-212.314
-203.526
-194.827
-186.28
-177.946
-169.893
-162.189
-154.912
-148.131
-141.91
-136.287
-131.274
-126.854
-122.979
-119.583
-116.59
-113.923
-111.515
-109.307
-107.256
-105.328
-103.499
-101.754
-100.079
-98.4706
-4199.32
-4104.21
-3976.48
-3803.71
-3560.82
-3255.09
-2898.87
-2513.91
-2122.42
-1734.09
-1337.7
-918.422
-487.845
-88.3861
239.078
473.781
611.442
662.046
646.502
586.991
497.22
379.838
232.821
63.2773
-105.063
-247.861
-362.142
-460.647
-549.308
-616.056
-646.957
-640.554
-609.359
-568.596
-526.938
-486.997
-449.655
-416.097
-387.45
-364.149
-345.861
-331.739
-320.719
-311.788
-304.112
-297.431
-291.675
-285.907
-279.55
-272.406
-264.482
-255.877
-246.751
-237.297
-227.702
-218.127
-208.689
-199.465
-190.51
-181.871
-173.603
-165.776
-158.466
-151.741
-145.649
-140.21
-135.412
-131.211
-127.546
-124.342
-121.521
-119.006
-116.728
-114.63
-112.664
-110.793
-108.994
-107.251
-105.553
-103.901
7798.8
7747.29
7696.33
7613.38
7487.82
7316.25
7088.99
6791.74
6410.08
5941.13
5409.15
4863.83
4347.98
3874.93
3436.75
3013.33
2584.08
2139.56
1678.98
1206
729.95
266.669
-159.389
-512.314
-757.311
-885.967
-918.062
-882.317
-804.399
-710.41
-620.37
-545.58
-488.998
-447.788
-417.009
-392.648
-372.638
-356.305
-343.492
-333.983
-327.339
-322.867
-319.786
-317.41
-315.25
-312.327
-307.643
-301.474
-293.789
-284.548
-273.98
-262.503
-250.614
-238.777
-227.337
-216.483
-206.275
-196.7
-187.728
-179.345
-171.568
-164.428
-157.953
-152.152
-147.003
-142.451
-138.426
-134.854
-131.668
-128.816
-126.253
-123.931
-121.802
-119.816
-117.929
-116.107
-114.326
-112.573
-110.841
-109.134
-5934.93
-6044.9
-6208.08
-6396.06
-6580.17
-6709.74
-6752.18
-6693.34
-6538.46
-6312.6
-6049.18
-5768.89
-5478.8
-5167.1
-4806.81
-4379.89
-3895.94
-3380.85
-2845.96
-2292.15
-1739.34
-1230.91
-807.617
-480.241
-239.596
-72.2691
33.8048
93.6732
122.158
130.294
124.969
110.299
89.054
63.5123
35.7423
6.92416
-21.9715
-50.2365
-77.2482
-102.791
-126.456
-147.804
-166.558
-182.761
-196.465
-207.676
-216.221
-221.822
-224.185
-223.172
-218.988
-212.262
-203.955
-195.13
-186.695
-179.242
-173.007
-167.934
-163.792
-160.297
-157.204
-154.342
-151.615
-148.972
-146.383
-143.822
-141.272
-138.737
-136.24
-133.822
-131.516
-129.338
-127.278
-125.312
-123.411
-121.55
-119.711
-117.884
-116.065
-114.261
-8503.62
-8072.33
-7473.47
-6744.88
-5863.07
-4925.97
-3996.23
-3126.65
-2353.05
-1703.1
-1225.59
-981.684
-909.202
-810.42
-617.01
-418.686
-263.933
-165.35
-122.442
-113.679
-113.133
-102.313
-75.3248
-35.5045
10.3439
55.2766
93.4362
121.593
138.834
145.949
144.523
136.304
122.891
105.539
85.0554
62.5885
39.0794
15.3984
-7.76957
-29.5355
-49.5043
-67.5546
-83.7476
-98.2653
-111.361
-123.302
-134.286
-144.376
-153.489
-161.42
-167.923
-172.804
-175.977
-177.502
-177.588
-176.56
-174.782
-172.576
-170.161
-167.65
-165.083
-162.467
-159.809
-157.113
-154.381
-151.611
-148.811
-146.008
-143.248
-140.585
-138.056
-135.674
-133.426
-131.282
-129.212
-127.189
-125.192
-123.212
-121.243
-119.29
17192.9
16918.7
16643.5
16297.8
15717.5
14972
14054.6
12958.8
11688.5
10250.7
8672.7
6918.48
4953.83
3138.08
1967.37
1380.85
1010.27
705.205
473.869
326.067
250.306
226.069
232.011
248.833
259.811
255.217
232.152
192.734
142.8
89.3968
38.4103
-6.63462
-44.4309
-75.1422
-99.8838
-118.945
-133.56
-144.574
-152.724
-158.677
-163.02
-166.267
-168.848
-171.092
-173.208
-175.273
-177.253
-179.046
-180.548
-181.699
-182.49
-182.938
-183.041
-182.754
-182.002
-180.717
-178.876
-176.527
-173.791
-170.844
-167.876
-165.047
-162.441
-160.058
-157.828
-155.654
-153.454
-151.19
-148.864
-146.507
-144.154
-141.827
-139.535
-137.277
-135.046
-132.837
-130.644
-128.466
-126.305
-124.165
5665.37
5651.55
5661.13
5680.56
5679.66
5636.02
5533.13
5365.63
5139.5
4866.99
4559.13
4220.82
3854.35
3467.56
3077.47
2705.89
2371.33
2083.21
1840.69
1634.74
1452.03
1279.55
1109.05
938.89
773.445
619.634
482.953
365.888
268.621
190.367
130.161
86.3043
56.2002
36.5997
24.1843
16.2818
10.9993
7.09269
3.82293
0.791188
-2.18892
-5.16075
-8.09089
-10.9148
-13.5645
-15.9856
-18.142
-20.0158
-21.6051
-22.9199
-23.9784
-24.803
-25.4179
-25.8468
-26.1122
-26.2343
-26.2309
-26.1179
-25.9087
-25.6156
-25.2491
-24.8189
-24.3338
-23.8021
-23.2317
-22.63
-22.0044
-21.3619
-20.7094
-20.0535
-19.4006
-18.7569
-18.128
-17.5196
-16.9365
-16.3835
-15.8645
-15.3826
-14.9397
-14.5344
3492.53
3442.85
3382.49
3304.01
3211.81
3120.24
3037.73
2962.9
2887.65
2801.05
2691.79
2550.6
2372.2
2160.71
1928.29
1690.17
1459.4
1243.63
1045.73
865.961
703.523
557.582
427.201
311.689
210.33
122.775
49.577
-8.31519
-50.7801
-79.4044
-97.4144
-107.774
-112.104
-110.966
-104.814
-94.7677
-82.4736
-69.3687
-56.5746
-44.8609
-34.674
-26.2158
-19.5003
-14.4183
-10.7879
-8.39268
-7.00904
-6.42433
-6.44709
-6.91186
-7.68022
-8.63953
-9.70038
-10.7936
-11.8669
-12.8822
-13.8129
-14.6416
-15.3578
-15.957
-16.4388
-16.8063
-17.0648
-17.2214
-17.2847
-17.2641
-17.1692
-17.0102
-16.7973
-16.5403
-16.2492
-15.9334
-15.6018
-15.2629
-14.9248
-14.5947
-14.2793
-13.9838
-13.7129
-13.4636
-6699.11
-6688.1
-6683.1
-6650.75
-6564.77
-6411.3
-6189.96
-5911.09
-5590.46
-5247.04
-4900.74
-4571.89
-4276.58
-4024.55
-3815.95
-3641.95
-3487.3
-3332.39
-3159.14
-2954.34
-2712.45
-2435.42
-2132.37
-1817.96
-1507.62
-1213.09
-940.41
-691.315
-467.092
-272.177
-113.994
1.84389
76.4254
117.538
135.403
138.805
133.876
124.362
112.596
100.076
87.735
76.1158
65.4874
55.9413
47.4598
39.9658
33.3553
27.5182
22.3496
17.7562
13.6589
9.99301
6.70717
3.76121
1.12382
-1.22983
-3.32006
-5.16431
-6.77831
-8.17685
-9.37436
-10.3851
-11.2234
-11.9037
-12.4401
-12.8472
-13.1391
-13.3298
-13.433
-13.4619
-13.4291
-13.347
-13.227
-13.0801
-12.9165
-12.7453
-12.5752
-12.4132
-12.2654
-12.1285
-4791.97
-4515.89
-4138.65
-3694.55
-3200.87
-2723.68
-2281.42
-1877
-1510.96
-1189.52
-921.045
-710.746
-558.635
-459.98
-406.485
-387.496
-391.23
-407.155
-426.127
-441.337
-447.163
-439.976
-418.603
-382.844
-334.333
-275.343
-208.469
-137.191
-66.4359
-2.39608
49.0618
84.7668
105.484
114.83
116.849
115.071
111.258
106.261
100.171
93.4499
86.3943
79.143
71.829
64.5821
57.5196
50.7404
44.3212
38.3142
32.7469
27.6251
22.9378
18.6644
14.78
11.2596
8.07946
5.21797
2.65532
0.373203
-1.64556
-3.41733
-4.95792
-6.28297
-7.40808
-8.34895
-9.12142
-9.74139
-10.2248
-10.5874
-10.8449
-11.0124
-11.1043
-11.1345
-11.1161
-11.0616
-10.9823
-10.8887
-10.7902
-10.6949
-10.6093
-10.5336
10407.1
10133.6
9788.43
9346.78
8717.53
8019.28
7339.15
6728.18
6190.74
5707.05
5257.59
4830.75
4420.52
4024.01
3640.42
3270
2914.34
2577.38
2263.71
1975.43
1712.12
1473.19
1258.81
1067.69
898.564
751.376
626.817
524.032
440.428
372.043
314.637
265.002
221.65
184.403
153.419
128.713
109.76
95.2744
84.3023
75.6168
68.3653
62.0689
56.4256
51.2451
46.4058
41.8322
37.4797
33.3241
29.3533
25.5612
21.9452
18.5056
15.2463
12.1749
9.30121
6.63593
4.18867
1.96645
-0.0273812
-1.7935
-3.33658
-4.66494
-5.78996
-6.72542
-7.48679
-8.09061
-8.55391
-8.89387
-9.12742
-9.271
-9.34023
-9.34978
-9.31331
-9.24349
-9.15193
-9.04919
-8.94461
-8.84565
-8.75903
-8.69293
5120.65
4932.09
4629.1
4178
3569.93
2916.93
2310.66
1801.59
1396.09
1076.7
822.055
614.921
443.852
302.48
187.842
99.1276
36.5394
0.325496
-10.2652
3.14199
36.6777
84.65
140.409
197.179
248.867
290.9
320.595
337.499
342.283
336.472
322.274
302.145
278.534
253.571
228.876
205.232
182.795
161.898
142.518
124.538
107.888
92.6361
78.906
67.01
56.9209
48.4217
41.2194
35.0124
29.5505
24.6615
20.2435
16.2424
12.6302
9.38794
6.49828
3.94189
1.69801
-0.254776
-1.93796
-3.37259
-4.57898
-5.57654
-6.38382
-7.01876
-7.49889
-7.84153
-8.06385
-8.18277
-8.2148
-8.1758
-8.08076
-7.9436
-7.77709
-7.59277
-7.40098
-7.21106
-7.03102
-6.86628
-6.72233
-6.61958
-14087.6
-13374.8
-12456.3
-11397.8
-10131.7
-8739.08
-7283.1
-5871.06
-4602.99
-3530.34
-2662.09
-1989.57
-1499.76
-1174.12
-986.337
-905.325
-899.315
-938.214
-994.106
-1043.49
-1068.31
-1057.05
-1005.17
-914.74
-793.731
-654.518
-511.219
-376.28
-258.49
-162.42
-88.9699
-36.4124
-1.52199
19.3041
29.7748
33.1606
32.2023
28.8799
24.213
19.0951
14.182
9.92675
6.66392
4.3329
2.9636
2.23232
1.79957
1.37446
0.792867
0.0297117
-0.858478
-1.79648
-2.72571
-3.61574
-4.46882
-5.2847
-6.05407
-6.76337
-7.3954
-7.93362
-8.36439
-8.679
-8.87444
-8.95327
-8.92298
-8.795
-8.58351
-8.30426
-7.97337
-7.6064
-7.21771
-6.82006
-6.4244
-6.03993
-5.67431
-5.33406
-5.02415
-4.74614
-4.502
-4.32648
6601.12
6331.71
6012.15
5644.02
5164.12
4633.45
4069.65
3486.29
2897.78
2319.6
1771.27
1272.81
841.339
486.945
211.028
7.97838
-131.803
-219.092
-264.519
-277.566
-266.361
-237.393
-195.889
-146.925
-95.7562
-47.4765
-6.17098
25.7784
47.6657
59.9755
63.9301
61.1292
53.2283
41.7478
28.022
13.2344
-1.6151
-15.4826
-27.0564
-35.3504
-40.3393
-41.9204
-40.316
-36.2748
-30.9451
-25.2673
-20.0599
-15.849
-12.861
-11.077
-10.2974
-10.2489
-10.7767
-11.4445
-12.1802
-12.8565
-13.397
-13.7913
-13.9915
-13.9987
-13.8238
-13.4824
-12.9946
-12.3835
-11.6735
-10.8901
-10.058
-9.2013
-8.34157
-7.49772
-6.68515
-5.91563
-5.19748
-4.53598
-3.93419
-3.39373
-2.91437
-2.49171
-2.12239
-1.85425
1604.37
1746.21
1984.55
2289.57
2635.04
2960.43
3247.2
3491.93
3694.34
3852.57
3962.09
4015.89
4006.69
3930.35
3788.94
3590.04
3344.43
3063.54
2758.23
2436.05
2099.24
1750.82
1403.09
1074.71
779.294
522.443
304.328
122.765
-25.031
-141.781
-230.233
-293.366
-334.418
-356.798
-363.915
-359.017
-344.993
-324.366
-299.22
-271.153
-241.411
-211.513
-182.881
-156.647
-133.54
-113.814
-97.3157
-83.6634
-72.4246
-63.2071
-55.673
-49.5235
-44.493
-40.3454
-36.8875
-33.9585
-31.4151
-29.1172
-27.0154
-25.0473
-23.1619
-21.3236
-19.5114
-17.7161
-15.9395
-14.1912
-12.4868
-10.8445
-9.28302
-7.8187
-6.46379
-5.2256
-4.10665
-3.10558
-2.21842
-1.43987
-0.762964
-0.176611
0.32772
0.694568
3642.25
3531.52
3345.61
3056.12
2676.25
2247.27
1801.71
1365.46
955.478
579.805
240.293
-66.9881
-352.553
-632.629
-925.446
-1244.2
-1592.5
-1960.49
-2325.97
-2645.06
-2841.27
-2847
-2670.97
-2385.25
-2063.29
-1747.87
-1459.47
-1206.93
-993.002
-817.372
-677.743
-570.099
-489.22
-429.501
-385.636
-352.945
-327.316
-305.218
-283.951
-262.652
-240.896
-218.797
-196.904
-175.91
-156.402
-138.742
-123.053
-109.294
-97.3324
-86.9946
-78.0949
-70.4468
-63.8688
-58.1885
-53.2405
-48.8688
-44.9232
-41.2678
-38.0133
-34.9023
-31.8798
-28.9188
-26.0073
-23.1487
-20.3575
-17.6553
-15.067
-12.6187
-10.3344
-8.23257
-6.32399
-4.61099
-3.08864
-1.74698
-0.573593
0.444303
1.31999
2.06895
2.70106
3.16078
-15442.1
-14885.5
-14159.4
-13346.7
-12421.3
-11454.4
-10462.4
-9469.67
-8502.31
-7578.66
-6703.02
-5865.32
-5049.98
-4247.72
-3470.9
-2745.04
-2096.74
-1544.66
-1094.87
-739.11
-456.515
-230.236
-60.8864
45.5788
95.3806
104.439
88.1922
58.8541
25.843
-4.84419
-30.9934
-52.513
-70.3401
-84.9878
-96.7621
-105.928
-112.972
-118.216
-121.899
-124.057
-124.736
-124.076
-122.216
-119.306
-115.514
-111.026
-106.043
-100.773
-95.4014
-90.067
-84.8479
-79.7712
-74.8364
-70.0373
-65.3768
-60.8656
-56.53
-52.3888
-47.9411
-43.5839
-39.3209
-35.1544
-31.1066
-27.2042
-23.4727
-19.9347
-16.6099
-13.5163
-10.6706
-8.08577
-5.76651
-3.70773
-1.89535
-0.30981
1.0699
2.26321
3.28774
4.15891
4.88156
5.40539
7054.8
6957.26
6869.48
6738.69
6513.89
6204.67
5847.1
5470.14
5088.87
4708.21
4331.8
3964.52
3612.66
3281.78
2973.83
2687.4
2419.82
2167.18
1924.55
1686.3
1445.16
1194.12
932.62
672.989
437.665
246.896
107.558
13.183
-47.4989
-85.2037
-108.25
-123.084
-134.333
-144.456
-153.762
-161.432
-166.479
-168.314
-166.848
-162.259
-155.02
-145.786
-135.262
-124.134
-113.009
-102.392
-92.6589
-84.0585
-76.7229
-70.6775
-65.8506
-62.0837
-59.1498
-56.7807
-54.6766
-52.5675
-50.2073
-47.3912
-44.3506
-41.1542
-37.6227
-33.8541
-29.9719
-26.0932
-22.3145
-18.6994
-15.2831
-12.0874
-9.13407
-6.44551
-4.03642
-1.90684
-0.0417888
1.58326
2.99526
4.21834
5.2722
6.16837
6.90222
7.42656
4584.7
4423.39
4157.69
3744.12
3141.57
2526.72
1993.22
1583.79
1308.7
1149.35
1076.12
1058.76
1071.92
1095.54
1112.88
1110.96
1082.49
1026.26
945.09
843.232
725.114
595.213
457.654
317.519
181.16
55.9088
-51.1991
-134.817
-192.922
-226.933
-241.781
-244.132
-240.114
-233.639
-226.413
-218.807
-210.634
-201.625
-191.56
-180.36
-168.151
-155.199
-141.853
-128.516
-115.601
-103.482
-92.4571
-82.7249
-74.3918
-67.4863
-61.9647
-57.7041
-54.4955
-52.0525
-50.0413
-48.1367
-46.0752
-43.6951
-40.8623
-37.2791
-33.2919
-29.0443
-24.73
-20.5561
-16.668
-13.1246
-9.91897
-7.02332
-4.42199
-2.11342
-0.0944219
1.6525
3.15941
4.46486
5.60464
6.60607
7.48664
8.24965
8.87974
9.31558
-18662.7
-17331.5
-15717.3
-14199.7
-12702.4
-11303.8
-9987.23
-8755.93
-7620.11
-6591.1
-5677.45
-4884.02
-4212.56
-3661.15
-3223.5
-2888.61
-2639.56
-2455
-2312.32
-2189.88
-2069.12
-1937.44
-1789.46
-1628.96
-1466.63
-1313.3
-1175.99
-1056.59
-952.973
-861.391
-778.443
-701.674
-629.282
-559.678
-491.717
-425.359
-361.706
-302.364
-248.835
-202.108
-162.414
-129.452
-102.569
-80.9214
-63.6895
-50.1504
-39.7002
-31.8279
-26.1023
-22.1451
-19.6078
-18.1515
-17.4384
-17.1367
-16.9373
-16.5771
-15.8632
-14.7018
-13.0816
-10.7173
-8.07532
-5.33269
-2.6733
-0.288682
1.68833
3.21537
4.34494
5.18608
5.84812
6.40734
6.91077
7.38477
7.84942
8.31949
8.80236
9.29659
9.79289
10.2722
10.7023
10.9806
12164.5
12132.4
12131.2
12041.6
11764.9
11229.2
10441.5
9492.46
8521.83
7610.08
6751.94
5930.08
5147.26
4406.88
3706.87
3044.61
2421.55
1842.12
1312.09
837.695
426.665
87.3907
-175.511
-363.853
-485.378
-553.121
-579.7
-576.381
-550.544
-505.952
-445.251
-372.486
-293.736
-215.672
-143.856
-81.9847
-31.7449
6.88564
34.9894
54.3101
66.6782
73.7155
76.8737
77.364
76.0924
73.6846
70.5455
66.9283
62.9963
58.865
54.6314
50.392
46.2503
42.3149
38.6926
35.4767
32.7347
30.5052
28.8305
27.2961
25.9591
24.7388
23.4483
21.9973
20.4024
18.7564
17.1748
15.7519
14.5407
13.5531
12.777
12.1929
11.7828
11.5312
11.4217
11.4337
11.5428
11.729
11.9389
12.041
12684.3
12465.9
12204.7
11846.7
11277.1
10615.5
10042.4
9726.78
9617.07
9509.71
9318.01
9061.86
8740.1
8354.94
7933.42
7499.51
7064.1
6632.63
6210.12
5801.12
5406.87
5023.01
4637.99
4235.69
3806.32
3356.57
2905.9
2479.02
2095.48
1764.69
1486.54
1255.12
1062.51
901.24
765.348
650.474
553.527
472.223
404.623
348.861
303.151
265.689
234.89
209.348
187.9
169.627
153.823
139.955
127.63
116.557
106.53
97.4042
89.0821
81.5021
74.6251
68.4208
62.8527
57.8602
53.3397
49.1415
45.3113
41.6526
38.1296
34.8039
31.633
28.649
25.8951
23.401
21.1807
19.2257
17.5272
16.0808
14.8863
13.9406
13.2324
12.7392
12.4322
12.274
12.2154
12.1016
-2847.98
-2447.78
-1915.42
-1385.81
-883.301
-528.206
-312.335
-223.689
-268.636
-417.675
-559.591
-578.241
-443.999
-201.687
88.4104
377.676
627.593
811.968
924.41
989.609
1050.35
1135.23
1237.41
1321.81
1353.93
1323.63
1243.82
1136.47
1020.82
909.147
807.697
718.413
640.963
574.045
516.117
465.776
421.831
383.318
349.42
319.451
292.779
268.937
247.457
227.98
210.224
193.953
178.935
165.085
152.3
140.495
129.603
119.568
110.337
101.861
94.0823
86.9415
80.3687
74.2863
68.6098
63.2521
58.1396
53.2296
48.5167
43.9187
39.5795
35.5259
31.7735
28.3313
25.2024
22.3904
19.9038
17.7533
15.9448
14.4741
13.3223
12.4573
11.8409
11.4198
11.1329
10.8407
-12810.9
-12214.9
-11464
-10713.3
-9907.34
-9087.88
-8244.22
-7366.45
-6438.5
-5455.29
-4438.8
-3440.6
-2531.2
-1779.28
-1231.86
-908.425
-805.287
-903.455
-1140.97
-1407.63
-1609.07
-1704.8
-1684.26
-1556.93
-1353.61
-1112.25
-863.909
-629.984
-424.786
-255.274
-121.626
-19.5353
56.8497
112.565
151.645
178.214
195.332
205.32
209.977
210.669
208.393
203.897
197.76
190.438
182.285
173.59
164.642
155.583
146.567
137.716
129.126
120.854
112.935
105.385
98.2036
91.3775
84.8827
78.6862
72.749
67.0327
61.507
56.1544
50.9767
46.0417
41.3316
36.8763
32.6989
28.8137
25.236
21.9868
19.0913
16.5729
14.4447
12.7035
11.3276
10.2784
9.50639
8.95242
8.55516
8.20361
9151.27
8999.85
8807.17
8541.82
8196.84
7853.66
7544.35
7290.69
7097.68
6931.48
6720.63
6374.33
5809.68
4978.83
3884.83
2585.82
1169.73
-284.709
-1609
-2510.01
-2871.06
-2867.17
-2678.37
-2382.9
-2043.32
-1714.1
-1422.66
-1176.09
-970.522
-797.651
-648.338
-516.017
-397.709
-292.03
-198.513
-117.975
-50.5669
4.09306
46.9248
79.3487
102.994
119.466
130.208
136.444
139.183
139.245
137.296
133.865
129.368
124.154
118.65
112.842
106.857
100.795
94.7166
88.6609
82.6545
76.716
70.8614
65.1088
59.48
54.0005
48.6944
43.5873
38.6964
34.0362
29.6237
25.485
21.6576
18.1863
15.1148
12.4757
10.2822
8.52353
7.16617
6.15404
5.4214
4.90226
4.54607
4.224
-7428.6
-7093.83
-6671.05
-6193.11
-5620.19
-4955.68
-4170.81
-3286.02
-2363.63
-1479.93
-710.852
-109.41
313.468
582.099
739.6
828.375
876.091
885.557
848.549
782.773
724.429
677.529
617.306
531.118
425.68
314.92
211.937
126.129
62.1969
20.7346
-0.520689
-4.0271
6.16108
24.6569
47.2759
70.4296
91.4715
108.899
122.253
131.799
138.128
141.825
143.344
143.039
141.21
138.149
134.139
129.404
124.144
118.499
112.469
106.35
100.209
94.0783
87.9825
81.9382
75.958
70.0556
64.2471
58.5502
52.9818
47.5579
42.2882
37.1805
32.2478
27.5134
23.0152
18.806
14.948
11.5032
8.52196
6.0342
4.04271
2.51862
1.40549
0.62431
0.0880963
-0.281482
-0.545085
-0.850691
-13.8157
-13.0652
-12.6239
-12.3852
-12.2465
-12.1308
-11.9903
-11.7822
-11.4462
-10.9143
-10.1483
-9.17394
-8.08386
-7.00789
-6.06819
-5.34104
-4.84507
-4.55712
-4.43781
-4.44832
-4.55583
-4.73327
-4.95751
-5.20717
-5.4608
-5.69615
-5.89186
-6.02783
-6.09476
-6.09231
-6.03169
-5.927
-5.79039
-5.63052
-5.45322
-5.26275
-5.06173
-4.84984
-4.62239
-4.37091
-4.08743
-3.77168
-3.43613
-3.10329
-2.79557
-2.52508
-2.29105
-2.08484
-1.89699
-1.72136
-1.55559
-1.39965
-1.25425
-1.11987
-0.996401
-0.883138
-0.77902
-0.682892
-0.593709
-0.510685
-0.433389
-0.361785
-0.296122
-0.236845
-0.184514
-0.139672
-0.102115
-0.0725061
-0.0502862
-0.0349313
-0.0256865
-0.021585
-0.0214675
-0.0240594
-0.0281096
-0.0325069
-0.0363346
-0.0389045
-0.0398066
-0.0389384
-0.036457
-0.0326748
-0.0279724
-0.0227646
-0.0174776
-0.0124941
-0.00809067
-0.00442203
-0.00155711
0.000486283
0.00174469
0.00232256
0.00237072
0.00203391
0.00141714
0.000597928
-0.000345778
-0.00133637
-0.00232503
-0.00330634
-0.00429517
-0.00529111
-0.00627102
-0.0072129
-0.00811557
-0.00898675
-0.00981561
-0.0105663
-0.0112039
-0.011725
-0.0121586
-0.0125392
-0.0128804
-0.0131748
-0.0134138
-0.0136022
-0.0137538
-0.0138778
-0.0139746
-0.0140439
-0.0140936
-0.014138
-0.0141879
-0.0142436
-0.0142982
-0.0143461
-0.0143855
-0.014415
-0.0144289
-0.014419
-0.0143817
-0.0143217
-0.014249
-0.0141715
-0.0140913
-0.014008
-0.0139255
-0.0138547
-0.013809
-0.0137949
-0.0138065
-0.0138267
-0.013834
-0.0138102
-0.0137447
-0.0136355
-0.0134872
-0.0133109
-0.0131221
-0.0129393
-0.0127796
-0.0126553
-0.0125708
-0.0125233
-0.0125056
-0.0125098
-0.0125287
-0.0125567
-0.0125883
-0.0126169
-0.012635
-0.0126359
-0.012615
-0.0125712
-0.0125059
-0.0124206
-0.012315
-0.0121852
-0.0120244
-0.0118256
-0.011586
-0.0113104
-0.0110113
-0.0107055
-0.0104072
-0.0101216
-0.00984271
-0.00955773
-0.00925459
-0.0089294
-0.00858814
-0.00824207
-0.00789978
-0.00756176
-0.00722081
-0.00686783
-0.00649823
-0.00611398
-0.00572008
-0.00531824
-0.00490334
-0.00446523
-0.00399548
-0.00349297