/*--------------------------------*- C++ -*----------------------------------*\
| =========                 |                                                 |
| \\      /  F ield         | OpenFOAM: The Open Source CFD Toolbox           |
|  \\    /   O peration     | Version:  2012                                  |
|   \\  /    A nd           | Website:  www.openfoam.com                      |
|    \\/     M anipulation  |                                                 |
\*---------------------------------------------------------------------------*/
FoamFile
{
    version     2.0;
    format      ascii;
    class       surfaceScalarField;
    location    "0.1";
    object      phi;
}
// * * * * * * * * * * * * * * * * * * * * * * * * * * * * * * * * * * * * * //

dimensions      [0 3 -1 0 0 0 0];
oriented        oriented;


internalField   nonuniform List<scalar> 
84340
(
0.000135798
-7.43111e-05
-6.14867e-05
0.00040686
0.000129043
-0.000400105
0.000904792
0.000308516
-0.000806447
0.00168968
0.000233972
-0.00101886
0.00263307
0.000159538
-0.00110293
0.00354083
0.000256219
-0.00116398
0.00432285
0.000425674
-0.00120769
0.0049933
0.000524988
-0.00119544
0.00560734
0.000468486
-0.00108253
0.00622136
0.000239477
-0.000853499
0.00682576
-3.91083e-05
-0.000565286
0.00734933
-0.000218963
-0.00030461
0.00774092
-0.000279634
-0.00011196
0.00800194
-0.000252928
-8.08666e-06
0.00814499
-0.000178969
3.59205e-05
0.00819025
-9.34159e-05
4.81498e-05
0.00815795
-1.70384e-05
4.93447e-05
0.00805823
4.13526e-05
5.83622e-05
0.00787704
8.19046e-05
9.92878e-05
0.00758536
0.000114729
0.000176957
0.00718898
0.000143661
0.000252714
0.00673484
0.000164624
0.000289517
0.00626568
0.000172709
0.000296448
0.00580632
0.000164879
0.000294481
0.00537603
0.000140203
0.000290094
0.00499061
0.000100969
0.000284447
0.00465579
5.22227e-05
0.000282595
0.00436488
-1.00199e-06
0.000291916
0.0041041
-5.69489e-05
0.000317723
0.00385539
-0.000110381
0.000359093
0.00360249
-0.000154753
0.000407652
0.00331726
-0.000186847
0.000472082
0.00299182
-0.000218066
0.0005435
0.00264172
-0.000242373
0.000592474
0.002281
-0.00025804
0.000618763
0.00192513
-0.000265171
0.000621037
0.00158907
-0.000264289
0.00060035
0.00128503
-0.000256006
0.000560044
0.00102127
-0.000240664
0.000504428
0.000799622
-0.000218447
0.000440094
0.000617477
-0.000190271
0.000372416
0.000469557
-0.000157918
0.000305838
0.000350175
-0.000123508
0.000242891
0.000254395
-8.87603e-05
0.00018454
0.000177718
-5.44607e-05
0.000131138
0.000117997
-2.09647e-05
8.06847e-05
7.29026e-05
1.22612e-05
3.28337e-05
3.70537e-05
4.65377e-05
-1.06885e-05
1.29957e-05
7.4902e-05
-5.08438e-05
-1.01515e-06
0.000102278
-8.82667e-05
-7.74121e-06
0.000127345
-0.000120619
-7.62843e-06
0.000147915
-0.000148028
-8.42519e-07
0.000162793
-0.000169579
1.23125e-05
0.000171003
-0.000184157
3.10913e-05
0.000171857
-0.000190636
5.4079e-05
0.000165064
-0.000188052
7.908e-05
0.000150845
-0.000175846
0.000103221
0.000129974
-0.000154115
0.000123347
0.000103668
-0.000123794
0.000136732
7.32389e-05
-8.6624e-05
0.000142147
3.94254e-05
-4.48409e-05
0.000140042
2.44913e-06
-3.45204e-07
0.00013359
-3.95953e-05
4.6047e-05
0.000127394
-8.88184e-05
9.50142e-05
0.000126935
-0.000148701
0.00014916
0.00013662
-0.000221559
0.000211873
0.000159072
-0.000308552
0.000286099
0.000195036
-0.000409221
0.000373257
0.000243896
-0.000521666
0.000472806
0.000304316
-0.000642905
0.000582486
0.000374626
-0.000769184
0.000698874
0.000452876
-0.000896143
0.000817892
0.000536683
-0.00101895
0.000935147
0.000623074
-0.00113256
0.00104617
0.000708442
-0.0012321
0.00114673
0.000788657
-0.00131351
0.0012333
0.000859323
-0.00137427
0.0013036
0.000916224
-0.001414
0.0013571
0.000956059
-0.00143514
0.0013953
-0.00144336
0.00142304
0.000976376
-0.000344797
0.000270486
-0.000603986
0.000388231
-0.000551216
0.000255746
-0.000391398
7.41532e-05
-0.000229393
-2.46687e-06
-7.92461e-06
3.47507e-05
0.000344575
7.31742e-05
0.000841481
2.80828e-05
0.00139256
-8.25905e-05
0.0018274
-0.000195367
0.00203955
-0.00025126
0.00205036
-0.000229775
0.00193478
-0.000164052
0.00177128
-8.94266e-05
0.00161629
-2.39759e-05
0.00149491
2.79616e-05
0.00140412
7.37489e-05
0.00132007
0.000125405
0.00120955
0.000192429
0.00105083
0.000273449
0.000836375
0.000358113
0.000575302
0.000425697
0.000294196
0.000453815
3.23362e-05
0.000426739
-0.000176831
0.000349371
-0.000295669
0.000219806
-0.000329229
8.57826e-05
-0.000295743
-3.44881e-05
-0.000223627
-0.000129065
-0.000137076
-0.000196931
-4.82137e-05
-0.000243616
4.15056e-05
-0.000276566
0.000125493
-0.000302053
0.000207049
-0.000323929
0.000291097
-0.000342089
0.000379057
-0.000353131
0.00046731
-0.000352542
0.000548696
-0.000337392
0.000615206
-0.000307174
0.000659868
-0.000263109
0.000677338
-0.000207741
0.000664913
-0.000145492
0.00062382
-8.24151e-05
0.000559856
-2.47958e-05
0.00048324
2.21549e-05
0.000404813
5.74619e-05
0.000329837
8.72381e-05
0.00026344
0.000112935
0.000209931
0.000128411
0.000172863
0.000139346
0.000152478
0.00014773
0.000146761
0.000153632
0.000152925
0.00015663
0.000167842
0.000156085
0.000188238
0.000151462
0.000210823
0.000142479
0.000232509
0.000129158
0.000250766
0.000111718
0.00026409
9.03438e-05
0.00027246
6.48686e-05
0.000277312
3.45742e-05
0.000282329
-2.56758e-06
0.000291286
-4.85524e-05
0.000308205
-0.000105737
0.000335597
-0.000176093
0.000374636
-0.000260598
0.000425132
-0.000359048
0.000486013
-0.000470102
0.000555777
-0.000591431
0.000632723
-0.000719852
0.000714937
-0.000851398
0.000800176
-0.000981382
0.000885778
-0.00110456
0.000968671
-0.00121545
0.00104553
-0.00130896
0.00111304
-0.00138103
0.00116829
-0.00142952
0.00120925
-0.00145496
0.00123538
-0.00146127
-0.00145696
0.00124899
5.26561e-05
0.00021783
-1.00126e-05
0.0004509
-0.000348074
0.000593808
-0.00097435
0.000700429
-0.00178356
0.000806745
-0.00259582
0.000847011
-0.00325018
0.000727534
-0.00363417
0.000412066
-0.00370254
-1.4215e-05
-0.00349484
-0.000403072
-0.00311
-0.000636097
-0.00267501
-0.000664767
-0.00231351
-0.000525548
-0.00210252
-0.000300419
-0.00205993
-6.65656e-05
-0.00216644
0.000134467
-0.00238679
0.000294106
-0.00268125
0.000419859
-0.00300838
0.000519559
-0.00332912
0.000594191
-0.00360522
0.00063421
-0.00380494
0.000625423
-0.00390824
0.000557111
-0.00391306
0.000431554
-0.00383019
0.0002665
-0.00367632
6.59424e-05
-0.00347638
-0.000114155
-0.0032433
-0.000267572
-0.00297991
-0.000392454
-0.0026866
-0.000490247
-0.0023671
-0.000563113
-0.00202886
-0.000614805
-0.00168128
-0.000649638
-0.00133529
-0.000669914
-0.0010043
-0.000673075
-0.000705081
-0.000652354
-0.000454748
-0.000602875
-0.000263814
-0.000528325
-0.000130365
-0.000440623
-4.18498e-05
-0.000351625
1.73895e-05
-0.00026698
5.95663e-05
-0.000187669
9.25784e-05
-0.000115427
0.000121437
-5.36547e-05
0.000144909
-1.31748e-06
0.00015796
4.4411e-05
0.000168751
7.64467e-05
0.000183309
9.83768e-05
0.000198395
0.000113325
0.000214286
0.000123455
0.000231906
0.00013011
0.000251611
0.000133926
0.000273207
0.000135034
0.000295997
0.000133295
0.000318999
0.000128459
0.000341237
0.000120242
0.000362096
0.000108299
0.000381566
9.22472e-05
0.00040055
7.13594e-05
0.000421336
4.40817e-05
0.000445498
1.04122e-05
0.000475678
-3.27473e-05
0.000513886
-8.67596e-05
0.0005613
-0.000153152
0.000617967
-0.00023276
0.000683051
-0.000325681
0.000755147
-0.000431143
0.000832549
-0.000547503
0.000913375
-0.000672257
0.000995564
-0.000802042
0.0010768
-0.000932632
0.00115444
-0.00105903
0.0012256
-0.00117571
0.00128725
-0.0012771
0.0013366
-0.00135832
0.00137149
-0.00141592
0.00139068
-0.0014487
0.00139401
-0.00145829
0.00138219
-0.00144945
-0.00143131
0.00135654
0.000454362
-0.000236531
0.00129173
-0.000386465
0.00227644
-0.000390901
0.00328253
-0.000305667
0.00413671
-4.74287e-05
0.00467777
0.00030595
0.00489068
0.000514619
0.00485991
0.00044284
0.00470805
0.000137642
0.00455518
-0.000250199
0.00449432
-0.000575242
0.0045426
-0.000713044
0.00467044
-0.000653392
0.0048407
-0.000470671
0.00502303
-0.000248899
0.00519798
-4.04872e-05
0.00535811
0.000133983
0.00550889
0.000269076
0.0056631
0.000365349
0.0058303
0.000426995
0.00600313
0.000461379
0.0061511
0.000477455
0.00622597
0.000482235
0.00617627
0.00048126
0.00594952
0.000493248
0.00551003
0.000505429
0.00487728
0.000518599
0.00409411
0.000515594
0.00322173
0.000479923
0.00232694
0.000404546
0.00147092
0.000292904
0.000702971
0.000153149
5.78586e-05
-4.52596e-06
-0.000445218
-0.000166837
-0.000804238
-0.000314055
-0.00103675
-0.000419847
-0.00117685
-0.000462776
-0.0012614
-0.000443771
-0.00131513
-0.00038689
-0.00134566
-0.000321096
-0.00134954
-0.000263098
-0.0013213
-0.000215911
-0.00126043
-0.000176297
-0.00117256
-0.000141522
-0.00106335
-0.000110531
-0.000936003
-8.29364e-05
-0.000800722
-5.88335e-05
-0.000664353
-3.79922e-05
-0.000531085
-1.99436e-05
-0.000403113
-4.51706e-06
-0.000280823
7.82098e-06
-0.000164855
1.79582e-05
-5.55528e-05
2.57319e-05
4.69066e-05
3.08354e-05
0.000142537
3.28283e-05
0.000231633
3.11462e-05
0.000315807
2.41249e-05
0.000395224
1.28308e-05
0.000471436
-4.85253e-06
0.00054585
-3.03316e-05
0.000621159
-6.48967e-05
0.00069838
-0.000109968
0.000778306
-0.000166685
0.000860968
-0.000235814
0.0009458
-0.000317592
0.00103173
-0.000411612
0.00111734
-0.000516755
0.00120097
-0.000631127
0.00128071
-0.000751999
0.00135442
-0.000875753
0.00141968
-0.000997889
0.00147383
-0.00111319
0.00151425
-0.00121612
0.00153868
-0.00130153
0.00154586
-0.0013655
0.00153603
-0.00140608
0.00151119
-0.00142386
0.00147488
-0.00142199
0.00143141
-0.00140598
-0.00138446
0.00138456
-2.95759e-05
-0.000206955
0.00014081
-0.000556851
0.000547976
-0.000798067
0.00101554
-0.000773234
0.00157096
-0.000602846
0.00228711
-0.000410196
0.00307674
-0.000275016
0.00375626
-0.000236679
0.00417259
-0.000278691
0.00429017
-0.000367774
0.00416999
-0.000455059
0.00395106
-0.000494123
0.00376524
-0.000467571
0.00368519
-0.000390613
0.00372785
-0.000291568
0.00387442
-0.000187051
0.004086
-7.75997e-05
0.00431481
4.02667e-05
0.00451206
0.000168099
0.00464132
0.000297741
0.00469226
0.000410435
0.00467877
0.000490945
0.00462308
0.000537928
0.00454623
0.000558105
0.00448068
0.000558803
0.00443977
0.000546338
0.00442151
0.000536853
0.00441747
0.000519637
0.00440515
0.000492247
0.00435751
0.000452181
0.00425096
0.000399457
0.00406952
0.000334591
0.003805
0.000259997
0.00345729
0.000180871
0.00303742
0.000105813
0.00256901
4.85604e-05
0.00208617
2.00658e-05
0.00162356
1.88398e-05
0.00120567
3.09997e-05
0.000843082
4.14911e-05
0.000537375
4.26095e-05
0.000287363
3.41012e-05
8.83913e-05
2.26749e-05
-5.92509e-05
6.11966e-06
-0.000157968
-1.18143e-05
-0.000212128
-2.87761e-05
-0.000227483
-4.34787e-05
-0.000210336
-5.51395e-05
-0.000166812
-6.34682e-05
-0.000102676
-6.86537e-05
-2.36379e-05
-7.12169e-05
6.61662e-05
-7.1846e-05
0.000163322
-7.14246e-05
0.000265013
-7.0856e-05
0.000368957
-7.11161e-05
0.000473389
-7.32868e-05
0.000576138
-7.86239e-05
0.000677446
-8.84781e-05
0.000777012
-0.000104418
0.000874732
-0.000128052
0.000970728
-0.000160893
0.00106497
-0.000204207
0.00115718
-0.000258897
0.00124677
-0.000325402
0.0013328
-0.000403629
0.00141408
-0.000492885
0.00148913
-0.000591806
0.00155626
-0.000698262
0.00161353
-0.000809266
0.00165869
-0.000920917
0.0016893
-0.0010285
0.00170293
-0.00112681
0.00169766
-0.00121085
0.00167279
-0.00127666
0.0016295
-0.0013222
0.00157122
-0.0013478
0.00150342
-0.00135606
0.00143278
-0.00135135
0.00136587
-0.00133906
-0.00132564
0.00130704
-0.000211781
4.82567e-06
-0.000556393
-0.000212239
-0.000863094
-0.000491366
-0.00107997
-0.000556361
-0.00118885
-0.000493964
-0.00118832
-0.00041073
-0.00120393
-0.000259401
-0.00139926
-4.13478e-05
-0.00183027
0.000152319
-0.00248667
0.00028863
-0.00331544
0.000373703
-0.00424713
0.00043757
-0.00518886
0.00047416
-0.00603731
0.000457836
-0.00670769
0.00037881
-0.00712337
0.000228627
-0.00720816
7.19688e-06
-0.00689651
-0.000271385
-0.00619071
-0.000537705
-0.00522723
-0.000665733
-0.00423503
-0.000581771
-0.00339759
-0.00034649
-0.00277351
-8.61522e-05
-0.00232051
0.000105105
-0.0019627
0.000200989
-0.00163709
0.000220735
-0.00129808
0.00019784
-0.000939341
0.000160899
-0.000575088
0.000127994
-0.000230295
0.000107388
6.81823e-05
0.00010098
0.000296232
0.000106541
0.000439163
0.000117066
0.000488077
0.000131958
0.000442832
0.000151058
0.000322848
0.000168545
0.000163596
0.000179319
2.75163e-06
0.000179684
-0.000134176
0.000167927
-0.000237199
0.000144514
-0.000306375
0.000111786
-0.000345298
7.30247e-05
-0.000353205
3.05823e-05
-0.000334406
-1.26794e-05
-0.000293046
-5.31744e-05
-0.000232279
-8.95426e-05
-0.00015562
-0.000120138
-6.66361e-05
-0.000144124
3.13886e-05
-0.000161493
0.000135767
-0.000173033
0.000244643
-0.000180092
0.000357025
-0.000184228
0.000472394
-0.000186793
0.00059026
-0.000188722
0.00070966
-0.000190517
0.00082897
-0.000192596
0.000946076
-0.00019573
0.00105893
-0.000201329
0.0011659
-0.000211394
0.00126605
-0.000228202
0.00135905
-0.000253886
0.00144494
-0.000290095
0.00152387
-0.000337826
0.00159584
-0.000397373
0.00166055
-0.00046834
0.0017173
-0.000549639
0.00176495
-0.000639448
0.00180182
-0.000735138
0.00182579
-0.000833233
0.00183435
-0.000929482
0.00182503
-0.00101917
0.00179597
-0.00109775
0.00174679
-0.00116167
0.00167934
-0.00120921
0.00159804
-0.0012409
0.00150954
-0.0012593
0.00142166
-0.00126819
0.00134194
-0.00127163
0.00127615
-0.00127327
-0.00127643
0.00122693
-0.000319061
0.000323887
-0.00114113
0.000609829
-0.00230736
0.000674868
-0.00359882
0.000735099
-0.00496701
0.00087422
-0.00639857
0.00102084
-0.00771536
0.00105739
-0.00867297
0.000916254
-0.00913103
0.00061038
-0.009092
0.000249602
-0.00869788
-2.04184e-05
-0.00811226
-0.000148048
-0.00742098
-0.000217116
-0.00664065
-0.000322496
-0.00575347
-0.000508374
-0.00474251
-0.000782336
-0.00359392
-0.00114139
-0.00230843
-0.00155688
-0.000924297
-0.00192183
0.000469094
-0.00205912
0.00175466
-0.00186734
0.0028356
-0.00142743
0.00366668
-0.000917232
0.00425011
-0.000478326
0.00460726
-0.000156157
0.00476108
6.6918e-05
0.00474658
0.000212339
0.00459889
0.000308584
0.00435166
0.000375223
0.00403578
0.000423271
0.00367912
0.000457637
0.00330588
0.000479779
0.00293341
0.000489536
0.00257876
0.000486615
0.00225948
0.000470334
0.00198416
0.000443868
0.00176027
0.000403206
0.00158915
0.000350803
0.0014669
0.000290177
0.00138468
0.000226734
0.00133136
0.000165105
0.00129446
0.000109922
0.00126985
5.51932e-05
0.00125256
4.61377e-06
0.00123895
-3.95647e-05
0.00122534
-7.59352e-05
0.00120889
-0.00010368
0.00118791
-0.000123151
0.00116246
-0.000136042
0.00113455
-0.000145117
0.0011082
-0.00015375
0.00108893
-0.000164957
0.00108249
-0.000180348
0.0010932
-0.000199433
0.00112261
-0.000219932
0.00116909
-0.000239076
0.00122857
-0.000255204
0.00129596
-0.000268721
0.00136656
-0.000281999
0.00143685
-0.000298485
0.00150458
-0.000321622
0.00156855
-0.000354067
0.00162808
-0.000397355
0.00168257
-0.000451862
0.00173115
-0.000516916
0.00177241
-0.000590906
0.00180433
-0.000671363
0.00182424
-0.000755047
0.00182913
-0.000838124
0.00181617
-0.000916519
0.00178347
-0.000986471
0.00173096
-0.00104525
0.00166106
-0.00109178
0.00157878
-0.00112693
0.00149107
-0.0011532
0.00140559
-0.00117381
0.00132917
-0.00119177
0.00126672
-0.00120918
0.00122059
-0.00122715
-0.00124612
0.00119029
0.000723316
-0.00039943
0.00166244
-0.000329297
0.00230222
3.50942e-05
0.00268161
0.00035571
0.00295618
0.000599646
0.003234
0.000743015
0.00358584
0.000705548
0.00406728
0.000434818
0.00472391
-4.62517e-05
0.00564441
-0.000670899
0.0067865
-0.00116251
0.00793029
-0.00129184
0.00884492
-0.00113175
0.00941436
-0.000891927
0.0095913
-0.00068532
0.0093624
-0.000553439
0.00868536
-0.000464338
0.00751653
-0.000388053
0.00588991
-0.000295221
0.00399563
-0.000164836
0.00213514
-6.84779e-06
0.000566116
0.000141589
-0.000599947
0.000248831
-0.00138397
0.000305694
-0.00186702
0.000326893
-0.00212484
0.000324744
-0.00223117
0.000318669
-0.00223952
0.000316935
-0.00218664
0.000322336
-0.00209635
0.00033298
-0.00198219
0.000343477
-0.00184899
0.000346582
-0.00169419
0.000334736
-0.00150929
0.000301714
-0.00128368
0.000244724
-0.00100646
0.000166648
-0.000679615
7.63626e-05
-0.00031594
-1.28725e-05
6.19644e-05
-8.77278e-05
0.000428546
-0.000139847
0.000762286
-0.000168635
0.00105234
-0.000180133
0.00129011
-0.000182572
0.00147643
-0.000181713
0.0016165
-0.00017963
0.00171646
-0.000175897
0.00178216
-0.000169378
0.00181873
-0.000159725
0.00183066
-0.000147973
0.00182198
-0.000136437
0.00179607
-0.000127843
0.00175566
-0.000124547
0.00170383
-0.000128511
0.00164419
-0.000139796
0.00158115
-0.000156897
0.00151977
-0.000177695
0.00146522
-0.000200652
0.00142207
-0.000225572
0.00139366
-0.000253584
0.0013817
-0.000286526
0.00138624
-0.000326164
0.00140579
-0.000373615
0.00143754
-0.000429105
0.00147763
-0.000491956
0.00152141
-0.000560697
0.0015637
-0.000633196
0.00159916
-0.000706824
0.0016228
-0.000778684
0.00163061
-0.000845932
0.00162029
-0.000906199
0.00159187
-0.000958048
0.00154794
-0.00100132
0.00149334
-0.00103718
0.00143417
-0.00106776
0.00137644
-0.00109548
0.00132496
-0.00112232
0.00128258
-0.00114939
0.00125028
-0.00117688
0.00122749
-0.00120436
-0.001231
0.00121237
-0.000677262
0.000277833
-0.00145368
0.000447122
-0.00189988
0.000481291
-0.00212662
0.000582455
-0.00224428
0.0007173
-0.00231464
0.000813376
-0.00245378
0.000844695
-0.00281014
0.000791176
-0.00338218
0.000525786
-0.00393806
-0.000115019
-0.00418364
-0.000916927
-0.00414915
-0.00132633
-0.00410092
-0.00117998
-0.00414715
-0.000845694
-0.00420746
-0.000625012
-0.00424453
-0.000516371
-0.0042606
-0.000448266
-0.00425732
-0.000391332
-0.00421241
-0.000340139
-0.00409126
-0.000285984
-0.00386553
-0.000232573
-0.00353908
-0.000184861
-0.00314514
-0.000145116
-0.00272804
-0.000111396
-0.00232182
-7.93352e-05
-0.00195338
-4.3689e-05
-0.00163352
-1.19851e-06
-0.00136352
4.69424e-05
-0.0011389
9.7713e-05
-0.000950701
0.000144779
-0.000789046
0.000181822
-0.000646051
0.000203587
-0.00051754
0.000206225
-0.000403612
0.000187786
-0.000308547
0.000149659
-0.000239494
9.75946e-05
-0.000203973
4.08409e-05
-0.000205002
-1.18432e-05
-0.000245329
-4.74014e-05
-0.000318726
-6.64499e-05
-0.000416075
-7.1285e-05
-0.000520679
-7.55293e-05
-0.000619082
-8.4169e-05
-0.000701507
-9.92878e-05
-0.000760138
-0.000121
-0.000791465
-0.00014457
-0.00079428
-0.000166563
-0.000769858
-0.000184146
-0.000721248
-0.000196583
-0.000652832
-0.000204853
-0.000569746
-0.000210929
-0.000477225
-0.000217068
-0.000380398
-0.000225338
-0.000282892
-0.000237302
-0.00018588
-0.000253909
-8.80011e-05
-0.000275574
1.37335e-05
-0.000302387
0.00012247
-0.000334309
0.000240164
-0.000371278
0.000366835
-0.000413197
0.00050053
-0.000459859
0.000637736
-0.000510821
0.000773942
-0.00056531
0.000904166
-0.00062218
0.00102343
-0.000679962
0.00112722
-0.000736985
0.00121196
-0.000791561
0.00127549
-0.000842215
0.00131748
-0.000887929
0.00133963
-0.000928347
0.00134544
-0.00096386
0.00133963
-0.000995508
0.00132715
-0.00102469
0.00131218
-0.00105279
0.0012975
-0.0010808
0.00128432
-0.00110914
0.00127267
-0.00113774
0.00126197
-0.00116618
0.00125153
-0.00119392
-0.0012202
0.00124073
-0.000157378
0.000435211
-0.0007007
0.000990444
-0.00152775
0.00130834
-0.00241648
0.00147119
-0.00317815
0.00147897
-0.00368456
0.00131979
-0.00388651
0.00104665
-0.00380603
0.000710698
-0.00351703
0.000236779
-0.00312814
-0.000503903
-0.00263152
-0.00141355
-0.00197457
-0.00198328
-0.00126137
-0.00189318
-0.000658178
-0.00144889
-0.00023572
-0.00104747
1.5939e-05
-0.00076803
0.000144425
-0.000576752
0.000196653
-0.00044356
0.000212308
-0.000355794
0.000224701
-0.000298377
0.000252374
-0.000260246
0.000302092
-0.000234578
0.000372048
-0.000215072
0.00045579
-0.000195139
0.000545595
-0.00016914
0.000636175
-0.000134269
0.000726248
-9.12715e-05
0.000816578
-4.3388e-05
0.000908694
5.59749e-06
0.00100223
5.12442e-05
0.0010981
8.59537e-05
0.00118802
0.00011367
0.00125838
0.000135859
0.0012945
0.000151667
0.00128194
0.000162223
0.00120994
0.000169588
0.00107547
0.000175314
0.000884511
0.000179116
0.000658549
0.000178561
0.000422062
0.000170038
0.000199943
0.000150834
4.18807e-06
0.000120225
-0.000159598
7.96171e-05
-0.000289993
3.1107e-05
-0.000392693
-1.82991e-05
-0.000468443
-6.88198e-05
-0.000519967
-0.00011504
-0.000549051
-0.000155063
-0.000557026
-0.000188608
-0.000545205
-0.000216674
-0.000515028
-0.000241106
-0.000468031
-0.000264065
-0.000405801
-0.000287567
-0.000329899
-0.000313204
-0.000241776
-0.000342032
-0.00014275
-0.000374601
-3.40871e-05
-0.000411049
8.28062e-05
-0.000451203
0.000206178
-0.000494649
0.000333763
-0.000540783
0.000462726
-0.000588822
0.000589731
-0.000637827
0.000711161
-0.000686739
0.000823438
-0.000734456
0.00092341
-0.000779934
0.00100874
-0.000822318
0.00107825
-0.000861072
0.00113211
-0.00089607
0.0011718
-0.000927617
0.00119983
-0.000956378
0.00121919
-0.000983215
0.00123266
-0.00100898
0.0012423
-0.00103434
0.00124917
-0.00105967
0.00125345
-0.00108507
0.00125477
-0.00111046
0.00125271
-0.00113568
0.00124708
-0.00116056
0.00123812
-0.00118495
-0.00120854
0.00122645
0.000288513
0.000146697
0.000554478
0.000724479
0.000568831
0.00129398
0.000591354
0.00144866
0.000873108
0.00119722
0.00141538
0.000777519
0.0021382
0.000323821
0.00299584
-0.000146936
0.00387063
-0.000638014
0.00451483
-0.0011481
0.00477206
-0.00167078
0.00477399
-0.00198521
0.00478189
-0.00190108
0.0048677
-0.00153469
0.00493016
-0.00110993
0.00490049
-0.000738366
0.00478332
-0.000459584
0.0046143
-0.000274533
0.00441535
-0.000156853
0.00419523
-7.82557e-05
0.00395889
-2.3901e-05
0.003713
1.13088e-05
0.0034667
3.12264e-05
0.00323302
3.85452e-05
0.0030324
3.14759e-05
0.00287814
1.9996e-05
0.00277151
1.53582e-05
0.0027019
2.62252e-05
0.00265302
5.44768e-05
0.00260809
9.61677e-05
0.00255059
0.000143457
0.00247352
0.000190742
0.00237474
0.000234632
0.00225277
0.000273643
0.00211398
0.000301008
0.00196142
0.000322155
0.00180116
0.000335566
0.0016395
0.000340776
0.00148103
0.000337034
0.00132759
0.000323478
0.0011789
0.000299519
0.00103379
0.000265335
0.000891251
0.000222162
0.000749774
0.000172584
0.000611254
0.000120221
0.000479437
6.29971e-05
0.00035513
9.26785e-06
0.000241464
-4.13975e-05
0.000141779
-8.89219e-05
5.91776e-05
-0.000134072
-3.84958e-06
-0.000178079
-4.56944e-05
-0.00022222
-6.5725e-05
-0.000267537
-6.42339e-05
-0.000314695
-4.22928e-05
-0.000363973
-1.58156e-06
-0.000415312
5.57503e-05
-0.000468381
0.000127189
-0.000522642
0.000209923
-0.000577383
0.000300896
-0.000631757
0.000396894
-0.00068482
0.000494652
-0.000735585
0.000591008
-0.000783096
0.000683089
-0.000826538
0.000768498
-0.000865342
0.000845483
-0.000899303
0.000913049
-0.000928638
0.000970959
-0.000953981
0.00101962
-0.00097628
0.00105986
-0.000996618
0.00109265
-0.001016
0.00111888
-0.00103521
0.00113922
-0.00105468
0.00115413
-0.00107458
0.00116396
-0.0010949
0.00116906
-0.00111556
0.00116989
-0.00113651
0.00116707
-0.00115774
0.00116137
-0.00117925
-0.0012009
0.00115373
-4.3992e-05
0.00019069
-1.11748e-05
0.000691662
0.000197815
0.00108499
0.000614022
0.00103246
0.00120905
0.000602189
0.00185741
0.000129161
0.0023931
-0.000211873
0.00269674
-0.000450571
0.00269195
-0.000633231
0.0023326
-0.000788749
0.00154978
-0.000887962
0.000464117
-0.000899548
-0.000578718
-0.000858243
-0.00130887
-0.000804541
-0.00166584
-0.000752951
-0.00169397
-0.000710238
-0.00146352
-0.000690037
-0.00104521
-0.000692842
-0.000505948
-0.000696114
9.31053e-05
-0.000677309
0.000696444
-0.000627239
0.0012559
-0.000548148
0.00173627
-0.000449139
0.0021125
-0.000337689
0.00237143
-0.000227456
0.00251321
-0.000121777
0.00255638
-2.7817e-05
0.00252749
5.51191e-05
0.00245205
0.000129916
0.00234988
0.000198339
0.00223164
0.000261697
0.00210199
0.00032039
0.00196277
0.000373853
0.00181687
0.000419539
0.00166527
0.000452614
0.00151203
0.000475395
0.00136335
0.00048424
0.00122311
0.000481023
0.00109351
0.000466627
0.000974855
0.000442138
0.000865676
0.000408698
0.000763462
0.000367549
0.000665455
0.000320169
0.000569757
0.000268281
0.000476385
0.000213594
0.000381254
0.000158128
0.000289398
0.000101124
0.000203355
4.46461e-05
0.000126716
-1.22832e-05
6.28719e-05
-7.0228e-05
1.45516e-05
-0.000129758
-1.646e-05
-0.000191209
-2.9396e-05
-0.000254601
-2.44019e-05
-0.000319689
-2.34375e-06
-0.000386031
3.53908e-05
-0.000453046
8.70515e-05
-0.000520042
0.000150633
-0.000586223
0.00022394
-0.00065069
0.000304632
-0.000712449
0.000390251
-0.000770439
0.000478261
-0.000823594
0.0005661
-0.000870936
0.000651266
-0.000911704
0.000731425
-0.000945501
0.000804544
-0.000972422
0.000869039
-0.000993132
0.000923897
-0.00100884
0.000968761
-0.00102114
0.00100393
-0.00103178
0.00103025
-0.00104233
0.00104899
-0.00105395
0.00106157
-0.00106725
0.00106938
-0.00108239
0.00107365
-0.00109917
0.00107534
-0.00111725
0.00107518
-0.00113634
0.00107366
-0.00115623
0.00107119
-0.00117678
-0.00119783
0.00106812
-0.000328456
0.000519146
-0.000837683
0.00120089
-0.00128379
0.0015311
-0.0016751
0.00142376
-0.00194667
0.000873763
-0.00190082
8.33099e-05
-0.00148455
-0.000628146
-0.00088289
-0.00105223
-0.000320748
-0.00119537
8.04207e-05
-0.00118992
0.00032356
-0.0011311
0.000468186
-0.00104417
0.000540929
-0.000930986
0.00053698
-0.000800593
0.000447083
-0.000663054
0.000278768
-0.000541923
5.22322e-05
-0.000463501
-0.000213262
-0.000427348
-0.000500895
-0.000408482
-0.000795618
-0.000382585
-0.00108589
-0.000336967
-0.00136618
-0.000267855
-0.00163309
-0.000182231
-0.00189663
-7.41537e-05
-0.00215111
2.70285e-05
-0.00238411
0.000111217
-0.00257799
0.000166072
-0.0027092
0.000186324
-0.00275469
0.000175406
-0.00270116
0.000144804
-0.00255035
0.000110892
-0.00231917
8.92122e-05
-0.00203432
8.89997e-05
-0.00172624
0.000111456
-0.00142541
0.000151789
-0.00115199
0.000201973
-0.000920301
0.000252554
-0.000733487
0.000294209
-0.000587671
0.000320811
-0.000475388
0.000329855
-0.000389203
0.000322513
-0.000323812
0.000302158
-0.000276198
0.000272555
-0.000244069
0.000236152
-0.00022566
0.000195185
-0.000215846
0.000148315
-0.000212416
9.76932e-05
-0.000210658
4.28892e-05
-0.000205293
-1.76488e-05
-0.000193557
-8.19641e-05
-0.000173067
-0.000150248
-0.000142456
-0.00022182
-0.000101205
-0.000295851
-4.94526e-05
-0.000371442
1.21739e-05
-0.000447658
8.26803e-05
-0.000523553
0.0001608
-0.000598162
0.00024506
-0.000670483
0.000333825
-0.000739455
0.000425319
-0.000803943
0.000517624
-0.000862745
0.000608686
-0.000914655
0.000696323
-0.000958572
0.000778283
-0.000993663
0.00085235
-0.00101957
0.000916518
-0.00103659
0.000969221
-0.00104584
0.00100958
-0.0010492
0.00103763
-0.00104919
0.00105433
-0.00104849
0.00106153
-0.00104953
0.00106155
-0.00105397
0.00105685
-0.00106255
0.00104958
-0.00107512
0.00104137
-0.00109095
0.00103324
-0.00110912
0.0010257
-0.0011288
0.00101891
-0.00114944
0.00101284
-0.00117071
-0.00119231
0.00100732
0.000450726
6.84191e-05
0.0014578
0.000193812
0.00281393
0.000174976
0.00428565
-4.79567e-05
0.0056621
-0.00050269
0.00684481
-0.0010994
0.00781056
-0.0015939
0.00854277
-0.00178443
0.00901597
-0.00166858
0.0092154
-0.00138935
0.00915058
-0.00106628
0.00884854
-0.000742131
0.00831113
-0.00039358
0.00751368
-3.13914e-06
0.00645022
0.000400404
0.00517925
0.000729047
0.00382849
0.000887264
0.00254377
0.000857366
0.00142312
0.000712174
0.000501452
0.000539079
-0.000219924
0.000384409
-0.000750251
0.000262471
-0.00110762
0.000175143
-0.00129933
0.000117551
-0.00135052
7.82199e-05
-0.0012816
4.22994e-05
-0.00111154
-3.98714e-06
-0.000859675
-6.55445e-05
-0.000544072
-0.000140197
-0.000185827
-0.000213441
0.00018118
-0.000256116
0.000511466
-0.000241073
0.000764487
-0.000164021
0.00091937
-4.34272e-05
0.000976295
9.4864e-05
0.000953044
0.000225224
0.000874174
0.000331423
0.000762704
0.00040568
0.000636464
0.000447051
0.000506858
0.000459462
0.000380306
0.000449065
0.000260637
0.000421826
0.000150891
0.000382302
5.4006e-05
0.000333037
-2.6322e-05
0.000275513
-8.87834e-05
0.000210777
-0.000130068
0.000138978
-0.00014716
5.99817e-05
-0.000142774
-2.20351e-05
-0.000117644
-0.000107094
-7.23501e-05
-0.000195542
-9.19041e-06
-0.000284979
6.8973e-05
-0.000374014
0.000158988
-0.000461457
0.000257628
-0.000546297
0.000361768
-0.000627693
0.000468536
-0.000704929
0.000575392
-0.000777338
0.000680135
-0.000844199
0.000780839
-0.000904646
0.000875725
-0.000957632
0.00096305
-0.00100198
0.00104103
-0.00103655
0.00110784
-0.00106048
0.00116178
-0.0010735
0.00120142
-0.00107623
0.00122593
-0.00107034
0.00123534
-0.00105861
0.00123076
-0.00104461
0.0012144
-0.00103213
0.00118931
-0.00102444
0.00115895
-0.00102361
0.00112657
-0.00103018
0.00109482
-0.00104337
0.00106543
-0.00106156
0.00103927
-0.00108296
0.00101657
-0.0011061
0.000997119
-0.00112999
0.000980512
-0.0011541
-0.00117801
0.00096622
0.000116169
-4.77498e-05
0.000490816
-0.000180835
0.00102118
-0.000355389
0.00153177
-0.000558547
0.00180501
-0.000775931
0.00164746
-0.000941845
0.00105445
-0.00100089
0.000225982
-0.000955964
-0.000602126
-0.00084047
-0.00129942
-0.000692059
-0.00185031
-0.000515385
-0.00225898
-0.000333467
-0.00249533
-0.000157223
-0.00252155
2.30767e-05
-0.00234495
0.000223806
-0.0020318
0.000415896
-0.00166779
0.000523253
-0.00131232
0.000501895
-0.000970791
0.000370647
-0.000611987
0.000180275
-0.000199084
-2.84936e-05
0.000296067
-0.00023268
0.000878913
-0.000407703
0.0015165
-0.00052004
0.002143
-0.000548272
0.00269254
-0.000507248
0.00311293
-0.000424371
0.00335349
-0.000306107
0.00337046
-0.000157162
0.00315751
-4.93067e-07
0.00276359
0.000137806
0.00227433
0.000248185
0.00176912
0.000341192
0.00129445
0.000431235
0.000869966
0.000519352
0.000502013
0.000593176
0.000193292
0.000640144
-5.65957e-05
0.000655568
-0.00025169
0.000642145
-0.000398233
0.000606005
-0.00050258
0.000553412
-0.000569818
0.000489064
-0.000602453
0.000414936
-0.000602694
0.000333278
-0.000572769
0.000245588
-0.000514324
0.000152332
-0.000432363
5.70164e-05
-0.000328243
-4.41392e-05
-0.000203778
-0.0001465
-6.36173e-05
-0.000247255
8.69524e-05
-0.000346111
0.000243694
-0.000441721
0.000402502
-0.000532823
0.000559443