/*--------------------------------*- C++ -*----------------------------------*\
| =========                 |                                                 |
| \\      /  F ield         | OpenFOAM: The Open Source CFD Toolbox           |
|  \\    /   O peration     | Version:  2012                                  |
|   \\  /    A nd           | Website:  www.openfoam.com                      |
|    \\/     M anipulation  |                                                 |
\*---------------------------------------------------------------------------*/
FoamFile
{
    version     2.0;
    format      ascii;
    class       volVectorField;
    location    "0.1";
    object      U;
}
// * * * * * * * * * * * * * * * * * * * * * * * * * * * * * * * * * * * * * //

dimensions      [0 1 -1 0 0 0 0];


internalField   nonuniform List<vector> 
42400
(
(-10.1908 12.3708 -2.729e-17)
(-41.3428 40.8589 -4.13862e-17)
(-64.1227 66.9145 4.26544e-17)
(-66.9909 72.302 0)
(-57.7992 70.0655 0)
(-48.7002 68.2197 -2.92862e-19)
(-40.4622 66.5297 0)
(-30.8753 62.3339 1.90909e-19)
(-17.3928 53.9832 0)
(0.245533 41.611 1.48821e-19)
(17.8911 28.6144 1.43168e-19)
(30.437 19.6585 -1.40192e-19)
(36.0208 16.7231 2.61884e-17)
(35.9783 18.6142 -2.67311e-17)
(32.7153 22.8928 -1.22024e-19)
(28.3695 27.4854 0)
(24.3074 31.1215 0)
(21.1933 33.2893 0)
(19.1369 34.0294 0)
(17.7236 33.6628 0)
(16.4086 32.4572 0)
(15.0605 30.6353 -2.62021e-19)
(13.8867 28.415 -9.1374e-18)
(13.0144 25.965 -1.39429e-18)
(12.4692 23.3949 1.02646e-17)
(12.2815 20.7756 -2.59239e-19)
(12.4619 18.145 -2.48357e-19)
(12.9737 15.5263 4.69793e-19)
(13.7086 12.9526 0)
(14.495 10.4806 0)
(15.1307 8.18668 1.08206e-17)
(15.411 6.13785 -1.09303e-17)
(15.1896 4.37457 3.04298e-19)
(14.4486 2.92455 -8.89001e-18)
(13.2915 1.78186 8.72204e-18)
(11.8755 0.906598 0)
(10.3584 0.235584 0)
(8.86728 -0.271918 0)
(7.47725 -0.628111 0)
(6.20929 -0.833702 -5.00964e-18)
(5.0608 -0.900336 5.02701e-18)
(4.02354 -0.850381 -4.16527e-18)
(3.08869 -0.71207 5.61477e-19)
(2.24799 -0.51115 7.18059e-18)
(1.49315 -0.268077 -3.35459e-18)
(0.818976 0.00322553 2.91286e-18)
(0.220861 0.291273 -5.82982e-18)
(-0.307496 0.580337 2.73761e-18)
(-0.763233 0.858707 1.56885e-19)
(-1.13808 1.11817 -2.44538e-18)
(-1.42972 1.34462 4.73286e-18)
(-1.63681 1.52672 1.31991e-19)
(-1.75421 1.65723 -2.38328e-18)
(-1.77761 1.7304 2.23628e-19)
(-1.70609 1.74203 0)
(-1.54397 1.69014 0)
(-1.30244 1.57581 0)
(-1.00014 1.40386 -1.53694e-19)
(-0.661957 1.18294 -1.36753e-19)
(-0.314849 0.924431 0)
(0.0191453 0.639983 -1.77928e-18)
(0.330542 0.337515 1.83806e-18)
(0.627918 0.0186039 1.28675e-18)
(0.937258 -0.321895 -1.26277e-18)
(1.29295 -0.692292 0)
(1.725 -1.09874 0)
(2.24837 -1.54117 4.67012e-19)
(2.85988 -2.01183 -4.56522e-19)
(3.54175 -2.4966 -8.16042e-21)
(4.26793 -2.97748 0)
(5.00918 -3.43496 0)
(5.73559 -3.8496 2.37841e-20)
(6.41757 -4.20321 2.87822e-20)
(7.02661 -4.48024 0)
(7.53697 -4.66976 3.28086e-20)
(7.92828 -4.76753 1.75173e-19)
(8.18905 -4.77744 -1.69908e-19)
(8.31964 -4.71184 -6.50985e-20)
(8.32845 -4.59737 -1.97605e-19)
(8.21575 -4.49542 -2.60942e-19)
(-0.938934 0.603413 0)
(-1.32081 -4.4175 1.59699e-16)
(10.0685 -11.047 -1.64001e-16)
(19.7739 -23.6094 0)
(21.2603 -24.3167 0)
(10.0788 -12.0198 1.23328e-16)
(-4.82871 5.51609 -1.26202e-16)
(-16.3641 18.7604 -1.92637e-19)
(-20.1628 24.8017 0)
(-15.7167 24.4639 -1.51292e-19)
(-9.05206 21.035 -1.45867e-19)
(-5.31369 18.0488 -6.8144e-17)
(-3.94291 16.1497 9.88033e-18)
(-3.36926 14.5854 6.22235e-17)
(-2.86766 12.9179 4.70073e-17)
(-1.98166 11.4202 -4.70553e-17)
(-0.929725 10.2541 0)
(-0.321271 9.3089 6.06291e-19)
(-0.334909 8.49876 0)
(-0.980475 8.04313 0)
(-2.08687 7.87283 0)
(-3.42638 7.60176 -2.68205e-17)
(-4.72134 6.95935 1.91718e-18)
(-5.58262 5.875 2.6769e-17)
(-5.73248 4.44682 0)
(-5.16957 2.91005 8.84414e-20)
(-4.14969 1.54852 2.52704e-19)
(-2.97532 0.544105 -4.77087e-19)
(-1.84212 -0.10176 -1.55071e-17)
(-0.814807 -0.507639 1.56485e-17)
(0.125183 -0.794426 -1.1073e-19)
(1.01151 -1.03624 -8.96179e-20)
(1.85237 -1.26182 -9.1166e-18)
(2.63702 -1.46598 8.9519e-18)
(3.3436 -1.60497 6.80637e-18)
(3.93335 -1.62596 -6.65932e-18)
(4.3569 -1.49333 0)
(4.57067 -1.20569 5.33694e-20)
(4.55602 -0.791836 0)
(4.32466 -0.298094 1.11669e-19)
(3.91116 0.215219 -3.32652e-18)
(3.36703 0.682652 3.45099e-18)
(2.74974 1.05105 -2.23483e-19)
(2.11063 1.29742 2.09675e-19)
(1.48884 1.43631 -6.89748e-20)
(0.911001 1.50524 1.86741e-19)
(0.39057 1.53938 -1.76388e-19)
(-0.0692945 1.56268 -2.27328e-18)
(-0.464417 1.59294 2.27378e-18)
(-0.78267 1.63791 0)
(-1.01452 1.69504 -1.11039e-19)
(-1.15701 1.75391 -2.58928e-19)
(-1.21174 1.80087 -1.47986e-18)
(-1.18329 1.82353 1.48224e-18)
(-1.08 1.81236 1.67886e-19)
(-0.914288 1.76163 -2.46963e-18)
(-0.702178 1.66977 2.72853e-18)
(-0.461384 1.53896 1.536e-19)
(-0.207729 1.37379 1.36675e-19)
(0.0495806 1.17908 -1.5778e-18)
(0.312159 0.957417 1.55293e-18)
(0.595037 0.708039 -8.85209e-20)
(0.92272 0.427091 -4.67425e-20)
(1.3213 0.109152 0)
(1.81043 -0.249361 4.02446e-19)
(2.39722 -0.648351 -1.74453e-19)
(3.0753 -1.0825 -2.52933e-19)
(3.82741 -1.54154 0)
(4.62921 -2.01136 -2.49274e-20)
(5.45257 -2.47519 4.3892e-20)
(6.26718 -2.91464 3.02843e-19)
(7.04125 -3.31067 -3.18707e-19)
(7.74235 -3.64481 -3.91914e-19)
(8.33929 -3.9009 4.11788e-19)
(8.80511 -4.06721 -9.04454e-20)
(9.12087 -4.1387 3.58476e-19)
(9.27967 -4.1187 -2.39441e-19)
(9.28981 -4.02033 6.50513e-20)
(9.1713 -3.8732 -4.50446e-19)
(8.93337 -3.75261 3.40429e-19)
(-7.23214 6.76133 1.96296e-18)
(-11.0468 9.58931 -1.93689e-19)
(-8.51933 6.15584 3.12717e-19)
(-6.27157 1.3905 -1.82995e-19)
(-5.75397 -3.71226 0)
(-2.65266 -11.5478 -2.58914e-17)
(5.36422 -23.0105 6.27129e-17)
(17.1906 -36.0792 -3.70568e-17)
(26.9148 -45.5737 5.40489e-17)
(29.3868 -47.7316 3.78218e-18)
(25.8753 -43.3051 -6.02668e-17)
(19.8619 -35.5649 -5.16921e-19)
(13.3081 -27.2644 -4.77779e-19)
(6.91326 -19.8488 5.35909e-17)
(0.982939 -13.9295 -5.46543e-17)
(-4.35933 -9.57805 -6.60468e-19)
(-9.22162 -6.47931 -4.20488e-17)
(-13.9228 -4.13115 4.28727e-18)
(-18.6777 -2.12121 3.84574e-17)
(-23.3327 -0.343459 4.90027e-20)
(-27.1473 0.870687 -1.57186e-20)
(-29.1326 1.05747 2.17419e-20)
(-28.4966 -0.230413 0)
(-25.0153 -3.12009 -3.43487e-19)
(-19.2535 -7.2484 2.11139e-18)
(-12.3955 -11.8388 -1.08689e-18)
(-5.73559 -16.0313 -1.00215e-18)
(-0.180477 -19.1974 4.54332e-18)
(3.92783 -21.0497 -4.60036e-18)
(6.67456 -21.6136 -5.70332e-18)
(8.35376 -21.1302 1.11852e-17)
(9.31355 -19.9375 -3.07644e-19)
(9.86219 -18.3594 -5.20962e-18)
(10.2103 -16.6357 0)
(10.4329 -14.8911 0)
(10.4768 -13.1563 5.50563e-20)
(10.2278 -11.4243 0)
(9.60435 -9.70176 -5.43503e-20)
(8.60435 -8.01172 4.92404e-19)
(7.28952 -6.3623 -6.32011e-19)
(5.76491 -4.7481 -6.41837e-20)
(4.16824 -3.19038 0)
(2.64768 -1.75686 0)
(1.34069 -0.531754 -1.1159e-18)
(0.331106 0.425163 9.87476e-19)
(-0.37986 1.09142 7.87712e-20)
(-0.831997 1.50993 0)
(-1.08008 1.76287 0)
(-1.19078 1.91534 -1.52136e-18)
(-1.22079 2.00553 1.5141e-18)
(-1.20123 2.05974 1.10927e-19)
(-1.14526 2.09231 0)
(-1.0574 2.10727 1.47707e-18)
(-0.939075 2.10286 -1.31429e-18)
(-0.791681 2.07565 2.09833e-18)
(-0.617713 2.02267 -2.27794e-18)
(-0.420155 1.94238 1.68166e-18)
(-0.200949 1.83472 -3.37946e-18)
(0.0421787 1.70003 2.90832e-18)
(0.317675 1.53858 -2.17461e-19)
(0.63889 1.34829 -1.0914e-18)
(1.02169 1.1254 -6.47575e-19)
(1.4823 0.866221 6.82772e-19)
(2.03186 0.56767 0)
(2.67309 0.228634 -5.51356e-22)
(3.39938 -0.148745 1.64163e-19)
(4.19586 -0.558516 -1.69122e-19)
(5.0414 -0.991023 0)
(5.91042 -1.43342 1.05066e-19)
(6.77399 -1.87033 4.87688e-19)
(7.60042 -2.28458 -4.3394e-19)
(8.35611 -2.6582 0)
(9.00715 -2.9737 0)
(9.52217 -3.21592 -5.86447e-20)
(9.87623 -3.37402 5.76194e-20)
(10.0551 -3.44358 3.79126e-19)
(10.0593 -3.42828 -6.27568e-19)
(9.90592 -3.34162 0)
(9.62748 -3.21123 1.03367e-19)
(9.26608 -3.09376 4.90847e-19)
(-5.55843 7.58212 6.41248e-17)
(-19.689 19.6124 -9.55334e-17)
(-30.3097 35.765 4.87216e-17)
(-38.448 46.4751 4.96588e-17)
(-43.5969 56.3411 -5.06546e-17)
(-45.601 62.4609 0)
(-39.4118 60.6082 1.00693e-16)
(-22.621 48.7647 -1.02517e-16)
(2.5504 29.2644 8.72143e-17)
(29.0604 8.10508 -8.9118e-17)
(48.0261 -7.42082 6.65514e-17)
(54.2765 -12.9676 -1.2585e-16)
(49.4817 -9.40254 1.08285e-16)
(39.336 -1.00111 -9.43678e-17)
(28.8212 8.06504 8.29933e-17)
(20.2804 15.5893 -3.93818e-17)
(14.1316 21.092 -3.03624e-17)
(10.1317 24.8165 5.88252e-17)
(8.02881 27.0699 -2.81963e-17)
(7.61734 28.0797 -4.96552e-20)
(8.64276 28.0917 3.43889e-19)
(10.7246 27.3171 -2.2257e-17)
(13.3247 25.9618 2.22654e-17)
(15.7627 24.2498 8.61404e-20)
(17.3077 22.3416 0)
(17.4843 20.2103 1.05513e-19)
(16.4003 17.661 0)
(14.6652 14.5054 5.89576e-18)
(12.9239 10.7322 -2.24238e-18)
(11.5145 6.55367 -3.68481e-18)
(10.4822 2.31012 -1.23362e-18)
(9.74697 -1.67165 1.15039e-18)
(9.20915 -5.1304 1.48772e-19)
(8.73973 -7.85101 8.70913e-20)
(8.12982 -9.64426 7.97307e-19)
(7.12483 -10.3888 -9.19487e-19)
(5.59427 -10.1552 0)
(3.69606 -9.25374 -1.16203e-18)
(1.81081 -8.13084 1.16961e-18)
(0.265026 -7.1188 -2.56495e-20)
(-0.843432 -6.30368 2.02397e-19)
(-1.59048 -5.60861 0)
(-2.08991 -4.94005 0)
(-2.41377 -4.26152 0)
(-2.59224 -3.57691 1.3496e-19)
(-2.64417 -2.90241 -1.2908e-18)
(-2.59294 -2.25473 1.20868e-18)
(-2.46784 -1.65281 0)
(-2.29285 -1.10671 0)
(-2.08601 -0.617332 -1.2062e-18)
(-1.8585 -0.181571 1.11815e-18)
(-1.61634 0.203503 -1.09588e-18)
(-1.36287 0.53902 8.0421e-19)
(-1.09922 0.825327 -1.16698e-19)
(-0.82483 1.06236 7.39032e-19)
(-0.537524 1.25 -9.48009e-19)
(-0.232403 1.3893 1.26869e-18)
(0.0972112 1.48019 -1.19403e-18)
(0.458945 1.52128 0)
(0.863076 1.51169 2.97349e-20)
(1.32192 1.45134 3.88958e-19)
(1.84643 1.34004 -2.05176e-19)
(2.44321 1.17656 -1.53201e-19)
(3.11396 0.960837 -1.92005e-19)
(3.85425 0.694695 1.3385e-19)
(4.65342 0.382353 4.95484e-19)
(5.49523 0.0308275 -3.49086e-19)
(6.35863 -0.350059 -9.92956e-20)
(7.21839 -0.747854 -7.23257e-19)
(8.04549 -1.1478 7.39622e-19)
(8.8077 -1.53339 -1.97062e-19)
(9.47088 -1.8873 -9.18705e-19)
(10.0016 -2.19281 7.84634e-19)
(10.3712 -2.43565 0)
(10.561 -2.60591 -7.37004e-19)
(10.5669 -2.69961 1.62184e-19)
(10.4021 -2.71956 1.56629e-18)
(10.0969 -2.6758 -6.64335e-19)
(9.69479 -2.58791 6.49336e-19)
(9.24682 -2.50046 -6.34615e-19)
(15.5859 -9.61989 -2.29325e-17)
(35.1192 -26.6035 0)
(53.6925 -32.5497 0)
(54.7814 -34.8865 -2.4121e-19)
(40.4105 -22.2633 0)
(16.1291 -1.35431 0)
(-2.15086 17.2492 0)
(-7.43631 26.4405 -8.74848e-19)
(-3.308 27.1136 0)
(4.74196 22.9584 4.22256e-19)
(12.3989 17.4012 1.74082e-17)
(16.7953 13.0011 -3.71229e-17)
(17.3648 11.0099 2.07659e-17)
(15.2215 11.5067 0)
(11.736 13.7621 -2.54561e-19)
(7.96265 16.8426 4.01729e-19)
(4.61416 20.0803 0)
(2.0024 23.1053 2.39887e-17)
(-0.0409733 25.7897 -4.62147e-17)
(-1.99448 28.1482 3.43623e-18)
(-4.36361 30.2701 1.92225e-17)
(-7.34763 32.247 2.8044e-19)
(-10.6482 34.0229 0)
(-13.7181 35.4362 -4.84479e-18)
(-16.1053 36.3882 4.54364e-18)
(-17.553 36.8574 -1.11554e-20)
(-17.9378 36.7896 -1.35069e-19)
(-17.19 36.0759 -2.26113e-18)
(-15.3028 34.6115 2.33286e-18)
(-12.3994 32.3237 0)
(-8.74038 29.2501 3.89445e-18)
(-4.61362 25.4798 -3.94128e-18)
(-0.311119 21.1583 -6.96084e-20)
(3.84491 16.5149 5.45491e-18)
(7.40283 11.8939 -5.59783e-18)
(9.7629 7.77497 -1.46895e-20)
(10.4942 4.59722 1.29355e-19)
(9.73036 2.51139 6.63599e-18)
(8.1141 1.28374 -6.67844e-18)
(6.32764 0.52252 -5.61719e-18)
(4.75887 -0.0545915 4.2475e-19)
(3.51082 -0.554795 5.32258e-18)
(2.55243 -0.981494 0)
(1.82765 -1.30733 -1.44843e-19)
(1.2917 -1.51006 2.70834e-18)
(0.908329 -1.58656 -5.66425e-18)
(0.650082 -1.54764 4.82181e-18)
(0.49177 -1.41017 -2.14779e-18)
(0.411646 -1.19247 0)
(0.392196 -0.913722 -7.25889e-20)
(0.420058 -0.593646 1.32367e-18)
(0.486637 -0.250622 -1.29776e-18)
(0.587686 0.0997593 3.53442e-20)
(0.721473 0.443882 8.60213e-19)
(0.888275 0.769682 -6.48095e-19)
(1.08989 1.06641 5.48171e-19)
(1.32915 1.32368 3.34225e-19)
(1.61171 1.53343 -8.85744e-19)
(1.94508 1.69049 3.59412e-19)
(2.3362 1.78989 -3.83693e-19)
(2.79091 1.82787 0)
(3.3134 1.80212 3.4375e-21)
(3.90433 1.71193 -4.07757e-19)
(4.56002 1.55846 3.6276e-19)
(5.27202 1.3449 1.61858e-19)
(6.02721 1.07671 0)
(6.80793 0.761706 9.47874e-19)
(7.59221 0.410128 -7.90966e-19)
(8.35384 0.0345548 -1.06616e-19)
(9.06258 -0.350339 -1.38999e-19)
(9.68502 -0.728365 2.5156e-19)
(10.1869 -1.08288 -2.43124e-20)
(10.5374 -1.39837 -1.1074e-18)
(10.7149 -1.66223 9.47153e-19)
(10.7127 -1.8663 -1.25669e-19)
(10.5427 -2.00767 0)
(10.2344 -2.0885 -1.0483e-18)
(9.8309 -2.11552 8.29659e-19)
(9.38098 -2.10171 0)
(8.93118 -2.0773 -8.02247e-19)
(5.71709 -4.85773 -9.20825e-19)
(18.417 -10.5477 4.33839e-17)
(19.5281 -17.6574 -5.06749e-17)
(9.42119 -12.7023 1.06361e-16)
(2.78149 -10.0059 -5.55263e-17)
(6.53485 -11.0324 -1.8637e-19)
(10.2641 -13.2561 -6.13796e-17)
(9.45848 -14.0589 6.35275e-17)
(5.74781 -14.0295 2.28369e-19)
(1.39099 -14.6132 -1.9321e-19)
(-3.18303 -15.9066 5.30717e-17)
(-8.5725 -17.3986 4.37751e-17)
(-14.899 -18.6844 -1.00095e-16)
(-21.3315 -19.6102 8.09564e-17)
(-26.8412 -20.3332 -1.54993e-16)
(-31.1779 -20.5393 7.41875e-17)
(-34.7829 -19.2931 0)
(-38.0236 -16.0159 0)
(-40.7788 -10.917 -5.29213e-17)
(-42.1209 -5.12071 4.22371e-18)
(-40.7716 -0.409642 4.96096e-17)
(-36.3133 1.91091 -3.96342e-17)
(-29.7139 1.84024 7.45628e-17)
(-22.4472 0.270802 -3.46443e-17)
(-15.6414 -1.76297 -2.4225e-17)
(-9.88103 -3.49635 4.5951e-18)
(-5.35051 -4.5117 2.0546e-17)
(-2.00861 -4.70153 -1.92998e-19)
(0.284889 -4.16236 1.80002e-19)
(1.69793 -3.11437 -3.29284e-19)
(2.38132 -1.79818 0)
(2.48691 -0.45897 -4.64354e-18)
(2.13314 0.732168 8.46346e-18)
(1.4217 1.6775 -3.77318e-18)
(0.469996 2.2658 0)
(-0.579927 2.46417 1.83672e-18)
(-1.53992 2.30983 -1.84855e-18)
(-2.23051 1.89366 0)
(-2.55801 1.32987 0)
(-2.54288 0.718898 9.44372e-19)
(-2.27489 0.130031 -1.05951e-18)
(-1.85172 -0.391908 -7.57868e-20)
(-1.34588 -0.814084 0)
(-0.809656 -1.11775 -8.13029e-19)
(-0.282128 -1.29791 1.54097e-19)
(0.207732 -1.35844 1.04575e-18)
(0.644437 -1.30837 4.32162e-20)
(1.02067 -1.16167 -1.27531e-19)
(1.33681 -0.936074 0)
(1.60012 -0.650735 7.67177e-19)
(1.8226 -0.323977 -1.26359e-18)
(2.01785 0.0283802 6.27333e-19)
(2.19918 0.394183 9.58321e-20)
(2.37786 0.763807 4.34164e-19)
(2.56265 1.12785 -1.57182e-19)
(2.76123 1.47558 -4.17918e-19)
(2.98126 1.79371 1.44835e-19)
(3.23123 2.06781 0)
(3.52088 2.28425 0)
(3.85964 2.43241 4.56722e-20)
(4.25485 2.506 5.29465e-20)
(4.71044 2.50315 0)
(5.22612 2.42565 8.12869e-19)
(5.79706 2.27804 -7.8809e-19)
(6.41403 2.06675 -1.15772e-18)
(7.06345 1.79975 -2.5269e-19)
(7.72735 1.48632 9.77706e-19)
(8.38304 1.13718 -1.21458e-18)
(9.00297 0.764502 1.18634e-18)
(9.55528 0.381871 -2.82262e-20)
(10.006 0.00372869 1.07614e-18)
(10.3237 -0.355616 -1.04686e-18)
(10.4854 -0.683388 -1.0277e-18)
(10.4838 -0.969727 1.28407e-18)
(10.3305 -1.2085 -9.7103e-19)
(10.0556 -1.3972 1.06506e-18)
(9.701 -1.53622 -1.03767e-18)
(9.31193 -1.62796 2.01739e-18)
(8.92773 -1.67939 6.74233e-21)
(8.57311 -1.71399 6.14567e-21)
(-0.491198 -0.14022 1.72875e-17)
(14.4132 -12.971 -6.86367e-20)
(39.593 -32.399 -2.95547e-17)
(54.0148 -49.3192 6.19657e-17)
(53.0558 -56.4724 -3.2351e-17)
(41.445 -57.5261 3.47558e-17)
(23.6552 -54.7518 -2.89334e-19)
(4.68873 -49.9447 -3.42612e-17)
(-10.263 -44.9103 3.03791e-17)
(-18.8991 -40.609 -3.00705e-17)
(-22.5455 -36.6992 2.25059e-17)
(-22.9296 -33.41 -2.2483e-17)
(-19.9254 -31.8135 1.70621e-17)
(-12.7684 -32.4006 -1.75892e-17)
(-0.868998 -34.8233 -1.63968e-19)
(15.9451 -38.9975 -1.31156e-19)
(37.6098 -45.3449 3.49644e-17)
(63.0247 -53.3744 -3.57219e-17)
(86.9898 -59.7982 1.4779e-19)
(99.9688 -59.2344 2.95237e-19)
(95.7595 -49.0029 2.35481e-17)
(77.8253 -32.0501 -2.35083e-17)
(55.1691 -13.9363 0)
(35.1971 1.12512 -1.18769e-19)
(20.7955 11.6654 0)
(11.611 18.0583 0)
(6.09548 21.3689 -2.34372e-20)
(2.75356 22.6502 1.07932e-17)
(0.555414 22.7022 -1.09063e-17)
(-1.08337 22.0356 -1.14278e-17)
(-2.43206 20.9496 1.18876e-17)
(-3.5762 19.6282 -2.63837e-19)
(-4.51935 18.1812 2.30687e-19)
(-5.23815 16.6847 0)
(-5.68029 15.1838 3.92676e-20)
(-5.81066 13.7204 0)
(-5.61333 12.3132 0)
(-5.09446 10.993 3.2571e-20)
(-4.29228 9.77175 0)
(-3.26791 8.64772 0)
(-2.09637 7.6083 -2.70383e-18)
(-0.858481 6.64073 2.60397e-18)
(0.372874 5.74327 0)
(1.53545 4.92634 0)
(2.57944 4.2025 0)
(3.46502 3.57799 -2.63228e-20)
(4.1669 3.05157 -4.29969e-20)
(4.67935 2.61658 -2.03744e-19)
(5.0162 2.26282 2.38747e-19)
(5.20722 1.97915 1.67895e-20)
(5.29194 1.75732 -3.72242e-20)
(5.3116 1.59502 2.64333e-20)
(5.30071 1.49607 3.9574e-20)
(5.28149 1.46748 0)
(5.26358 1.51374 0)
(5.24959 1.63047 -3.54389e-19)
(5.24282 1.80136 -6.84566e-20)
(5.2525 1.99995 4.7108e-19)
(5.29425 2.19539 -5.54327e-19)
(5.38665 2.35907 5.88631e-19)
(5.54652 2.46947 1.19108e-18)
(5.78514 2.51374 7.9575e-20)
(6.10624 2.487 -2.53865e-18)
(6.50563 2.39043 1.32887e-18)
(6.9717 2.22924 9.86339e-20)
(7.48603 2.01122 1.57447e-19)
(8.02384 1.74579 1.47736e-18)
(8.55453 1.44361 -2.92775e-18)
(9.0431 1.11637 1.44899e-18)
(9.45306 0.77652 1.67115e-19)
(9.75141 0.436752 1.44161e-18)
(9.91518 0.109113 -1.59802e-18)
(9.93773 -0.196058 0)
(9.83201 -0.470977 -1.5457e-19)
(9.6283 -0.710587 0)
(9.36632 -0.912051 1.27403e-18)
(9.08503 -1.07392 3.34906e-21)
(8.81466 -1.19572 -1.2019e-18)
(8.57182 -1.28163 8.54492e-19)
(8.35706 -1.34919 3.13405e-19)
(-11.6669 8.72957 -5.98305e-17)
(-44.6838 33.543 9.00774e-17)
(-77.8063 53.0604 -6.88655e-20)
(-99.843 69.1613 8.22713e-17)
(-114.8 78.4105 -8.41816e-17)
(-119.841 82.9245 7.27402e-17)
(-108.559 78.7248 -1.42289e-16)
(-78.6914 64.3332 6.76951e-17)
(-37.3714 44.0918 -5.53002e-17)
(3.05405 26.9147 5.51961e-17)
(30.8459 19.548 0)
(42.1708 20.4514 -5.79453e-19)
(43.7654 24.1402 1.0275e-19)
(43.262 27.2091 0)
(43.6313 28.6735 0)
(44.5874 28.2833 0)
(44.8828 25.7919 0)
(43.1105 21.2893 -7.3348e-20)
(37.9153 15.7605 0)
(28.8195 10.5237 -3.3905e-18)
(17.4749 6.20111 2.8827e-18)
(6.93717 2.64299 7.2459e-18)
(-0.632432 -0.408083 -7.57886e-18)
(-4.88447 -3.0435 -9.26043e-18)
(-6.77762 -5.11131 9.63067e-18)
(-7.39052 -6.49164 -1.05788e-17)
(-7.46897 -7.20726 1.07413e-17)
(-7.41213 -7.38827 -1.05183e-17)
(-7.37012 -7.18795 4.58161e-19)
(-7.3583 -6.74855 1.04577e-17)
(-7.3278 -6.18572 0)
(-7.20561 -5.57952 3.06985e-19)
(-6.91379 -4.97467 2.87317e-19)
(-6.38904 -4.38065 0)
(-5.58201 -3.76817 -3.93647e-20)
(-4.4792 -3.0983 0)
(-3.11887 -2.3446 0)
(-1.59343 -1.48982 3.05474e-18)
(-0.0328978 -0.554026 -5.54995e-18)
(1.43475 0.414996 2.58038e-18)
(2.71541 1.35982 1.90119e-18)
(3.75792 2.23213 -1.99192e-18)
(4.54272 2.9965 -7.10243e-20)
(5.06652 3.63596 0)
(5.34533 4.15907 1.72551e-18)
(5.40711 4.58776 -1.57185e-18)
(5.2874 4.93872 0)
(5.03267 5.21669 0)
(4.70379 5.41437 -1.18416e-18)
(4.37209 5.51476 1.38e-18)
(4.10804 5.49863 1.26071e-18)
(3.96405 5.354 -1.16096e-18)
(3.95661 5.08348 -1.03459e-18)
(4.06114 4.71497 1.93047e-18)
(4.22273 4.29706 -9.3481e-19)
(4.3819 3.88294 -2.27864e-19)
(4.50241 3.51334 0)
(4.58476 3.20705 1.39714e-19)
(4.65991 2.9617 -7.12252e-19)
(4.77108 2.76174 1.60026e-18)
(4.95588 2.58781 -8.38252e-19)
(5.23589 2.42304 0)
(5.61434 2.25537 -9.49963e-20)
(6.07873 2.07732 0)
(6.60499 1.88487 -9.86764e-20)
(7.16131 1.67647 -1.27936e-19)
(7.71143 1.45255 -2.53872e-19)
(8.21777 1.21527 -1.78703e-18)
(8.64533 0.96853 1.49778e-18)
(8.96631 0.717747 -2.43555e-19)
(9.16513 0.469354 -1.72362e-18)
(9.24226 0.230004 2.10554e-18)
(9.21494 0.00566226 -1.64762e-18)
(9.11309 -0.199021 1.60267e-18)
(8.97109 -0.380842 -1.77169e-18)
(8.81865 -0.537757 1.30795e-18)
(8.67482 -0.668477 1.46608e-18)
(8.54699 -0.772514 -1.42136e-18)
(8.43252 -0.853378 3.18059e-19)
(8.31998 -0.922907 -3.10811e-19)
(7.00363 -7.07251 -6.94649e-17)
(7.84408 -10.488 -1.03068e-16)
(-1.14175 -10.1211 2.08089e-16)
(-12.1241 -6.53061 -2.08453e-16)
(-20.1351 -3.34488 1.05201e-16)
(-25.5554 -1.03558 1.04941e-19)
(-28.6065 0.148105 -9.61775e-17)
(-28.6388 -0.290368 1.89096e-16)
(-21.3452 -6.80579 -9.59514e-18)
(-2.67766 -21.9765 -8.45241e-17)
(18.9341 -35.6418 6.48942e-19)
(28.0193 -38.2663 4.61111e-17)
(22.4111 -33.3162 -4.70205e-17)
(11.6096 -27.221 2.81271e-17)
(2.29142 -22.6119 -2.86216e-17)
(-4.43173 -19.6287 -1.88067e-17)
(-9.23959 -17.6391 1.90948e-17)
(-12.8171 -16.1121 7.15912e-20)
(-15.6515 -14.7072 0)
(-17.996 -13.1515 8.13238e-18)
(-19.8502 -11.3085 -8.06083e-18)
(-21.0336 -9.19947 -2.47163e-19)
(-21.4087 -6.98226 -5.75515e-19)
(-20.9957 -4.84433 7.23923e-19)
(-20.0421 -2.952 -2.06507e-19)
(-18.8994 -1.35613 0)
(-17.8632 -0.0256182 3.32835e-20)
(-17.0703 1.07859 -1.47858e-19)
(-16.5141 1.9983 -1.05021e-17)
(-16.0489 2.7569 1.06549e-17)
(-15.4611 3.32138 1.06422e-17)
(-14.5303 3.62158 -1.10342e-17)
(-13.0673 3.59043 -1.80509e-19)
(-10.9605 3.18403 -9.42246e-18)
(-8.24168 2.40439 1.78762e-17)
(-5.13625 1.32227 -8.54791e-18)
(-2.04217 0.0837588 -6.33863e-18)
(0.577134 -1.11627 6.49706e-18)
(2.35033 -2.1016 -2.42574e-20)
(3.14303 -2.78351 -9.06334e-20)
(3.10909 -3.18478 8.81703e-20)
(2.59604 -3.4049 -2.93774e-18)
(1.96751 -3.55185 3.50736e-19)
(1.45617 -3.6884 2.66965e-18)
(1.13635 -3.81601 -2.47046e-18)
(0.9816 -3.90256 2.34205e-18)
(0.9306 -3.91233 0)
(0.933034 -3.82617 2.2066e-18)
(0.962127 -3.64521 -2.15804e-18)
(1.01085 -3.38601 1.78041e-18)
(1.08308 -3.07253 -1.72677e-19)
(1.18561 -2.73138 -7.179e-20)
(1.32403 -2.38949 -6.11697e-20)
(1.50373 -2.06691 -4.90967e-20)
(1.7305 -1.77548 -1.54958e-18)
(2.01072 -1.5177 3.64555e-20)
(2.35031 -1.28777 0)
(2.75298 -1.07576 -1.52461e-18)
(3.21893 -0.872637 1.22705e-18)
(3.74399 -0.673847 0)
(4.31938 -0.480001 -1.47069e-18)
(4.9316 -0.29574 1.0754e-18)
(5.5628 -0.127846 0)
(6.19153 0.0166165 -1.74018e-19)
(6.79409 0.13164 0)
(7.34626 0.213108 -2.20993e-18)
(7.82552 0.259269 4.67848e-18)
(8.21385 0.270947 -2.24645e-18)
(8.50068 0.251473 2.48051e-19)
(8.68527 0.206284 2.43744e-19)
(8.77769 0.142157 -2.09573e-18)
(8.79731 0.0662096 1.80895e-18)
(8.76848 -0.0151154 -2.68176e-19)
(8.7147 -0.0967903 -2.58532e-19)
(8.65335 -0.175491 4.61793e-19)
(8.59329 -0.24941 2.05887e-19)
(8.53562 -0.317693 1.94013e-18)
(8.47656 -0.380066 -1.13727e-20)
(8.4098 -0.438426 -1.80701e-18)
(8.32656 -0.497535 -4.10209e-19)
(-11.9155 4.6001 0)
(-17.3627 5.81119 4.33885e-19)
(-12.2084 -0.861046 -2.12896e-19)
(-11.5072 -5.75566 9.28174e-18)
(-16.8687 -7.9754 -2.01346e-17)
(-20.6962 -9.47171 2.33753e-17)
(-20.6568 -11.2745 -1.29229e-17)
(-16.1102 -13.9312 0)
(-1.65559 -19.9437 -8.20004e-19)
(30.6567 -32.2284 1.70669e-17)
(69.6972 -45.5721 -1.81212e-17)
(85.6857 -49.2548 -1.86596e-17)
(71.0404 -40.2199 3.79698e-17)
(49.5503 -27.0624 -6.11028e-19)
(37.7535 -18.658 -6.67655e-19)
(33.2791 -15.0087 -1.91529e-17)
(30.7849 -13.1496 5.89382e-21)
(28.4833 -11.7959 1.64581e-17)
(26.1863 -10.6698 -1.67035e-17)
(23.938 -9.61207 -1.89386e-19)
(21.7855 -8.52561 -5.96046e-20)
(19.7453 -7.39076 1.25336e-19)
(17.7612 -6.18994 1.03062e-17)
(15.726 -4.90305 -1.51424e-18)
(13.5472 -3.52476 -9.11362e-18)
(11.2322 -2.06943 -1.35722e-19)
(8.87814 -0.600684 6.32801e-18)
(6.63006 0.808931 -1.1638e-17)
(4.62322 2.11762 9.83843e-18)
(2.98345 3.27654 -4.40931e-18)
(1.76069 4.25185 0)
(0.938336 5.03385 4.45603e-18)
(0.445078 5.60896 -7.90454e-18)
(0.174476 5.95802 3.40111e-18)
(0.000925325 6.06707 -1.08353e-18)
(-0.198136 5.92955 1.22754e-18)
(-0.497283 5.54503 -1.1066e-19)
(-0.879918 4.91727 0)
(-1.23514 4.06838 -9.2014e-20)
(-1.41831 3.05195 -1.64728e-18)
(-1.33371 1.9486 1.76634e-18)
(-0.975893 0.842879 -4.65486e-20)
(-0.410431 -0.200465 5.66358e-20)
(0.266421 -1.13197 0)
(0.953285 -1.92135 0)
(1.56473 -2.55124 2.3809e-18)
(2.04869 -3.01167 -2.68922e-18)
(2.39136 -3.30912 -1.44827e-19)
(2.61213 -3.46035 -2.49662e-18)
(2.75059 -3.4898 5.10551e-18)
(2.8525 -3.42506 -2.2725e-18)
(2.95877 -3.29239 0)
(3.09962 -3.11366 2.43819e-18)
(3.29273 -2.90504 -2.25559e-18)
(3.54457 -2.67718 0)
(3.85363 -2.43641 2.17678e-18)
(4.21396 -2.1865 -2.04019e-18)
(4.61754 -1.93032 1.92467e-18)
(5.05541 -1.67108 -1.62888e-18)
(5.51751 -1.41287 0)
(5.99218 -1.16076 4.37868e-19)
(6.4659 -0.920522 1.83904e-19)
(6.92351 -0.698128 -1.62029e-18)
(7.34924 -0.499102 1.94462e-19)
(7.72813 -0.327931 1.53805e-18)
(8.04792 -0.187533 0)
(8.30074 -0.0788874 1.61295e-19)
(8.48458 -0.000873223 0)
(8.60371 0.0495923 0)
(8.66799 0.077077 -2.57664e-18)
(8.69071 0.0868463 2.51228e-18)
(8.68567 0.0839265 2.06915e-18)
(8.6642 0.0722731 2.4121e-19)
(8.63338 0.054311 -1.98018e-18)
(8.59589 0.0309964 -2.37393e-18)
(8.55121 0.00234722 2.06323e-18)
(8.49732 -0.0317907 -2.30171e-19)
(8.43224 -0.0712756 -1.87516e-18)
(8.35427 -0.116416 4.06455e-18)
(8.26083 -0.167412 -1.34101e-18)
(-27.4495 12.4576 8.47142e-17)
(-78.2811 34.1429 -6.34186e-17)
(-117.121 49.1246 -6.12212e-17)
(-132.636 55.3313 6.26633e-17)
(-124.485 52.9395 1.96864e-19)
(-99.5995 45.8461 1.81194e-19)
(-67.2336 36.6463 0)
(-33.8109 27.3152 5.24558e-17)
(-0.551654 18.2292 -5.36716e-17)
(37.8938 7.20352 0)
(81.1531 -6.58859 -4.71315e-17)
(113.012 -17.9173 9.13659e-17)
(116.808 -19.6187 -5.95366e-18)
(98.9834 -12.7813 -7.09316e-17)
(76.1595 -3.70297 3.29139e-17)
(56.103 4.04572 4.09453e-20)
(40.4483 9.33188 1.71752e-19)
(29.4495 12.4839 0)
(22.3655 14.1616 9.44367e-18)
(17.8916 14.7677 -9.65314e-18)
(15.079 14.5968 1.16367e-19)
(13.3836 13.9226 3.12644e-18)
(12.3781 12.9749 -3.0286e-18)
(11.6596 11.9536 5.30589e-19)
(10.9095 11.0677 -5.36281e-19)
(9.94712 10.4896 1.36181e-19)
(8.72691 10.2591 -1.95515e-18)
(7.31061 10.3132 -3.55949e-19)
(5.80697 10.5486 4.59243e-18)
(4.32571 10.8304 1.84526e-20)
(2.94178 11.0491 -2.48398e-18)
(1.71126 11.1323 -2.35191e-18)
(0.661592 11.0502 2.41504e-18)
(-0.216683 10.8012 0)
(-0.944983 10.4068 -8.00507e-20)
(-1.54456 9.89883 -5.58213e-20)
(-2.02703 9.30596 0)
(-2.38648 8.65393 -1.23442e-18)
(-2.60217 7.96059 1.23514e-18)
(-2.64854 7.23135 -2.0947e-20)
(-2.50825 6.46328 0)
(-2.1814 5.65292 4.6478e-20)
(-1.69025 4.80299 1.55257e-18)
(-1.07858 3.92394 -1.54139e-18)
(-0.402723 3.0376 0)
(0.278665 2.17755 -2.2216e-18)
(0.917811 1.37146 2.62264e-18)
(1.48353 0.639249 0)
(1.96693 -0.00273536 0)
(2.37846 -0.54455 -1.66993e-19)
(2.74053 -0.984579 -1.66298e-19)
(3.08008 -1.32716 0)
(3.42181 -1.58026 2.70441e-18)
(3.78369 -1.7533 -2.8408e-18)
(4.1753 -1.85579 -2.74465e-18)
(4.59841 -1.89658 2.37886e-19)
(5.04865 -1.88388 5.21083e-18)
(5.51744 -1.82541 -5.02883e-18)
(5.9935 -1.72865 -2.08007e-19)
(6.46403 -1.60098 2.03236e-18)
(6.91565 -1.4498 -2.48391e-19)
(7.33523 -1.28244 0)
(7.71084 -1.10605 0)
(8.03282 -0.927437 1.93575e-18)
(8.29477 -0.752868 -2.15181e-18)
(8.49445 -0.587857 0)
(8.63414 -0.436944 2.31568e-19)
(8.72025 -0.303483 0)
(8.76218 -0.189498 1.56515e-18)
(8.77043 -0.0956819 -1.52731e-18)
(8.75464 -0.0215776 3.847e-19)
(8.72212 0.0340765 3.07214e-18)
(8.6774 0.0729316 -2.67513e-18)
(8.62262 0.096686 3.34833e-19)
(8.5586 0.106914 0)
(8.48584 0.105087 0)
(8.4051 0.0927301 0)
(8.31757 0.0714509 -2.37814e-18)
(8.22428 0.0424793 -2.1106e-19)
(8.12465 0.00645896 3.88449e-18)
(-5.38655 2.86238 -6.2454e-18)
(-28.8782 7.16485 -7.02781e-18)
(-49.2424 17.8871 7.20635e-18)
(-45.933 16.9388 -4.53924e-18)
(-21.7189 12.866 4.84672e-18)
(1.24529 8.29941 1.75914e-19)
(17.567 5.33191 1.67414e-19)
(31.6852 2.65267 0)
(44.1819 -0.728293 1.94752e-19)
(52.0753 -4.57344 0)
(52.1647 -8.04974 1.31077e-19)
(42.9502 -10.1844 -1.39287e-18)
(27.861 -10.4937 1.53637e-18)
(13.2175 -9.69845 3.73683e-18)
(1.55935 -8.37339 -3.96741e-18)
(-6.42701 -6.57327 4.21049e-18)
(-10.2523 -4.61863 -4.15791e-18)
(-10.9367 -2.59161 0)
(-10.2452 -0.282438 0)
(-9.39088 2.348 0)
(-8.7982 5.15179 -1.28777e-18)
(-8.37339 7.91035 1.5453e-18)
(-7.81893 10.3054 -8.04406e-19)
(-6.84028 12.0321 1.6543e-18)
(-5.46497 13.0111 -1.32765e-18)
(-3.90121 13.2908 0)
(-2.57815 13.0854 -7.93467e-20)
(-1.87955 12.7073 0)
(-1.91552 12.3588 1.65696e-18)
(-2.53789 12.0918 -1.68798e-18)
(-3.50528 11.8689 -9.72988e-20)
(-4.58521 11.6154 0)
(-5.59941 11.2842 -3.43724e-19)
(-6.43903 10.8585 2.68846e-19)
(-7.04723 10.3225 4.12327e-20)
(-7.40192 9.68951 -3.99176e-19)
(-7.5018 8.99013 1.01083e-18)
(-7.35754 8.24825 -6.12547e-19)
(-6.98892 7.48308 0)
(-6.42162 6.70761 0)
(-5.68671 5.92816 0)
(-4.82335 5.14759 1.47034e-18)
(-3.87995 4.36964 -4.72468e-18)
(-2.9107 3.60281 3.18559e-18)
(-1.96871 2.8598 0)
(-1.09684 2.14804 -3.76306e-18)
(-0.316503 1.4762 3.66302e-18)
(0.376906 0.858071 3.79992e-18)
(1.00442 0.300555 -2.6086e-19)
(1.59449 -0.192946 3.74812e-21)
(2.17352 -0.620157 -1.79793e-20)
(2.75927 -0.979889 -3.73599e-18)
(3.3594 -1.27187 0)
(3.97329 -1.49706 0)
(4.59502 -1.65776 -3.17409e-18)
(5.21587 -1.75757 3.41729e-18)
(5.82576 -1.80102 0)
(6.41407 -1.79331 0)
(6.96995 -1.74004 2.00365e-19)
(7.48262 -1.64703 3.21181e-19)
(7.94176 -1.52039 0)
(8.33808 -1.36648 0)
(8.66418 -1.19209 -3.25274e-19)
(8.91538 -1.00448 -3.08077e-19)
(9.09069 -0.811371 2.41767e-18)
(9.19332 -0.620763 -4.17624e-18)
(9.23077 -0.440522 -1.763e-19)
(9.21406 -0.277729 3.77805e-18)
(9.15629 -0.137926 -3.83201e-18)
(9.07072 -0.0244486 3.42391e-18)
(8.96898 0.0619157 -6.35232e-19)
(8.85983 0.122776 -1.5706e-18)
(8.74883 0.161527 2.93157e-18)
(8.6388 0.182457 -2.14996e-20)
(8.53074 0.189871 -5.38314e-18)
(8.42476 0.187463 2.92351e-18)
(8.32079 0.178063 0)
(8.21883 0.163601 5.81672e-19)
(8.11866 0.144844 0)
(8.01862 0.120524 -2.1175e-18)
(-25.0931 6.86474 0)
(-65.2945 16.5638 -6.94737e-20)
(-87.1551 20.4018 6.97327e-20)
(-81.7986 15.2594 4.47811e-17)
(-55.0974 5.80465 -8.7746e-17)
(-24.8333 -3.30177 4.26476e-17)
(-3.76811 -7.85227 -1.66214e-19)
(7.03535 -8.16471 0)
(13.0888 -6.89635 0)
(18.7261 -6.20708 0)
(24.825 -6.57925 -1.28892e-19)
(30.7764 -7.54754 4.27912e-20)
(36.7585 -8.77387 0)
(42.6987 -10.2692 -1.44248e-19)
(46.8445 -11.7346 -1.05598e-19)
(48.4432 -12.8808 -2.30746e-17)
(48.472 -13.9029 2.31044e-17)
(47.7045 -14.9665 1.9785e-19)
(46.0289 -15.8804 0)
(43.101 -16.4344 -1.45514e-19)
(38.7948 -16.5366 1.10593e-19)
(33.2641 -16.2291 -1.27811e-17)
(26.8268 -15.5953 2.18498e-18)
(20.0042 -14.8188 1.07787e-17)
(13.2917 -14.008 1.3761e-19)
(7.20153 -13.1959 -1.59546e-20)
(2.11751 -12.515 2.00891e-18)
(-1.75436 -11.9906 -2.00323e-18)
(-4.41749 -11.5245 6.51622e-20)
(-6.0644 -10.9205 1.53023e-20)