/*--------------------------------*- C++ -*----------------------------------*\
| =========                 |                                                 |
| \\      /  F ield         | OpenFOAM: The Open Source CFD Toolbox           |
|  \\    /   O peration     | Version:  2012                                  |
|   \\  /    A nd           | Website:  www.openfoam.com                      |
|    \\/     M anipulation  |                                                 |
\*---------------------------------------------------------------------------*/
FoamFile
{
    version     2.0;
    format      ascii;
    class       surfaceScalarField;
    location    "1";
    object      phi;
}
// * * * * * * * * * * * * * * * * * * * * * * * * * * * * * * * * * * * * * //

dimensions      [0 3 -1 0 0 0 0];
oriented        oriented;


internalField   nonuniform List<scalar> 
84340
(
-2.41981e-05
0.000148713
-0.000124515
-5.8454e-05
0.000552547
-0.000518291
0.000109673
0.000875166
-0.00104329
0.000533528
0.000984256
-0.00140811
0.00108077
0.000932765
-0.00148001
0.00166285
0.000793769
-0.00137585
0.00223349
0.000622281
-0.00119292
0.00277287
0.000441313
-0.000980692
0.00326321
0.00026063
-0.000750968
0.00368776
8.84659e-05
-0.000513015
0.00404326
-7.45026e-05
-0.000281004
0.00434266
-0.000233102
-6.62928e-05
0.00460627
-0.000387432
0.000123815
0.00485093
-0.000529753
0.000285095
0.00505684
-0.000630348
0.000424443
0.00518318
-0.000670488
0.000544142
0.00519709
-0.000655349
0.000641442
0.00509036
-0.000607969
0.000714698
0.00487743
-0.000553772
0.000766702
0.00458469
-0.000507823
0.000800559
0.00424101
-0.000472433
0.000816117
0.0038709
-0.000441091
0.000811205
0.0034909
-0.000404017
0.000784012
0.00310979
-0.000354857
0.00073597
0.00273203
-0.00029531
0.000673074
0.00236255
-0.000233692
0.00060317
0.00200912
-0.000178553
0.000531976
0.00168079
-0.000133418
0.000461751
0.00138601
-9.73063e-05
0.000392085
0.00113233
-6.81351e-05
0.000321819
0.000926247
-4.43572e-05
0.000250438
0.000775238
-2.74936e-05
0.000178503
0.000684956
-1.72137e-05
0.000107495
0.000655684
-1.46104e-05
4.38821e-05
0.000689293
-1.89849e-05
-1.46243e-05
0.0007781
-2.90153e-05
-5.97909e-05
0.000911086
-4.29659e-05
-9.00199e-05
0.00107049
-5.89476e-05
-0.000100458
0.00123968
-7.50719e-05
-9.41166e-05
0.00140296
-9.0075e-05
-7.32085e-05
0.00154663
-0.000103104
-4.05634e-05
0.00166028
-0.000113768
1.16983e-07
0.00173805
-0.000122587
4.48239e-05
0.00177583
-0.000127666
8.98851e-05
0.00177388
-0.000130701
0.000132649
0.0017368
-0.000134515
0.000171591
0.00167046
-0.000139878
0.000206223
0.00157932
-0.000145721
0.000236855
0.00147406
-0.000159023
0.000264286
0.00136261
-0.000177711
0.000289157
0.00125124
-0.000200601
0.00031198
0.0011445
-0.000226452
0.000333188
0.00104544
-0.000254127
0.000353184
0.000955854
-0.000282783
0.000372372
0.000876643
-0.000311941
0.000391153
0.000808165
-0.000341424
0.000409901
0.000750476
-0.000371242
0.000428932
0.000703481
-0.000401476
0.000448471
0.000667046
-0.000432197
0.000468633
0.000641049
-0.000463424
0.00048942
0.000625427
-0.000495116
0.000510738
0.00062018
-0.000527189
0.000532437
0.000625363
-0.00055953
0.000554347
0.000641064
-0.000592017
0.000576315
0.00066737
-0.000624538
0.000598232
0.000704325
-0.000656995
0.00062004
0.000751895
-0.000689314
0.000641744
0.000809922
-0.000721438
0.000663411
0.000878086
-0.000753328
0.000685164
0.000955846
-0.000784947
0.000707187
0.00104239
-0.00081626
0.000729716
0.00113657
-0.000847222
0.000753037
0.00123687
-0.000877786
0.000777488
0.00134133
-0.000907917
0.000803457
0.00144757
-0.000937617
0.000831385
0.00155275
-0.000966955
0.000861766
0.00165371
-0.000996098
0.000895141
0.00174691
-0.0010253
0.000932108
0.00182893
-0.00105499
0.000972974
-0.00108553
0.00102201
0.00189244
-5.2888e-05
0.000201601
0.000449915
4.97441e-05
0.00157959
-0.000254512
0.00291642
-0.000352571
0.00405673
-0.000207549
0.00480981
4.06955e-05
0.00514524
0.000286846
0.00510087
0.000485685
0.00472908
0.000632418
0.00409375
0.000723804
0.00326222
0.000757024
0.00230775
0.000721363
0.00131394
0.000606383
0.000359116
0.000425072
-0.000489128
0.000217895
-0.00119104
3.1424e-05
-0.00172228
-0.000124106
-0.00209204
-0.000238215
-0.00232123
-0.000324577
-0.0024319
-0.000397159
-0.00244674
-0.000457586
-0.00238871
-0.00049912
-0.00228
-0.00051273
-0.00214142
-0.000493436
-0.00199094
-0.00044579
-0.00184123
-0.000383399
-0.0016986
-0.000321187
-0.00156393
-0.000268084
-0.00143594
-0.000225297
-0.00131316
-0.000190921
-0.00119854
-0.000158977
-0.00108362
-0.000142412
-0.000965212
-0.000135619
-0.000842597
-0.000137225
-0.000716617
-0.000144966
-0.000589479
-0.000156153
-0.000464181
-0.000168264
-0.000343821
-0.000179308
-0.000230944
-0.000187948
-0.000127148
-0.000193872
-3.29273e-05
-0.000197324
5.21633e-05
-0.000198859
0.000128893
-0.000199316
0.000200732
-0.000199506
0.000272203
-0.000202172
0.000343331
-0.000205642
0.000413692
-0.000210239
0.000485092
-0.000217121
0.000552863
-0.000226793
0.000614388
-0.000239236
0.000667986
-0.0002542
0.000712912
-0.000271378
0.000749299
-0.000290513
0.000777976
-0.00031146
0.000800224
-0.000334189
0.000817547
-0.000358747
0.000831511
-0.000385206
0.000843635
-0.0004136
0.000855329
-0.000443892
0.000867862
-0.000475957
0.000882337
-0.000509591
0.000899678
-0.000544531
0.00092063
-0.000580481
0.000945758
-0.000617145
0.000975463
-0.000654243
0.00101
-0.000691527
0.00104946
-0.000728781
0.00109384
-0.000765814
0.00114296
-0.000802445
0.00119649
-0.00083848
0.00125392
-0.000873694
0.00131452
-0.000907816
0.00137727
-0.000940541
0.00144092
-0.00097156
0.00150392
-0.00100063
0.0015646
-0.00102763
0.00162121
-0.0010527
0.00167213
-0.00107622
0.001716
-0.00109886
-0.00112147
0.00175193
0.000459838
-0.000258237
0.00112241
-0.000612829
0.00164749
-0.000779594
0.00205396
-0.000759043
0.00243752
-0.000591107
0.00284236
-0.000364143
0.00327565
-0.000146447
0.00372668
3.46624e-05
0.00417741
0.000181685
0.00460012
0.000301094
0.00496555
0.000391599
0.00524085
0.000446063
0.00538894
0.000458284
0.00538204
0.000431974
0.00521252
0.000387413
0.00489998
0.000343964
0.00445549
0.000320388
0.0039055
0.00031178
0.00327798
0.000302935
0.00258852
0.000292302
0.00184142
0.000289513
0.00104365
0.000298653
0.000225227
0.000305695
-0.000554486
0.000286277
-0.00122378
0.000223505
-0.00172333
0.000116148
-0.00202091
-2.36028e-05
-0.00211462
-0.000174381
-0.00202798
-0.000311933
-0.00180112
-0.000417783
-0.00147608
-0.000484019
-0.00110506
-0.000513434
-0.000726205
-0.000514471
-0.000367275
-0.000496155
-4.60808e-05
-0.00046616
0.000227958
-0.000430192
0.00045189
-0.000392197
0.000627491
-0.000354909
0.000759759
-0.000320215
0.000855297
-0.00028941
0.000921209
-0.000263236
0.000964369
-0.000242019
0.000990964
-0.000225912
0.00100632
-0.00021486
0.00101283
-0.000208688
0.00101426
-0.000207069
0.00101367
-0.000209652
0.00101263
-0.000216081
0.0010118
-0.000225961
0.00101147
-0.000238909
0.00101184
-0.000254562
0.00101309
-0.000272635
0.00101553
-0.000292949
0.00101949
-0.000315426
0.00102537
-0.000340063
0.0010335
-0.000366883
0.00104418
-0.000395882
0.00105758
-0.000426994
0.00107375
-0.000460065
0.00109265
-0.000494857
0.00111412
-0.000531061
0.00113792
-0.000568332
0.00116375
-0.000606316
0.0011913
-0.000644687
0.00122021
-0.000683159
0.00125019
-0.000721504
0.00128095
-0.000759541
0.00131226
-0.000797125
0.00134393
-0.000834118
0.00137581
-0.000870357
0.00140773
-0.00090562
0.00143953
-0.00093961
0.00147095
-0.000971969
0.00150172
-0.00100232
0.00153148
-0.00103039
0.00155991
-0.00105606
0.00158679
-0.00107958
0.0016121
-0.00110154
0.00163614
-0.0011229
-0.00114545
0.00166012
-5.29953e-05
-0.000205242
-0.000416429
-0.000249394
-0.00109944
-9.65796e-05
-0.0018625
4.01625e-06
-0.00244359
-1.0025e-05
-0.0027362
-7.15323e-05
-0.00274563
-0.000137011
-0.00252279
-0.000188176
-0.00212126
-0.000219851
-0.00158854
-0.000231621
-0.000971648
-0.000225297
-0.000328577
-0.000197007
0.000281089
-0.000151382
0.000801777
-8.8713e-05
0.00120917
-1.9983e-05
0.00152692
2.62188e-05
0.00183336
1.39449e-05
0.00222914
-8.39998e-05
0.00277639
-0.000244313
0.00344998
-0.00038129
0.0041356
-0.000396104
0.00468889
-0.000254638
0.00501649
-2.1911e-05
0.00512236
0.000180412
0.00507158
0.000274281
0.00493882
0.000248911
0.00477035
0.000144868
0.00458051
1.54597e-05
0.00436519
-9.66098e-05
0.00412599
-0.000178585
0.00386817
-0.000226195
0.00359695
-0.000242213
0.00331803
-0.000235555
0.00303794
-0.000216063
0.00276334
-0.000191564
0.00250017
-0.00016702
0.00225302
-0.000145049
0.00202499
-0.000126871
0.00181783
-0.00011306
0.00163227
-0.000103853
0.00146819
-9.91497e-05
0.00132509
-9.89206e-05
0.00120251
-0.00010333
0.00109994
-0.000112296
0.00101651
-0.00012526
0.00095107
-0.000141624
0.000902105
-0.000160687
0.000867872
-0.000181847
0.00084654
-0.00020463
0.000836332
-0.000228701
0.000835642
-0.000253872
0.000843099
-0.000280092
0.000857566
-0.000307415
0.000878094
-0.000335955
0.000903863
-0.000365832
0.000934106
-0.000397127
0.000968067
-0.000429843
0.00100496
-0.000463887
0.00104397
-0.000499076
0.00108426
-0.000535149
0.00112501
-0.000571803
0.0011654
-0.000608725
0.00120471
-0.000645627
0.0012423
-0.000682272
0.00127763
-0.000718492
0.00131031
-0.000754186
0.00134008
-0.000789312
0.00136682
-0.000823863
0.00139054
-0.000857832
0.00141135
-0.000891171
0.00142949
-0.000923759
0.00144526
-0.000955382
0.00145904
-0.000985751
0.00147128
-0.00101456
0.00148249
-0.00104159
0.00149324
-0.00106681
0.00150415
-0.0010905
0.00151584
-0.00111323
0.00152886
-0.00113591
-0.00115968
0.00154308
-0.000197781
-7.46082e-06
-0.00035599
-9.11854e-05
-0.000308266
-0.000144303
-7.62383e-05
-0.000228012
0.000272831
-0.000359094
0.000677551
-0.000476253
0.00108662
-0.000546076
0.00145574
-0.000557305
0.0017495
-0.000513609
0.00194845
-0.000430572
0.00204966
-0.000326501
0.00206447
-0.000211816
0.00200479
-9.17033e-05
0.00189689
1.91838e-05
0.00178174
9.51649e-05
0.00170643
0.000101528
0.00172394
-3.55868e-06
0.00186157
-0.000221632
0.00210327
-0.000486018
0.00240465
-0.000682666
0.00271682
-0.000708277
0.00299927
-0.000537087
0.00319743
-0.000220072
0.00325307
0.000124777
0.00315676
0.000370586
0.00293474
0.000470931
0.00263665
0.000442955
0.00231764
0.000334477
0.00201727
0.000203756
0.00174631
9.23764e-05
0.00149982
2.02891e-05
0.00127181
-1.42023e-05
0.00105918
-2.29205e-05
0.000862427
-1.93126e-05
0.00068466
-1.37965e-05
0.000529746
-1.21064e-05
0.000400692
-1.59952e-05
0.000298716
-2.48948e-05
0.000223157
-3.75005e-05
0.000172
-5.26959e-05
0.000142636
-6.97858e-05
0.000132111
-8.8396e-05
0.000137134
-0.000108353
0.000154326
-0.000129488
0.00018072
-0.000151654
0.000213815
-0.00017472
0.000251711
-0.000198583
0.000293048
-0.000223184
0.00033694
-0.000248522
0.000382889
-0.000274649
0.000430679
-0.000301663
0.000480263
-0.000329675
0.000531633
-0.000358785
0.000584732
-0.000389053
0.000639374
-0.000420474
0.00069521
-0.000452963
0.000751729
-0.000486361
0.000808283
-0.000520441
0.000864137
-0.00055493
0.000918528
-0.000589541
0.00097072
-0.000623996
0.00102005
-0.000658059
0.00106598
-0.000691558
0.0011081
-0.000724393
0.00114615
-0.000756538
0.00118
-0.000788034
0.00120965
-0.000818964
0.00123522
-0.000849429
0.00125689
-0.000879509
0.00127495
-0.000909231
0.00128974
-0.000938547
0.00130169
-0.000967331
0.00131134
-0.000995404
0.00131938
-0.0010226
0.00132661
-0.00104883
0.00133397
-0.00107418
0.00134241
-0.00109894
0.00135281
-0.00112362
0.00136577
-0.00114887
-0.00117551
0.0013816
0.000128074
-0.000135534
0.000427227
-0.000390339
0.00101593
-0.000733003
0.00195702
-0.0011691
0.0031644
-0.00156648
0.00450361
-0.00181546
0.00578232
-0.00182479
0.00679739
-0.00157238
0.00742849
-0.00114471
0.00769797
-0.000700055
0.00773584
-0.000364371
0.00768196
-0.00015793
0.00762237
-3.21122e-05
0.0075867
5.48504e-05
0.00756121
0.000120658
0.00748891
0.00017383
0.00726356
0.000221783
0.00676676
0.00027517
0.00593513
0.000345613
0.00481752
0.000434948
0.00356253
0.00054671
0.00234452
0.000680927
0.00130192
0.000822528
0.000503959
0.000922735
-8.60031e-05
0.000960548
-0.000522085
0.000907013
-0.000837882
0.000758752
-0.00105398
0.000550574
-0.00119374
0.000343514
-0.00128044
0.000179081
-0.00132516
6.50055e-05
-0.00133987
5.07494e-07
-0.00132942
-3.33705e-05
-0.00129788
-5.08522e-05
-0.00124936
-6.23189e-05
-0.0011875
-7.39606e-05
-0.00111495
-8.85511e-05
-0.00103377
-0.000106068
-0.000946036
-0.000125237
-0.000853705
-0.000145026
-0.000758663
-0.000164828
-0.000663019
-0.00018404
-0.000568139
-0.000203232
-0.000475217
-0.00022241
-0.000385107
-0.000241764
-0.000298288
-0.000261538
-0.000214891
-0.00028198
-0.000134757
-0.000303318
-5.75299e-05
-0.000325749
1.72429e-05
-0.000349422
9.00101e-05
-0.00037443
0.000161138
-0.000400803
0.000230856
-0.000428503
0.000299226
-0.000457424
0.00036615
-0.000487398
0.00043139
-0.000518203
0.000494609
-0.00054958
0.00055542
-0.000581252
0.000613433
-0.000612943
0.000668302
-0.000644409
0.000719757
-0.00067545
0.000767628
-0.000705931
0.000811854
-0.000735784
0.000852472
-0.000765011
0.000889603
-0.000793669
0.000923423
-0.000821854
0.000954137
-0.000849678
0.000981953
-0.000877246
0.00100707
-0.000904628
0.00102969
-0.000931851
0.00105004
-0.000958893
0.0010684
-0.000985695
0.0010852
-0.0010122
0.00110098
-0.00103838
0.00111647
-0.00106431
0.00113245
-0.00109016
0.00114974
-0.00111622
0.00116898
-0.00114287
0.00119062
-0.0011705
-0.00119991
0.00121501
-0.000360509
0.000224975
-0.000931981
0.000181133
-0.00145399
-0.00021099
-0.00199278
-0.00063032
-0.00263532
-0.000923927
-0.00339227
-0.00105852
-0.00419751
-0.00101956
-0.00495486
-0.000815024
-0.00558661
-0.000512954
-0.00603545
-0.000251213
-0.0062623
-0.000137523
-0.00627729
-0.000142939
-0.00613512
-0.000174289
-0.00591304
-0.000167226
-0.00568043
-0.000111956
-0.00549228
-1.43176e-05
-0.00538927
0.000118774
-0.00538785
0.000273751
-0.00547215
0.000429915
-0.00559612
0.000558912
-0.00570759
0.000658181
-0.00574299
0.000716327
-0.00565804
0.000737581
-0.0054522
0.000716898
-0.00514007
0.000648416
-0.00476587
0.000532814
-0.00439087
0.000383746
-0.00406577
0.000225478
-0.00381612
9.38604e-05
-0.00361361
-2.34264e-05
-0.00343853
-0.000110073
-0.00326015
-0.000177872
-0.00306247
-0.000231056
-0.0028419
-0.000271418
-0.00260452
-0.000299699
-0.0023599
-0.000318581
-0.00211702
-0.000331429
-0.00188313
-0.000339965
-0.00166267
-0.000345699
-0.00145788
-0.000349809
-0.00126951
-0.0003532
-0.00109698
-0.000356571
-0.000939666
-0.000360547
-0.000796463
-0.000365614
-0.000666059
-0.000372169
-0.000547073
-0.000380524
-0.000438147
-0.000390906
-0.000338013
-0.000403453
-0.000245533
-0.000418229
-0.000159729
-0.000435226
-7.97859e-05
-0.000454374
-5.0392e-06
-0.00047555
6.50362e-05
-0.000498579
0.000130854
-0.000523242
0.000192738
-0.000549282
0.000250944
-0.000576409
0.000305686
-0.000604322
0.000357153
-0.000632719
0.000405532
-0.000661323
0.000451018
-0.000689896
0.000493827
-0.00071826
0.000534197
-0.000746301
0.000572383
-0.00077397
0.000608643
-0.000801271
0.000643222
-0.000828247
0.000676331
-0.000854963
0.000708139
-0.000881487
0.000738768
-0.000907875
0.000768302
-0.000934162
0.000796816
-0.000960365
0.000824412
-0.00098649
0.000851264
-0.00101255
0.00087764
-0.00103857
0.000903908
-0.00106465
0.000930506
-0.00109091
0.000957876
-0.00111753
0.000986384
-0.00114473
0.00101625
-0.00117273
0.00104753
-0.00120179
-0.00123265
0.00108027
0.000356462
-0.000131488
0.000751586
-0.00021399
0.000786502
-0.000245905
0.000359161
-0.000202979
-0.00049789
-6.6876e-05
-0.00168528
0.000128876
-0.00301786
0.000313018
-0.00427433
0.00044145
-0.00529812
0.000510833
-0.00607423
0.000524905
-0.00669684
0.000485081
-0.00729581
0.000456038
-0.00790959
0.00043949
-0.00850075
0.000423934
-0.00901355
0.000400841
-0.00939704
0.000369173
-0.00961066
0.000332395
-0.00963108
0.000294168
-0.00945744
0.000256277
-0.00911689
0.00021836
-0.00863773
0.000179024
-0.00805628
0.00013488
-0.00740164
8.29369e-05
-0.00670622
2.14767e-05
-0.00600975
-4.80558e-05
-0.00535338
-0.000123558
-0.0047671
-0.000202532
-0.004261
-0.000280621
-0.0038127
-0.000354436
-0.0034169
-0.000419235
-0.00305232
-0.000474653
-0.00271056
-0.000519631
-0.00238876
-0.000552858
-0.00208711
-0.000573061
-0.00180714
-0.000579669
-0.00155187
-0.000573847
-0.00132474
-0.000558561
-0.00112715
-0.000537558
-0.000958299
-0.000514549
-0.000815623
-0.000492485
-0.000695513
-0.00047331
-0.000594024
-0.00045806
-0.000507441
-0.00044713
-0.000432518
-0.000440537
-0.00036657
-0.000438117
-0.000307456
-0.000439638
-0.000253509
-0.000444852
-0.000203454
-0.000453508
-0.000156331
-0.000465352
-0.000111427
-0.00048013
-6.82182e-05
-0.000497582
-2.63262e-05
-0.000517442
1.45201e-05
-0.000539425
5.45115e-05
-0.000563233
9.37806e-05
-0.00058855
0.000132418
-0.000615046
0.000170485
-0.000642389
0.000208023
-0.000670258
0.000245068
-0.000698367
0.000281651
-0.000726479
0.000317809
-0.000754417
0.000353579
-0.000782072
0.000389003
-0.000809395
0.000424115
-0.000836383
0.000458937
-0.000863069
0.000493475
-0.000889501
0.000527721
-0.000915734
0.000561664
-0.000941819
0.000595307
-0.000967805
0.000628681
-0.000993739
0.000661864
-0.00101967
0.000694987
-0.00104567
0.000728225
-0.00107181
0.000761769
-0.00109819
0.000795788
-0.00112493
0.000830381
-0.00115213
0.00086555
-0.0011799
0.000901176
-0.00120836
0.000937056
-0.00123767
-0.00126852
0.000972932
5.37153e-05
-0.000185203
4.46058e-05
-0.000204881
-0.000110536
-9.07634e-05
-0.000314054
5.39229e-07
-0.000413609
3.26787e-05
-0.000303041
1.83081e-05
3.1325e-05
-2.13482e-05
0.000540596
-6.78205e-05
0.00115928
-0.00010785
0.00181648
-0.000132293
0.00243674
-0.000135187
0.00301324
-0.000120457
0.00355492
-0.000102194
0.00407063
-9.17761e-05
0.00455585
-8.43797e-05
0.00499712
-7.20907e-05
0.00538223
-5.2714e-05
0.00570362
-2.72219e-05
0.00595492
4.97563e-06
0.00613519
3.80926e-05
0.00624946
6.47443e-05
0.00630598
7.8364e-05
0.00631501
7.39118e-05
0.00628671
4.97746e-05
0.00622546
1.31905e-05
0.00613864
-3.67359e-05
0.00603074
-9.46309e-05
0.00589886
-0.000148743
0.00573272
-0.0001883
0.00551677
-0.000203279
0.00523123
-0.000189112
0.00486492
-0.000153325
0.00442429
-0.000112225
0.00393319
-8.19672e-05
0.00342434
-7.0817e-05
0.0029281
-7.76036e-05
0.00246553
-9.59922e-05
0.00204762
-0.000119651
0.00167771
-0.000144632
0.00135463
-0.000169406
0.00107524
-0.000193921
0.000835863
-0.000218684
0.000632944
-0.00024421
0.00046322
-0.000270812
0.0003237
-0.000298597
0.000211582
-0.00032752
0.000124167
-0.000357438
5.8814e-05
-0.000388155
1.29255e-05
-0.000419463
-1.60442e-05
-0.00045116
-3.05602e-05
-0.000483067
-3.2968e-05
-0.000515034
-2.54504e-05
-0.000546943
-9.98715e-06
-0.000578697
1.16777e-05
-0.000610215
3.80526e-05
-0.000641421
6.79009e-05
-0.000672237
0.000100227
-0.000702584
0.000134251
-0.000732392
0.000169385
-0.000761612
0.000205191
-0.000790222
0.000241354
-0.000818236
0.000277654
-0.000845694
0.000313935
-0.000872665
0.000350095
-0.000899229
0.000386068
-0.000925475
0.000421825
-0.000951491
0.000457368
-0.000977362
0.000492733
-0.00100317
0.000527986
-0.00102899
0.000563213
-0.0010549
0.000598511
-0.00108097
0.000633961
-0.00110726
0.000669613
-0.00113385
0.000705463
-0.00116078
0.000741441
-0.0011881
0.00077741
-0.00121587
0.000813177
-0.00124412
0.000848523
-0.00127302
-0.00130317
0.000883173
-0.000596688
0.000411485
-0.00145222
0.000650648
-0.00214485
0.000601866
-0.00265567
0.000511361
-0.00301751
0.000394525
-0.00324652
0.000247312
-0.00335855
9.06801e-05
-0.0033732
-5.31687e-05
-0.0033075
-0.000173546
-0.00316958
-0.000270212
-0.00295277
-0.000351998
-0.00264236
-0.00043087
-0.00223691
-0.000507639
-0.00175403
-0.00057466
-0.00121604
-0.000622371
-0.000644838
-0.000643291
-6.67131e-05
-0.000630839
0.000486622
-0.000580557
0.0009876
-0.000496002
0.00141688
-0.000391189
0.00176604
-0.000284409
0.00203415
-0.000189754
0.00222288
-0.000114812
0.00233519
-6.25422e-05
0.00238119
-3.28101e-05
0.00236792
-2.34661e-05
0.0023028
-2.95045e-05
0.00219698
-4.29195e-05
0.00206213
-5.34592e-05
0.00190832
-4.9461e-05
0.00174545
-2.62493e-05
0.00158294
9.18928e-06
0.00142661
4.41009e-05
0.00127479
6.98543e-05
0.00112676
7.72211e-05
0.000985277
6.38738e-05
0.000849597
3.96885e-05
0.000719258
1.06872e-05
0.00059418
-1.95534e-05
0.000474524
-4.975e-05
0.000360837
-8.02336e-05
0.000254078
-0.000111925
0.000155604
-0.000145736
6.69365e-05
-0.000182145
-1.04293e-05
-0.000221231
-7.52292e-05
-0.00026272
-0.000126591
-0.000306076
-0.00016415
-0.000350595
-0.000188095
-0.000395518
-0.000199145
-0.00044011
-0.000198479
-0.000483732
-0.000187626
-0.000525886
-0.000168321
-0.000566247
-0.000142346
-0.000604672
-0.000111377
-0.000641185
-7.68751e-05
-0.000675923
-4.00314e-05
-0.000709081
-1.75863e-06
-0.000740857
3.72805e-05
-0.000771432
7.66278e-05
-0.00080096
0.000115982
-0.000829577
0.000155154
-0.000857408
0.000194032
-0.000884572
0.000232554
-0.000911188
0.000270695
-0.00093737
0.000308452
-0.000963232
0.000345841
-0.000988879
0.000382888
-0.00101441
0.000419631
-0.00103991
0.000456107
-0.00106547
0.000492348
-0.00109114
0.00052837
-0.00111699
0.000564169
-0.00114306
0.000599714
-0.00116939
0.00063495
-0.00119601
0.000669794
-0.00122295
0.000704145
-0.00125022
0.000737892
-0.00127787
0.000770916
-0.00130604
-0.00133529
0.000803034
0.000622327
-0.000210842
0.00164821
-0.000375235
0.00269628
-0.000446209
0.0037044
-0.00049675
0.00463485
-0.000535926
0.00543684
-0.00055468
0.00606903
-0.000541516
0.0065006
-0.000484739
0.00672003
-0.000392973
0.00673384
-0.000284024
0.00655471
-0.000172865
0.00619657
-7.27345e-05
0.00568227
6.66213e-06
0.00504859
5.90278e-05
0.00434295
8.32661e-05
0.00361482
8.48398e-05
0.00291163
7.235e-05
0.00227877
5.23037e-05
0.00174558
3.71878e-05
0.00131942
3.49712e-05
0.000983694
5.13136e-05
0.000707579
8.63605e-05
0.000461732
0.000131035
0.000232166
0.000167023
1.57002e-05
0.000183656
-0.000184152
0.000176386
-0.000360079
0.000146422
-0.000503472
0.000100474
-0.000603589
4.66574e-05
-0.000646399
-6.65112e-06
-0.000619442
-5.32059e-05
-0.00052074
-8.95137e-05
-0.000361834
-0.000114805
-0.000162133
-0.000129847
5.07563e-05
-0.000135668
0.000247609
-0.000132979
0.000410002
-0.000122704
0.000527378
-0.000106689
0.00059569
-8.78651e-05
0.000615917
-6.99777e-05
0.000592764
-5.70799e-05
0.000533752
-5.29142e-05
0.000448242
-6.02254e-05
0.000346532
-8.04351e-05
0.000238727
-0.000113427
0.000133712
-0.000157705
3.84913e-05
-0.000210856
-4.20559e-05
-0.000270049
-0.000105149
-0.000332425
-0.000149871
-0.000395388
-0.000176831
-0.000456772
-0.000187779
-0.000514939
-0.000185186
-0.000568839
-0.000171811
-0.000618047
-0.000150311
-0.000662685
-0.000122973
-0.000703261
-9.16049e-05
-0.000740449
-5.75374e-05
-0.000774924
-2.17059e-05
-0.000807263
1.52522e-05
-0.000837918
5.29059e-05
-0.000867231
9.09614e-05
-0.000895464
0.000129213
-0.000922824
0.000167509
-0.000949484
0.000205735
-0.000975597
0.000243799
-0.0010013
0.000281625
-0.00102671
0.000319148
-0.00105193
0.000356308
-0.00107707
0.00039305
-0.00110221
0.000429321
-0.00112741
0.000465067
-0.00115274
0.000500237
-0.00117823
0.000534779
-0.00120393
0.000568646
-0.00122988
0.000601791
-0.00125609
0.000634173
-0.0012826
0.000665753
-0.00130945
0.000696485
-0.00133677
-0.00136507
0.000726257
-0.000103523
-0.000107319
-0.000247321
-0.000231437
-0.000399845
-0.000293684
-0.000554045
-0.00034255
-0.00070739
-0.000382581
-0.000863318
-0.000398751
-0.00102872
-0.00037611
-0.00120412
-0.000309347
-0.00139502
-0.000202067
-0.00161389
-6.51613e-05
-0.00187207
8.5324e-05
-0.0021778
0.000232988
-0.00253357
0.000362436
-0.00293211
0.000457566
-0.00334993
0.000501086
-0.00374536
0.00048027
-0.00406682
0.000393812
-0.00427186
0.000257346
-0.00433375
9.90725e-05
-0.0042527
-4.6082e-05
-0.00405326
-0.000148124
-0.00377062
-0.000196277
-0.00343647
-0.000203118
-0.00307396
-0.000195483
-0.0026987
-0.000191604
-0.00232291
-0.000199407
-0.00195541
-0.000221075
-0.00160796
-0.000246972
-0.00128196
-0.000279346
-0.00097773
-0.000310881
-0.000693108
-0.000337828
-0.000424978
-0.000357644
-0.000171593
-0.00036819
6.61372e-05
-0.000367578
0.000284836
-0.000354367
0.000479798
-0.000327941
0.000645945
-0.000288851
0.000778287
-0.00023903
0.000872295
-0.000181874
0.000924468
-0.000122151
0.00093309
-6.57013e-05
0.000899019
-1.88432e-05
0.000826437
1.23569e-05
0.00072292
2.30819e-05
0.000598719
1.07739e-05
0.00046528
-2.42652e-05
0.00033353
-7.91049e-05
0.000212384
-0.000148902
0.000107986
-0.000228028
2.3711e-05
-0.000311112
-3.95036e-05
-0.000393558
-8.26888e-05
-0.000471754
-0.000108286
-0.000543242
-0.000119424
-0.000606908
-0.000119246
-0.000662863
-0.000110446
-0.000712061
-9.51017e-05
-0.000755794
-7.47137e-05
-0.000795313
-5.03479e-05
-0.000831629
-2.27813e-05
-0.000865484
7.38452e-06
-0.000897397
3.96512e-05
-0.000927731
7.35829e-05
-0.000956756
0.000108787
-0.000984689
0.000144905
-0.00101171
0.000181611
-0.001038
0.000218615
-0.00106371
0.000255658
-0.00108898
0.000292521
-0.00111394
0.000329017
-0.00113871
0.000364994
-0.00116339
0.000400331
-0.00118807
0.000434933
-0.00121283
0.000468732
-0.00123773
0.000501678
-0.00126283
0.000533739
-0.00128815
0.000564894
-0.00131376
0.00059513
-0.00133969
0.000624427
-0.00136607
-0.00139334
0.000652706
-0.000314278
0.000206959
-0.000857702
0.000311987
-0.00146995
0.000318567
-0.0021225
0.000310001
-0.00276209
0.000257005
-0.00331572
0.000154876
-0.00371469
2.28666e-05
-0.00392188
-0.000102165
-0.0039418
-0.000182144
-0.00380706
-0.000199903
-0.00355948
-0.000162255
-0.00323581
-9.06765e-05
-0.00286395
-9.42816e-06
-0.00246748
6.10981e-05
-0.00207066
0.000104261
-0.00170035
0.000109969
-0.00138665
8.01052e-05
-0.00115855
2.92465e-05
-0.00103738
-2.20957e-05
-0.001027
-5.64652e-05
-0.00110781
-6.73124e-05
-0.00124275
-6.13349e-05
-0.00139082
-5.50462e-05
-0.00152392
-6.23845e-05
-0.00162374
-9.17826e-05
-0.00168109
-0.000142059
-0.00169805
-0.000204118
-0.00166643
-0.000278597
-0.00159319
-0.000352577
-0.0014816
-0.000422473
-0.00133556
-0.000483866
-0.00116045
-0.000532755
-0.000963074
-0.000565569
-0.000751215
-0.000579438
-0.000532915
-0.000572666
-0.000315677
-0.00054518
-0.000105839
-0.000498688
9.15644e-05
-0.000436434
0.000272391
-0.0003627
0.000432468
-0.000282229
0.000566944
-0.000200178
0.000670298
-0.000122197
0.000737017
-5.43617e-05
0.000762905
-2.80665e-06
0.000746534
2.71446e-05
0.000690301
3.19682e-05
0.000602101
9.09404e-06
0.000493949
-4.07495e-05
0.000379211
-0.000113289
0.000269859
-0.00020176
0.000174289
-0.000297988
9.65296e-05
-0.000393994
3.69981e-05
-0.000483711
-6.03065e-06
-0.000563879
-3.50201e-05
-0.000633874
-5.23173e-05
-0.000694764
-5.98402e-05
-0.000748271
-5.9085e-05
-0.000796068
-5.12447e-05
-0.00083947
-3.73229e-05
-0.000879407
-1.82089e-05
-0.000916511
5.28002e-06
-0.00095122
3.23801e-05
-0.000983856
6.23761e-05
-0.00101468
9.4604e-05
-0.00104394
0.000128458
-0.00107186
0.000163398
-0.00109865
0.000198953
-0.00112453
0.000234723
-0.0011497
0.000270377
-0.00117436
0.000305653
-0.00119866
0.000340343
-0.00122276
0.000374294
-0.00124678
0.000407391
-0.00127083
0.000439557
-0.00129499
0.00047074
-0.00131934
0.000500908
-0.00134393
0.000530044
-0.00136882
0.000558125
-0.00139415
-0.00142029
0.000585067
0.000315859
-0.0001089
0.000500317
0.000127528
0.000205762
0.000613122
-0.00045751
0.000973273
-0.00121221
0.0010117
-0.00180883
0.000751498
-0.00212797
0.000342008
-0.00218764
-4.24977e-05
-0.00207401
-0.000295779
-0.00187676
-0.000397147
-0.00165262
-0.000386393
-0.00141276
-0.000330537
-0.00113674
-0.000285454
-0.000811574
-0.000264065
-0.000451246
-0.000256066
-8.78343e-05
-0.000253443
0.000239933
-0.000247662
0.000505482
-0.000236302
0.000699086
-0.0002157
0.000833309
-0.000190688
0.00093177
-0.000165774
0.00101727
-0.000146839
0.00109979
-0.000137558
0.00117581
-0.000138406
0.00123368
-0.000149658
0.00126203
-0.000170408
0.00125666
-0.000198742
0.00121051
-0.000232453
0.00112749
-0.000269553
0.0010134
-0.000308389
0.000876616
-0.00034708
0.000727035
-0.000383174
0.00057448
-0.000413014
0.000427044
-0.000432001
0.000290129
-0.000435751
0.000166681
-0.000421732
5.85089e-05
-0.000390517
-3.22101e-05
-0.000345715
-0.000102561
-0.000292349
-0.000149693
-0.000235096
-0.000172273
-0.000177598
-0.000171515
-0.000122955
-0.000151343
-7.45342e-05
-0.000117679
-3.6471e-05
-7.81201e-05
-1.24137e-05
-3.91936e-05
-6.95792e-06
-7.11623e-06
-2.29831e-05
1.45447e-05
-6.24104e-05
2.47584e-05
-0.000123503
2.39832e-05
-0.000200985
1.36318e-05
-0.000287636
-4.04255e-06
-0.00037632
-2.60516e-05
-0.000461702
-4.90361e-05
-0.000540895
-6.9845e-05
-0.000613065
-8.60264e-05
-0.000678582
-9.60375e-05
-0.00073826
-9.91868e-05
-0.000792919
-9.54299e-05
-0.000843226
-8.51444e-05
-0.000889692
-6.89508e-05
-0.000932705
-4.75945e-05
-0.000972576
-2.18758e-05
-0.00100957
7.39384e-06
-0.00104395
3.94221e-05
-0.00107597
7.34612e-05
-0.0011059
0.000108829
-0.00113402
0.000144926
-0.00116063
0.000181238
-0.00118602
0.000217346
-0.00121047
0.000252914
-0.00123423
0.00028769
-0.00125754
0.000321491
-0.00128058
0.00035419
-0.00130353
0.000385712
-0.00132651
0.000416015
-0.00134964
0.000445084
-0.00137299
0.00047292
-0.00139666
0.000499522
-0.00142075
-0.00144559
0.000524824
-0.00040941
0.000300509
-0.00114731
0.000865429
-0.00191785
0.00138367
-0.00262833
0.00168374
-0.00327389
0.00165727
-0.00384184
0.00131944
-0.00432347
0.00082364
-0.00469536
0.000329395
-0.00491798
-7.31611e-05
-0.00495762
-0.000357511
-0.00480552
-0.000538491
-0.00448343
-0.000652622
-0.00403742
-0.000731472
-0.00351181
-0.000789674
-0.0029429
-0.000824978
-0.00236305
-0.000833291
-0.00179622
-0.000814491
-0.00126497
-0.000767552
-0.00077492
-0.000705749
-0.000331028
-0.000634579
5.7565e-05
-0.000554367
0.00038185
-0.000471124
0.000641901
-0.000397609
0.000832805
-0.00032931
0.000949762
-0.000266615
0.000989654
-0.0002103
0.000949145
-0.000158232
0.000824566
-0.000107874
0.000614089
-5.9076e-05
0.000323001
-1.73013e-05
-3.02785e-05
6.20035e-06
-0.000413403
-4.92275e-08
-0.000786993
-3.94246e-05
-0.00111699
-0.000102007
-0.0013841
-0.00016864
-0.00158602
-0.000219813
-0.00173235
-0.00024418