/*--------------------------------*- C++ -*----------------------------------*\
| =========                 |                                                 |
| \\      /  F ield         | OpenFOAM: The Open Source CFD Toolbox           |
|  \\    /   O peration     | Version:  2012                                  |
|   \\  /    A nd           | Website:  www.openfoam.com                      |
|    \\/     M anipulation  |                                                 |
\*---------------------------------------------------------------------------*/
FoamFile
{
    version     2.0;
    format      ascii;
    class       surfaceScalarField;
    location    "0.31";
    object      phi;
}
// * * * * * * * * * * * * * * * * * * * * * * * * * * * * * * * * * * * * * //

dimensions      [0 3 -1 0 0 0 0];
oriented        oriented;


internalField   nonuniform List<scalar> 
84340
(
-4.6412e-05
-2.54334e-05
7.18454e-05
-4.4497e-05
0.000140219
-0.000142134
1.74281e-05
0.00036308
-0.000425005
6.42975e-05
0.000425772
-0.000472642
9.47067e-05
0.000336527
-0.000366937
0.000156207
0.000189735
-0.000251235
0.000285276
3.55691e-05
-0.000164638
0.000491764
-0.00010745
-9.90373e-05
0.000778752
-0.000234216
-5.27722e-05
0.00116076
-0.000345184
-3.68264e-05
0.00166053
-0.000441002
-5.87678e-05
0.00228819
-0.000517822
-0.000109838
0.0030395
-0.000568372
-0.000182939
0.00388673
-0.000588513
-0.000258716
0.0047888
-0.000581858
-0.000320213
0.00569061
-0.000553798
-0.000348013
0.00654386
-0.000507332
-0.000345912
0.00730428
-0.000444191
-0.000316231
0.00793952
-0.000365288
-0.00026995
0.00843919
-0.000271033
-0.000228643
0.00880324
-0.000164802
-0.000199245
0.00903332
-5.42532e-05
-0.000175828
0.00913195
5.15988e-05
-0.000150233
0.00910444
0.000143701
-0.000116191
0.00896705
0.000211637
-7.42413e-05
0.00874786
0.000244768
-2.55788e-05
0.00848261
0.000237224
2.8022e-05
0.0082068
0.000191732
8.40751e-05
0.00794607
0.000119593
0.000141139
0.00771096
3.74351e-05
0.000197673
0.00749711
-3.93309e-05
0.000253187
0.00728881
-9.92963e-05
0.000307593
0.00706894
-0.000141524
0.000361398
0.00681304
-0.00015919
0.000415088
0.00650586
-0.000161208
0.000468383
0.00614071
-0.000154052
0.000519205
0.00571758
-0.000140736
0.000563872
0.00524177
-0.000122209
0.000598017
0.00472299
-9.90114e-05
0.000617793
0.00417462
-7.20872e-05
0.000620457
0.00361282
-4.26531e-05
0.000604446
0.00305546
-1.24218e-05
0.000569785
0.00252074
1.5583e-05
0.000519141
0.00202259
3.98611e-05
0.000458283
0.00157827
4.95957e-05
0.000394722
0.00119994
4.38543e-05
0.000334483
0.000893681
2.55239e-05
0.000280731
0.000659166
8.43602e-08
0.000234431
0.000491342
-2.79766e-05
0.000195801
0.000381391
-5.51278e-05
0.000165078
0.00031908
-8.00904e-05
0.000142402
0.000294428
-0.000102844
0.000127495
0.000298746
-0.000123966
0.000119648
0.000325015
-0.000144191
0.000117922
0.000367836
-0.000164218
0.000121396
0.000423141
-0.000184648
0.000129344
0.00048782
-0.000205976
0.000141297
0.000559387
-0.000228591
0.000157024
0.000635693
-0.000252775
0.000176469
0.000714714
-0.000278697
0.000199676
0.000794407
-0.000306409
0.000226716
0.000872632
-0.000335843
0.000257618
0.000947144
-0.000366824
0.000292313
0.00101567
-0.000399094
0.000330568
0.00107607
-0.000432346
0.000371947
0.00112657
-0.000466283
0.000415783
0.00116605
-0.000500666
0.000461187
0.00119432
-0.000535372
0.000507102
0.00121232
-0.000570413
0.000552411
0.00122215
-0.000605922
0.000596092
0.00122683
-0.000642082
0.000637401
0.00122985
-0.000679015
0.000675994
0.00123455
-0.000716654
0.000711961
0.00124347
-0.000754655
0.000745728
0.00125799
-0.0007924
0.000777882
0.00127811
-0.000829107
0.000808985
0.00130262
-0.00086398
0.000839476
0.00132931
-0.000896353
0.000869661
0.0013551
-0.000925826
0.000900038
-0.000952009
0.000932923
0.00137418
-0.000356549
0.000331115
-0.000704924
0.000488594
-0.000772534
0.00043069
-0.000704577
0.000357816
-0.000705647
0.000337597
-0.000901595
0.000385683
-0.00134419
0.00047816
-0.00201337
0.000561737
-0.00282621
0.000578624
-0.00366501
0.000493613
-0.00441788
0.000311869
-0.00500857
7.28674e-05
-0.00540125
-0.000175693
-0.00559082
-0.00039894
-0.00559146
-0.000581219
-0.005429
-0.000716263
-0.00513266
-0.000803666
-0.00472761
-0.000849244
-0.00424767
-0.000845228
-0.00372075
-0.000797951
-0.00317534
-0.000710215
-0.00263745
-0.000592142
-0.00212781
-0.000458036
-0.00166137
-0.000322739
-0.00124569
-0.000204042
-0.000881271
-0.000119654
-0.000564742
-7.93049e-05
-0.000297104
-7.59061e-05
-7.47595e-05
-0.000102751
0.000104383
-0.000141707
0.000241077
-0.000176025
0.000333598
-0.000191817
0.000375629
-0.000183555
0.000367837
-0.000151398
0.000315497
-0.000108867
0.000230282
-6.88375e-05
0.000123747
-3.42007e-05
9.33162e-06
-7.79352e-06
-9.85369e-05
8.8569e-06
-0.000187197
1.65724e-05
-0.00024773
1.78803e-05
-0.000272057
1.19053e-05
-0.000259206
2.73237e-06
-0.000211666
-7.67904e-06
-0.000142411
-1.96588e-05
-6.48523e-05
-3.37045e-05
1.25854e-05
-5.19137e-05
8.16175e-05
-6.89478e-05
0.000139819
-8.61785e-05
0.000188659
-0.000103968
0.000230806
-0.000122237
0.000268911
-0.000140949
0.000305214
-0.000160268
0.000341433
-0.000180409
0.000378789
-0.000201574
0.000418058
-0.000223918
0.000459623
-0.00024754
0.00050352
-0.000272488
0.000549499
-0.000298754
0.000597089
-0.000326287
0.000645678
-0.000354998
0.000694618
-0.000384782
0.000743326
-0.000415533
0.000791402
-0.000447169
0.000838698
-0.000479643
0.000885358
-0.000512943
0.000931773
-0.000547081
0.000978462
-0.00058206
0.00102587
-0.000617826
0.00107418
-0.000654223
0.00112306
-0.000690969
0.0011717
-0.000727656
0.00121884
-0.000763797
0.00126309
-0.000798897
0.00130322
-0.000832528
0.00133849
-0.000864383
0.00136881
-0.000894299
0.00139469
-0.000922237
0.00141711
-0.000948243
-0.000972516
0.00143761
0.000568173
-0.000237057
0.00153277
-0.000476005
0.00257074
-0.000607276
0.00366666
-0.000738112
0.00476315
-0.000758885
0.00576969
-0.000620862
0.00662852
-0.000380668
0.00731518
-0.000124925
0.00781434
7.94656e-05
0.00812137
0.000186583
0.00823663
0.000196604
0.00816448
0.000145017
0.00791521
7.35858e-05
0.00750876
7.50501e-06
0.00697365
-4.61063e-05
0.00634767
-9.02819e-05
0.00567556
-0.000131559
0.0049892
-0.000162887
0.004324
-0.000180027
0.00370587
-0.000179823
0.00315442
-0.000158765
0.00267499
-0.000112705
0.00227698
-6.00253e-05
0.00195314
1.09318e-06
0.00169064
5.84591e-05
0.00147247
9.85141e-05
0.00128148
0.000111691
0.00110927
9.63012e-05
0.000948395
5.81248e-05
0.000798622
8.06562e-06
0.000668656
-4.60591e-05
0.000564548
-8.77101e-05
0.000489152
-0.000108159
0.000444801
-0.000107047
0.000426344
-9.04096e-05
0.000420048
-6.25419e-05
0.000417539
-3.16918e-05
0.00041305
-3.30415e-06
0.000402578
1.93285e-05
0.000384464
3.46869e-05
0.000359746
4.2599e-05
0.000328078
4.35731e-05
0.000292537
3.8273e-05
0.000257301
2.75569e-05
0.000225477
1.21647e-05
0.000198637
-6.86427e-06
0.00017698
-3.02575e-05
0.000161733
-5.37005e-05
0.000154725
-7.91714e-05
0.000156214
-0.000105457
0.000165592
-0.000131614
0.000182155
-0.000157513
0.000205091
-0.000183204
0.000233568
-0.000208887
0.00026684
-0.000234847
0.00030431
-0.000261387
0.000345543
-0.000288772
0.000390236
-0.000317181
0.000438166
-0.000346684
0.000489123
-0.000377244
0.000542858
-0.000408733
0.000599046
-0.00044097
0.000657273
-0.00047376
0.000717019
-0.000506916
0.000777652
-0.000540275
0.000838407
-0.000573697
0.000898378
-0.000607052
0.000956532
-0.000640214
0.00101176
-0.000673054
0.00106299
-0.000705458
0.00110935
-0.000737329
0.00115031
-0.000768612
0.00118581
-0.000799293
0.00121631
-0.000829398
0.00124275
-0.000858965
0.00126639
-0.000888026
0.00128868
-0.000916589
0.00131109
-0.000944645
0.00133508
-0.00097223
-0.000999607
0.00136217
-7.06363e-05
-0.000166421
-0.000252272
-0.000294369
-0.000504143
-0.000355405
-0.000714971
-0.000527284
-0.000784499
-0.000689357
-0.00064963
-0.000755731
-0.000318091
-0.000712207
0.000136314
-0.000579329
0.000606829
-0.00039105
0.000987901
-0.000194489
0.00120171
-1.72079e-05
0.00121861
0.000128119
0.00106101
0.000231188
0.000789788
0.000278726
0.000478976
0.000264706
0.000188236
0.000200458
-5.36534e-05
0.000110331
-0.000234481
1.79403e-05
-0.000350261
-6.4247e-05
-0.00039615
-0.000133934
-0.000362809
-0.000192106
-0.000236753
-0.000238761
-2.1119e-05
-0.000275659
0.000261777
-0.000281803
0.000588021
-0.000267784
0.00092451
-0.000237975
0.00123276
-0.000196561
0.00148457
-0.00015551
0.0016597
-0.000117003
0.0017498
-8.20325e-05
0.00175363
-4.98895e-05
0.00168484
-1.89219e-05
0.00156712
9.56142e-06
0.00142272
3.7351e-05
0.00127019
6.21276e-05
0.0011235
8.41484e-05
0.000989945
0.000101858
0.000872546
0.000114095
0.00077189
0.000119985
0.000687377
0.000119199
0.000618157
0.000111819
0.000563272
9.84574e-05
0.000521604
7.99415e-05
0.000491933
5.72283e-05
0.000472738
3.13587e-05
0.000462113
3.76146e-06
0.000454966
-2.31114e-05
0.000455601
-5.43352e-05
0.00045938
-8.29499e-05
0.000464234
-0.000110311
0.000469542
-0.000136923
0.000474932
-0.000162903
0.00048037
-0.000188642
0.000486203
-0.000214719
0.000493129
-0.000241772
0.000502109
-0.000270367
0.000514211
-0.000300875
0.000530411
-0.000333381
0.000551394
-0.000367667
0.000577422
-0.000403273
0.000608288
-0.000439598
0.000643353
-0.000476036
0.000681664
-0.000512071
0.000722087
-0.000547338
0.000763446
-0.000581634
0.000804648
-0.000614899
0.000844781
-0.000647186
0.000883193
-0.000678626
0.000919544
-0.000709405
0.000953816
-0.00073973
0.000986287
-0.0007698
0.00101745
-0.000799777
0.00104792
-0.00082976
0.00107829
-0.000859771
0.00110909
-0.00088976
0.00114069
-0.000919626
0.00117335
-0.000949253
0.00120726
-0.000978556
0.00124258
-0.00100755
-0.00103657
0.00127954
-0.000617164
0.000450743
-0.00166303
0.000751499
-0.00277673
0.000758293
-0.00395705
0.000653031
-0.00512562
0.00047922
-0.00615424
0.000272884
-0.00694753
8.10833e-05
-0.00746294
-6.39129e-05
-0.00770325
-0.000150741
-0.00772035
-0.000177391
-0.00758724
-0.000150314
-0.00737802
-8.11068e-05
-0.00715199
5.16357e-06
-0.0069418
6.85334e-05
-0.00674495
6.78556e-05
-0.00653126
-1.32337e-05
-0.00626457
-0.000156356
-0.00592756
-0.000319073
-0.00553498
-0.000456823
-0.00512228
-0.000546641
-0.00472542
-0.000588958
-0.00436837
-0.00059582
-0.00406429
-0.00057973
-0.003797
-0.000549102
-0.00355539
-0.000509386
-0.00332839
-0.00046498
-0.00310477
-0.000420176
-0.00288125
-0.000379037
-0.00265394
-0.000344309
-0.00241952
-0.00031645
-0.00217569
-0.000293721
-0.00192158
-0.000273029
-0.00166077
-0.000251254
-0.00139694
-0.000226481
-0.00113646
-0.000198353
-0.000884447
-0.00016786
-0.00064571
-0.000136878
-0.00042403
-0.000107584
-0.000221947
-8.20982e-05
-4.2542e-05
-6.02066e-05
0.000112872
-4.35948e-05
0.000244151
-3.28221e-05
0.000352222
-2.81295e-05
0.000439028
-2.95775e-05
0.000506968
-3.65813e-05
0.000557942
-4.72118e-05
0.000597123
-6.22934e-05
0.000622976
-8.01883e-05
0.000639409
-9.9383e-05
0.000647936
-0.000118838
0.000649097
-0.000138083
0.000643483
-0.000157289
0.000632157
-0.000177316
0.000616933
-0.000199494
0.000600356
-0.000225195
0.000585322
-0.000255333
0.000574495
-0.000290048
0.000569833
-0.000328718
0.000572342
-0.000370177
0.000582099
-0.000413029
0.000598459
-0.000455958
0.000620356
-0.000497932
0.000646578
-0.000538293
0.000675974
-0.000576735
0.000707567
-0.000613228
0.000740594
-0.000647926
0.000774496
-0.000681087
0.000808881
-0.000713012
0.000843483
-0.000744008
0.000878117
-0.000774363
0.000912641
-0.000804324
0.000946948
-0.000834084
0.000980965
-0.000863777
0.00101467
-0.000893476
0.00104811
-0.000923199
0.00108141
-0.000952929
0.00111479
-0.000982631
0.00114852
-0.00101229
0.00118294
-0.00104197
-0.00107202
0.00121839
0.000631949
-0.000181206
0.00159184
-0.000208389
0.00255433
-0.000204204
0.00349369
-0.000286329
0.00437073
-0.00039782
0.00513285
-0.000489236
0.00576208
-0.000548147
0.00628283
-0.000584663
0.00675292
-0.000620822
0.00722059
-0.000645067
0.0077238
-0.000653519
0.00826469
-0.000621996
0.00881071
-0.000540856
0.00929673
-0.000417493
0.00963655
-0.000271958
0.00975303
-0.000129714
0.00960515
-8.47695e-06
0.00919729
8.8781e-05
0.0085669
0.000173568
0.00778845
0.000231806
0.00692354
0.000275959
0.00602441
0.000303312
0.00512912
0.000315558
0.00426514
0.00031488
0.0034535
0.000302246
0.00271138
0.000277141
0.00205218
0.00023903
0.00148495
0.000188193
0.00101389
0.000126749
0.000638454
5.89831e-05
0.000353682
-8.94913e-06
0.000151586
-7.09326e-05
2.24858e-05
-0.000122154
-4.34366e-05
-0.000160559
-5.58297e-05
-0.00018596
-2.38934e-05
-0.000199796
4.33168e-05
-0.000204088
0.000136705
-0.000200973
0.000247097
-0.000192489
0.000367222
-0.000180332
0.000489881
-0.000166254
0.000608816
-0.000151757
0.000718714
-0.000138028
0.000815023
-0.000125887
0.000894228
-0.000115787
0.000954841
-0.000107824
0.000994582
-0.000102035
0.00101272
-9.83297e-05
0.00101006
-9.67227e-05
0.000988699
-9.74742e-05
0.000951905
-0.000101289
0.000903945
-0.00010933
0.000849898
-0.000123269
0.000794243
-0.000143839
0.00074112
-0.000172073
0.00069459
-0.000208804
0.000657254
-0.000252712
0.00063041
-0.000301875
0.000614184
-0.000353951
0.000607834
-0.00040668
0.000610129
-0.000458254
0.000619667
-0.000507469
0.000635076
-0.000553702
0.000655121
-0.00059678
0.000678722
-0.000636829
0.000704942
-0.000674147
0.000732976
-0.000709121
0.00076214
-0.000742176
0.000791884
-0.000773752
0.000821805
-0.000804284
0.00085166
-0.000834179
0.000881365
-0.000863789
0.000910975
-0.000893387
0.000940649
-0.000923151
0.000970613
-0.000953163
0.00100111
-0.000983425
0.00103236
-0.00101389
0.00106456
-0.00104449
0.00109785
-0.00107525
-0.00110655
0.00113238
-0.000249514
6.83081e-05
-0.000564475
0.000106573
-0.000747211
-2.14682e-05
-0.000781071
-0.000252469
-0.000747011
-0.00043188
-0.000744232
-0.000492015
-0.000844891
-0.000447488
-0.00106659
-0.000362962
-0.00139269
-0.000294726
-0.00177267
-0.000265085
-0.00215696
-0.000269231
-0.00248983
-0.000289126
-0.00272483
-0.000305857
-0.00283574
-0.00030658
-0.00282428
-0.000283412
-0.0027222
-0.000231798
-0.00257892
-0.000151757
-0.00243887
-5.12715e-05
-0.0023177
5.24042e-05
-0.00222512
0.000139218
-0.00215292
0.000203766
-0.00209149
0.000241874
-0.00203435
0.000258423
-0.0019752
0.00025573
-0.00190632
0.000233364
-0.00182079
0.000191609
-0.00171539
0.000133631
-0.00159355
6.63518e-05
-0.00146601
-7.83894e-07
-0.00134055
-6.64808e-05
-0.00122393
-0.00012557
-0.00112233
-0.000172533
-0.00103743
-0.000207057
-0.000967706
-0.000230277
-0.000909824
-0.000243842
-0.000859909
-0.000249712
-0.000814172
-0.000249824
-0.000769474
-0.000245671
-0.000723726
-0.000238237
-0.000675734
-0.000228324
-0.0006253
-0.000216688
-0.000573096
-0.00020396
-0.000520529
-0.000190595
-0.00046949
-0.000176927
-0.000421773
-0.000163503
-0.000378771
-0.000150827
-0.000341242
-0.000139564
-0.000308648
-0.000130924
-0.000279382
-0.000125989
-0.000250729
-0.000126127
-0.000219513
-0.000132506
-0.000182782
-0.00014606
-0.00013872
-0.000167332
-8.59419e-05
-0.000196616
-2.53044e-05
-0.00023271
4.03171e-05
-0.000274426
0.000107864
-0.00032026
0.000174457
-0.000368468
0.000237893
-0.000417387
0.000296855
-0.000465642
0.000350902
-0.000512301
0.00040023
-0.000556798
0.000445431
-0.000598903
0.000487255
-0.000638603
0.000526442
-0.000676016
0.000563634
-0.000711339
0.000599344
-0.000744831
0.000633971
-0.000776803
0.000667829
-0.00080761
0.000701176
-0.000837631
0.00073423
-0.000867234
0.000767181
-0.000896741
0.000800191
-0.000926397
0.000833393
-0.000956353
0.000866893
-0.000986663
0.000900773
-0.00101731
0.000935098
-0.00104821
0.000969922
-0.00107931
0.00100531
-0.00111064
-0.00114263
0.00104139
-0.000283266
0.000351574
-0.000692455
0.000515762
-0.00116903
0.000455108
-0.00178819
0.000366688
-0.00252069
0.000300621
-0.00326236
0.000249659
-0.00389661
0.000186759
-0.00435005
9.04805e-05
-0.00460664
-3.81412e-05
-0.00469169
-0.000180032
-0.00464358
-0.000317338
-0.00449236
-0.000440347
-0.00425583
-0.000542394
-0.00394765
-0.000614754
-0.00358257
-0.0006485
-0.00317505
-0.000639312
-0.00273583
-0.000590976
-0.00227299
-0.00051411
-0.0017998
-0.000420791
-0.00134476
-0.000315819
-0.000933976
-0.00020702
-0.000594802
-9.72999e-05
-0.000343613
7.23419e-06
-0.000185355
9.74725e-05
-0.00011696
0.000164969
-0.000129064
0.000203713
-0.000207152
0.000211719
-0.000332608
0.000191807
-0.000484127
0.000150736
-0.000647579
9.69704e-05
-0.000811996
3.88474e-05
-0.000967744
-1.67856e-05
-0.00110846
-6.63408e-05
-0.00123065
-0.000108083
-0.00133286
-0.000141632
-0.0014187
-0.000163882
-0.00148867
-0.00017985
-0.00154301
-0.000191328
-0.00158141
-0.000199841
-0.00160613
-0.000203601
-0.00161559
-0.00020723
-0.00160824
-0.000211307
-0.00158389
-0.000214953
-0.00154293
-0.000217883
-0.00148629
-0.000220148
-0.00141508
-0.000222034
-0.00133041
-0.000224228
-0.00123366
-0.000227681
-0.00112625
-0.000233398
-0.00100998
-0.000242396
-0.000886953
-0.000255531
-0.00075968
-0.000273335
-0.000631029
-0.000295983
-0.000504407
-0.000323239
-0.000382649
-0.000354467
-0.000268258
-0.000388816
-0.000163151
-0.000425367
-6.8372e-05
-0.000463247
1.59648e-05
-0.000501724
9.05784e-05
-0.000540256
0.000156697
-0.000578419
0.000215837
-0.000615938
0.000269518
-0.000652585
0.000319091
-0.000688177
0.00036565
-0.000722574
0.000410017
-0.000755706
0.000452783
-0.000787597
0.00049435
-0.00081837
0.000534985
-0.000848245
0.000574859
-0.000877505
0.000614084
-0.000906458
0.000652735
-0.000935392
0.000690876
-0.000964538
0.000728567
-0.000994044
0.000765878
-0.00102397
0.000802886
-0.00105431
0.000839678
-0.001085
0.000876343
-0.00111598
0.000912986
-0.00114728
-0.00117941
0.000949765
0.00084122
-0.000489646
0.00193961
-0.000582626
0.00259015
-0.000195431
0.00274394
0.000212891
0.00259412
0.000450448
0.00233186
0.000511916
0.00203505
0.000483572
0.00168755
0.000437972
0.00124049
0.00040892
0.0006611
0.00039936
-5.02663e-05
0.000394028
-0.000865562
0.000374949
-0.0017426
0.000334643
-0.00263836
0.00028101
-0.00351454
0.000227673
-0.00433325
0.000179403
-0.00506931
0.000145083
-0.00570463
0.000121211
-0.00622118
9.57635e-05
-0.00658633
4.93298e-05
-0.00678756
-5.78771e-06
-0.00682087
-6.39911e-05
-0.00669634
-0.000117299
-0.00643718
-0.000161692
-0.00607801
-0.000194197
-0.00566343
-0.000210871
-0.00523065
-0.000221058
-0.00480955
-0.00022929
-0.0044258
-0.00023302
-0.00409091
-0.000237919
-0.00380709
-0.000244969
-0.00357013
-0.00025374
-0.003373
-0.000263476
-0.00320768
-0.000273406
-0.00306648
-0.000282825
-0.00293908
-0.000291287
-0.00282016
-0.000298765
-0.00270605
-0.000305444
-0.00259436
-0.000311533
-0.00248081
-0.000317146
-0.0023656
-0.000322437
-0.0022494
-0.000327509
-0.00213193
-0.000332422
-0.00201256
-0.000337256
-0.00189055
-0.000342157
-0.00176522
-0.000347365
-0.00163622
-0.000353232
-0.0015037
-0.000360196
-0.00136837
-0.000368729
-0.00123148
-0.000379284
-0.00109477
-0.000392237
-0.000960275
-0.000407835
-0.000830089
-0.000426168
-0.000706151
-0.000447178
-0.000589931
-0.000470687
-0.000482301
-0.000496446
-0.000383491
-0.000524177
-0.000293148
-0.00055359
-0.000210486
-0.000584386
-0.0001345
-0.000616242
-6.41115e-05
-0.000648807
1.65177e-06
-0.000681701
6.36071e-05
-0.00071454
0.000122405
-0.000746975
0.000178555
-0.000778724
0.000232462
-0.000809614
0.000284457
-0.000839592
0.000334816
-0.000868729
0.000383764
-0.000897193
0.000431476
-0.000925219
0.000478082
-0.000953065
0.000523664
-0.000980975
0.000568272
-0.00100915
0.000611933
-0.00103771
0.000654669
-0.00106671
0.000696502
-0.00109615
0.000737471
-0.00112597
0.000777629
-0.00115614
0.000817064
-0.00118672
-0.00121829
0.000855936
-0.000755822
0.000266177
-0.00196188
0.000623428
-0.00306738
0.000910071
-0.00395721
0.00110272
-0.00460023
0.00109347
-0.0050262
0.000937878
-0.00530337
0.000760748
-0.0054924
0.000627
-0.0056148
0.000531321
-0.00566278
0.000447336
-0.00562352
0.000354769
-0.00549441
0.000245837
-0.00528322
0.000123461
-0.00500395
1.73441e-06
-0.0046702
-0.000106076
-0.00430745
-0.000183348
-0.00394198
-0.000220381
-0.00359975
-0.000221028
-0.00330716
-0.000196823
-0.00309835
-0.000159479
-0.00297562
-0.000128519
-0.00292992
-0.000109695
-0.00294085
-0.000106364
-0.00298386
-0.000118682
-0.00303622
-0.000141843
-0.00308477
-0.000162311
-0.00312357
-0.000182267
-0.00314963
-0.000203228
-0.00315747
-0.000225176
-0.00314074
-0.000254652
-0.00309909
-0.000286615
-0.00303401
-0.000318819
-0.00294828
-0.000349213
-0.00284632
-0.000375362
-0.00273357
-0.000395575
-0.00261522
-0.000409636
-0.00249543
-0.000418554
-0.00237682
-0.000424055
-0.00226065
-0.0004277
-0.00214733
-0.000430474
-0.00203693
-0.00043283
-0.00192946
-0.00043498
-0.00182478
-0.000437105
-0.00172261
-0.00043943
-0.00162253
-0.00044223
-0.00152411
-0.000445794
-0.00142692
-0.000450417
-0.00133073
-0.000456384
-0.0012355
-0.000463965
-0.00114137
-0.000473407
-0.00104869
-0.000484918
-0.00095787
-0.000498657
-0.00086931
-0.000514729
-0.000783314
-0.000533174
-0.000700029
-0.000553972
-0.000619443
-0.000577031
-0.000541429
-0.000602192
-0.000465801
-0.000629217
-0.000392384
-0.000657803
-0.000321044
-0.000687583
-0.000251695
-0.000718156
-0.000184286
-0.00074911
-0.00011877
-0.000780057
-5.50781e-05
-0.000810666
6.88883e-06
-0.000840691
6.72598e-05
-0.000869985
0.000126174
-0.000898507
0.000183754
-0.000926308
0.000240081
-0.000953519
0.000295186
-0.000980323
0.000349045
-0.00100692
0.000401593
-0.00103352
0.000452739
-0.00106029
0.000502393
-0.00108736
0.000550484
-0.0011148
0.000596977
-0.00114264
0.000641881
-0.00117088
0.00068525
-0.00119951
0.000727193
-0.00122866
-0.00125895
0.000767859
-6.9999e-05
0.000336175
-3.83425e-05
0.000591772
0.000278515
0.000593214
0.000834441
0.000546795
0.00142743
0.00050049
0.00190529
0.000460015
0.00220652
0.000459519
0.00233854
0.000494975
0.00231902
0.000550839
0.00215891
0.000607454
0.00186428
0.000649391
0.00144211
0.000668014
0.000904987
0.00066058
0.000284735
0.000621987
-0.000373117
0.000551776
-0.00101132
0.00045485
-0.00157137
0.000339668
-0.00200252
0.000210126
-0.00227
7.06522e-05
-0.00236216
-6.73135e-05
-0.0022949
-0.000195782
-0.00210795
-0.000296642
-0.00186962
-0.000344697
-0.00166481
-0.000323485
-0.00156612
-0.000240533
-0.00159677
-0.000131665
-0.0017378
-4.12402e-05
-0.00194314
2.11616e-06
-0.0021617
-6.61468e-06
-0.00235821
-5.8141e-05
-0.00250765
-0.000137177
-0.00258969
-0.000236784
-0.00260336
-0.000335534
-0.00255713
-0.000421592
-0.00246723
-0.000485475
-0.00235234
-0.000524525
-0.00222827
-0.000542624
-0.00210515
-0.000547181
-0.00198763
-0.000545215
-0.00187717
-0.000540937
-0.00177408
-0.000535921
-0.00167857
-0.000530492
-0.00159073
-0.000524939
-0.0015103
-0.000519867
-0.00143648
-0.000516043
-0.00136812
-0.000514154
-0.00130386
-0.000514683
-0.00124233
-0.000517915
-0.0011823
-0.00052399
-0.00112276
-0.000532954
-0.00106288
-0.000544797
-0.00100207
-0.000559461
-0.000939957
-0.000576844
-0.000876327
-0.000596804
-0.000811151
-0.000619148
-0.000744543
-0.000643639
-0.00067674
-0.000669995
-0.000608066
-0.000697891
-0.000538891
-0.000726977
-0.000469593
-0.000756881
-0.000400515
-0.000787234
-0.000331943
-0.000817683
-0.000264086
-0.000847914
-0.000197083
-0.000877669
-0.000131018
-0.000906756
-6.59396e-05
-0.000935063
-1.89357e-06
-0.000962554
6.10621e-05
-0.000989264
0.000122838
-0.0010153
0.000183309
-0.00104079
0.00024232
-0.00106593
0.000299702
-0.0010909
0.000355286
-0.00111588
0.000408927
-0.001141
0.000460519
-0.00116639
0.000510004
-0.00119213
0.000557377
-0.00121825
0.000602688
-0.00124482
0.000646034
-0.00127201
-0.00130043
0.000687513
0.000385515
-4.93395e-05
0.000915987
6.12997e-05
0.00120654
0.000302662
0.00121584
0.000537495
0.00103487
0.00068146
0.000754836
0.000740049
0.000465141
0.000749214
0.000223317
0.0007368
6.07606e-05
0.000713396
-1.18006e-05
0.000680016
-6.79825e-07
0.00063827
7.36254e-05
0.000593709
0.000182301
0.000551904
0.000290877
0.000513411
0.000365163
0.000477491
0.000402531
0.000417482
0.000405772
0.000336427
0.000383496
0.000232402
0.000346496
0.000107653
0.000305835
-2.66525e-05
0.000262769
-0.000152716
0.000211221
-0.000245095
0.000141906
-0.000275382
4.72507e-05
-0.000228829
-7.23941e-05
-0.000120888
-0.000207738
3.67856e-06
-0.000343809
9.48317e-05
-0.000464986
0.000123293
-0.000557905
8.63046e-05
-0.000617241
1.1948e-06
-0.00063514
-0.000119278
-0.00061957
-0.000252355
-0.00057637
-0.000378734
-0.000540117
-0.000457846
-0.000530064
-0.000495527
-0.000551369
-0.000503221
-0.000596372
-0.000497621
-0.000651417
-0.000492136
-0.000704155
-0.000492477
-0.000747914
-0.000497178
-0.000782029
-0.000501806
-0.000809175
-0.000503346
-0.000832578
-0.000501536
-0.000854275
-0.00049817
-0.000874663
-0.000495655
-0.000892912
-0.000495906
-0.00090762
-0.000499975
-0.00091736
-0.000508175
-0.000920973
-0.000520377
-0.000917669
-0.000536258
-0.00090703
-0.000555436
-0.000888964
-0.000577526
-0.000863656
-0.000602153
-0.000831512
-0.000628948
-0.000793112
-0.000657549
-0.000749148
-0.000687603
-0.000700378
-0.000718764
-0.00064757
-0.0007507
-0.000591454
-0.000783092
-0.000532696
-0.00081564
-0.000471873
-0.000848057
-0.000409474
-0.000880082
-0.00034591
-0.000911477
-0.000281539
-0.00094204
-0.000216682
-0.000971614
-0.000151645
-0.0010001
-8.6737e-05
-0.00102746
-2.22723e-05
-0.00105373
4.14254e-05
-0.00107899
0.000104031
-0.0011034
0.000165225
-0.00112713
0.00022471
-0.00115039
0.000282218
-0.00117338
0.000337535
-0.00119632
0.000390503
-0.00121936
0.000441036
-0.00124266
0.00048911
-0.00126632
0.000534765
-0.00129047
0.000578078
-0.00131532
-0.00134144
0.000619084
-0.000245425
0.000196085
-0.000874931
0.000690805
-0.00180941
0.00123714
-0.00274243
0.00147052
-0.0033619
0.00130093
-0.00362394
0.00100209
-0.00364467
0.000769949
-0.00351382
0.000605945
-0.00323737
0.000436942
-0.00278974
0.000232387
-0.00216464
1.3173e-05
-0.00138132
-0.000189611
-0.000470786
-0.000358631
0.000536747
-0.000494122
0.00159716
-0.000582924
0.00265597
-0.00064133
0.00365851
-0.000666107
0.00457034
-0.000679427
0.00536031
-0.000682322
0.00600711
-0.000673449
0.00650392
-0.000649527
0.00686433
-0.000605502
0.00712548
-0.000536539
0.00733849
-0.000441838
0.0075449
-0.000327293
0.0077521
-0.000203521
0.00792795
-8.10195e-05
0.00801847
3.2774e-05
0.00797091
0.000133863
0.00775125
0.000220854
0.00733907
0.000292901
0.00673808
0.000348637
0.00597273
0.000386617
0.00511184
0.000403038
0.00422319
0.000393125
0.00337635
0.000343619
0.00261952
0.000259207
0.001979
0.00014839
0.00145737
2.91514e-05
0.00104076
-8.05698e-05
0.000708195
-0.000169241
0.000438857
-0.000234009
0.000216004
-0.000278683
2.80929e-05
-0.000310259
-0.000132012
-0.000335551
-0.000268455
-0.000359462
-0.000383705
-0.000384725
-0.000479376
-0.000412505
-0.000556715
-0.000443038
-0.000616836
-0.000476137
-0.000660832
-0.000511441
-0.000689834
-0.000548524
-0.000705043
-0.000586944
-0.000707727
-0.000626265
-0.0006992
-0.000666076
-0.000680791
-0.000706012
-0.000653794
-0.000745762
-0.000619423
-0.000785072
-0.000578776
-0.000823739
-0.000532823
-0.000861593
-0.000482403
-0.000898478
-0.000428252
-0.000934233
-0.000371036
-0.000968694
-0.000311381
-0.00100169
-0.000249903
-0.00103309
-0.000187209
-0.00106279
-0.000123895
-0.00109078
-6.05362e-05
-0.00111709
2.32681e-06
-0.00114186
6.42016e-05
-0.00116527
0.00012465
-0.00118758
0.000183295
-0.00120903
0.000239823
-0.00122991
0.000293996
-0.00125049
0.000345648
-0.00127101
0.000394691
-0.0012917
0.000441106
-0.00131274
0.000484933
-0.0013343
0.000526234
-0.00135662
-0.00138018
0.000564979
0.000168561
2.75246e-05
0.000512929
0.000346437
0.000995394
0.000754672
0.00153123
0.000934678
0.00198516
0.000847005
0.00226918
0.000718067
0.00238528
0.00065385
0.0025221
0.000469125
0.00291299
4.60503e-05
0.00350614
-0.000360757
0.00405372
-0.000534415
0.00443551
-0.000571394
0.00465021
-0.000573334
0.0047138
-0.000557712
0.00466435
-0.000533474
0.00452912
-0.000506099
0.00434121
-0.000478198
0.00411243
-0.000450648
0.0038506
-0.000420489
0.00356018
-0.000383037
0.00324457
-0.000333913
0.00291151
-0.000272437
0.00257605
-0.000201087
0.00225793
-0.00012371
0.00197515
-4.45173e-05
0.0017456
2.60288e-05
0.00155676
0.00010782
0.00138716
0.000202378
0.00123002
0.000290998
0.00108119
0.000369686
0.000942838
0.000431254
0.000825164
0.000466311
0.000743402
0.000468378
0.000710386
0.000436056
0.0007302
0.000373312
0.000784955
0.000288864
0.000849774
0.000194388
0.000898811
9.93535e-05
0.000904301
2.36612e-05
0.000856654
-3.29224e-05
0.000755037
-6.76234e-05
0.000616397
-9.53685e-05
0.000456999
-0.000119285
0.000291123
-0.000144383
0.00012949
-0.000173917
-2.08973e-05
-0.000209075
-0.000155723
-0.0002499
-0.000272857
-0.000295371
-0.000371544
-0.000344351
-0.000451861
-0.00039582
-0.000514403
-0.000448898
-0.000560107
-0.000502819
-0.000590158
-0.000556893
-0.000605927
-0.000610496
-0.000608916
-0.000663087
-0.000600691
-0.000714236
-0.000582802
-0.00076365
-0.000556701
-0.000811173
-0.000523672
-0.000856768
-0.000484797
-0.000900468
-0.000440959
-0.000942316
-0.000392887
-0.000982306
-0.000341224
-0.00102036
-0.000286599
-0.00105632
-0.000229673
-0.00109002
-0.000171146
-0.00112132
-0.000111739
-0.00115018
-5.21485e-05
-0.00117668
6.98471e-06
-0.00120099
6.51022e-05
-0.00122339
0.000121732
-0.00124421
0.000176489
-0.00126379
0.000229066
-0.00128249
0.000279237
-0.00130066
0.000326849
-0.00131863
0.000371829
-0.00133668
0.000414171
-0.00135508
0.000453926
-0.00137405
0.000491149
-0.00139384
-0.00141482
0.000525789
-2.23651e-05
4.98896e-05
0.000323761
3.12032e-07
0.00100387
7.4561e-05
0.0014311
0.000507452
0.00117632
0.00110178
0.000363175
0.00153121
-0.00058005
0.00159707
-0.00128996
0.00117904
-0.00164953
0.000405617
-0.00177519
-0.000235092
-0.00180038
-0.000509225
-0.00177853
-0.000593245
-0.00175512
-0.000596749
-0.00174472
-0.000568107
-0.00176785
-0.000510344
-0.00183015
-0.000443798
-0.00193246
-0.000375888
-0.00207287
-0.000310238
-0.00224583
-0.000247536
-0.00244166
-0.000187206
-0.00264531
-0.000130265
-0.00283784
-7.99053e-05
-0.00300005
-3.88782e-05
-0.00311675
-7.00979e-06
-0.0031787
1.74365e-05
-0.00318859
3.59202e-05
-0.00313026
4.94937e-05
-0.00298182
5.39337e-05
-0.00274031
4.94907e-05
-0.00241061