/*--------------------------------*- C++ -*----------------------------------*\
| =========                 |                                                 |
| \\      /  F ield         | OpenFOAM: The Open Source CFD Toolbox           |
|  \\    /   O peration     | Version:  2012                                  |
|   \\  /    A nd           | Website:  www.openfoam.com                      |
|    \\/     M anipulation  |                                                 |
\*---------------------------------------------------------------------------*/
FoamFile
{
    version     2.0;
    format      ascii;
    class       surfaceScalarField;
    location    "0.66";
    object      phi;
}
// * * * * * * * * * * * * * * * * * * * * * * * * * * * * * * * * * * * * * //

dimensions      [0 3 -1 0 0 0 0];
oriented        oriented;


internalField   nonuniform List<scalar> 
84340
(
0.000540467
-0.000200582
-0.000339885
0.00130187
-0.000204935
-0.00055647
0.00183732
3.22779e-05
-0.000567726
0.00213719
0.000288425
-0.000588295
0.00235274
0.000442776
-0.000658326
0.00261072
0.000467224
-0.000725206
0.00295651
0.000395943
-0.00074173
0.0033687
0.000299348
-0.000711541
0.00380324
0.0002277
-0.000662243
0.00421348
0.000204579
-0.000614811
0.00456688
0.000224428
-0.000577827
0.00484333
0.000271155
-0.000547606
0.00503291
0.000329362
-0.000518949
0.00513664
0.000387461
-0.000491183
0.00515725
0.000438743
-0.000459357
0.00509943
0.000479926
-0.000422105
0.00497058
0.000508404
-0.000379558
0.00478105
0.000522089
-0.000332556
0.00454281
0.000519779
-0.000281542
0.00426788
0.000501676
-0.00022675
0.00396708
0.000469573
-0.000168766
0.00364926
0.000426519
-0.000108707
0.00332104
0.00037638
-4.8154e-05
0.00298651
0.000323528
1.10048e-05
0.00264786
0.000272878
6.57659e-05
0.00230751
0.000228959
0.000111393
0.00197023
0.000195318
0.000141962
0.00164381
0.00017371
0.00015271
0.00133706
0.000163346
0.000143399
0.00105604
0.000160936
0.000120088
0.000801491
0.00016143
9.31186e-05
0.000568959
0.000159106
7.34263e-05
0.00035588
0.00014933
6.37489e-05
0.000164279
0.000129634
6.19664e-05
-8.19705e-06
9.96428e-05
7.28332e-05
-0.000157221
6.12875e-05
8.77365e-05
-0.000290757
1.83617e-05
0.000115175
-0.000411239
-2.55783e-05
0.00014606
-0.000515515
-7.05789e-05
0.000174855
-0.000605605
-0.00010995
0.00020004
-0.000681255
-0.000146456
0.000222106
-0.0007461
-0.000176924
0.000241769
-0.000795732
-0.000210012
0.000259644
-0.00082679
-0.000244486
0.000275544
-0.000837411
-0.000278319
0.000288939
-0.000826871
-0.000309612
0.000299072
-0.000795675
-0.000336324
0.000305129
-0.00074559
-0.00035643
0.000306345
-0.000679575
-0.000368106
0.000302091
-0.000601547
-0.000369964
0.000291936
-0.000515993
-0.000361244
0.00027569
-0.00042744
-0.000341951
0.000253397
-0.000339893
-0.000312827
0.00022528
-0.000256386
-0.000275158
0.000191651
-0.000178609
-0.000230678
0.000152901
-0.000107281
-0.000181006
0.000109679
-4.12971e-05
-0.000127727
6.17427e-05
2.0531e-05
-7.24098e-05
1.05816e-05
8.01344e-05
-1.62211e-05
-4.33822e-05
0.000140819
3.97444e-05
-0.000100429
0.00020514
9.46032e-05
-0.000158924
0.000275311
0.000147199
-0.000217371
0.00035299
0.00019631
-0.000273989
0.000439138
0.000240639
-0.000326787
0.000533995
0.00027885
-0.000373707
0.000637125
0.000309686
-0.000412815
0.000747549
0.000332075
-0.0004425
0.00086395
0.000345227
-0.000461628
0.000984906
0.000348662
-0.000469618
0.00110911
0.000342188
-0.000466394
0.00123555
0.000325825
-0.00045226
0.00136356
0.000299696
-0.000427711
0.0014929
0.000263924
-0.000393259
0.00162368
0.000218521
-0.0003493
0.00175645
0.000163263
-0.000296032
0.00189223
9.76251e-05
-0.000233408
0.00203261
2.05143e-05
-0.000160896
0.00217853
-6.77892e-05
-7.8127e-05
0.00233626
-0.000175991
1.82525e-05
-0.000281023
0.00011955
0.00249774
-0.000127159
-7.34227e-05
-0.000349087
1.69924e-05
-0.000542611
0.000225801
-0.000709158
0.000454972
-0.000870589
0.000604207
-0.00103317
0.000629803
-0.00119641
0.000559184
-0.00134613
0.000449066
-0.00145885
0.000340423
-0.00150264
0.000248373
-0.00145127
0.000173057
-0.00129143
0.000111311
-0.00102399
6.19277e-05
-0.000662803
2.62701e-05
-0.000230676
6.61681e-06
0.000244305
4.9441e-06
0.000731621
2.1088e-05
0.00120116
5.25491e-05
0.00162569
9.52556e-05
0.00198258
0.000144784
0.00225529
0.000196863
0.00243393
0.000247878
0.00251519
0.000295116
0.00250201
0.000336709
0.00240384
0.000371047
0.0022354
0.000397405
0.00201606
0.00041465
0.00176838
0.000421393
0.001515
0.000416728
0.00127456
0.000401373
0.00105799
0.000377999
0.000867126
0.000349973
0.000696776
0.00031968
0.000538642
0.000287768
0.000384906
0.000253379
0.000231106
0.000215088
7.7743e-05
0.000171725
-7.01563e-05
0.000122321
-0.000205487
6.4752e-05
-0.000321889
6.45111e-06
-0.00041802
-5.03234e-05
-0.00048713
-0.000107814
-0.000527253
-0.00016989
-0.000539717
-0.000232022
-0.000526278
-0.000291757
-0.000489139
-0.000346752
-0.000430977
-0.000394486
-0.000355054
-0.000432353
-0.000265231
-0.000457929
-0.000165852
-0.000469343
-6.14617e-05
-0.000465635
4.35361e-05
-0.000446949
0.000145247
-0.000414538
0.000240617
-0.000370528
0.000327579
-0.00031764
0.000405159
-0.000258587
0.000473363
-0.000195931
0.000533613
-0.00013266
0.000587648
-7.02568e-05
0.000637971
-1.05782e-05
0.000687492
4.50822e-05
0.000739322
9.53692e-05
0.000796225
0.000139407
0.000860407
0.000176457
0.00093338
0.000205877
0.00101592
0.000227143
0.00110815
0.000239851
0.00120965
0.000243729
0.00131966
0.000238648
0.00143726
0.00022459
0.00156147
0.000201613
0.0016914
0.000169764
0.00182637
0.000128956
0.00196614
7.87527e-05
0.00211017
1.92284e-05
0.00225877
-5.09749e-05
0.00241147
-0.000132182
0.00256877
-0.000225085
0.0027272
-0.000334427
-0.000439158
0.00288534
-0.000462049
0.000388626
-0.00109875
0.000653692
-0.00152341
0.000650465
-0.00169638
0.000627941
-0.00170925
0.000617082
-0.0016522
0.000572748
-0.00158093
0.000487913
-0.00150947
0.000377609
-0.00142371
0.000254662
-0.00130639
0.00013105
-0.00114727
1.39376e-05
-0.000944553
-9.14034e-05
-0.000703167
-0.000179458
-0.00043182
-0.000245078
-0.000140555
-0.000284648
0.000161048
-0.000296658
0.000464826
-0.00028269
0.000762646
-0.000245271
0.00104371
-0.000185808
0.00129863
-0.000110137
0.00151952
-2.40234e-05
0.00170009
6.7305e-05
0.00183505
0.000160152
0.00192043
0.000251335
0.00195389
0.000337585
0.00193622
0.000415072
0.00187135
0.000479524
0.00176632
0.000526419
0.0016324
0.000550653
0.00148288
0.00055089
0.00133012
0.000530759
0.00118524
0.000494853
0.00105699
0.000447935
0.000951092
0.000393663
0.000870114
0.000334357
0.000813812
0.00027139
0.000777123
0.000208414
0.000755408
0.000144036
0.000752007
6.81532e-05
0.000765165
-6.70708e-06
0.00079539
-8.05486e-05
0.000840439
-0.000152864
0.000893244
-0.000222695
0.000949826
-0.000288603
0.00100674
-0.000348669
0.00106057
-0.000400586
0.00110797
-0.000441884
0.00114596
-0.000470341
0.00117255
-0.000484523
0.00118741
-0.000484204
0.0011922
-0.000470422
0.00119034
-0.000445093
0.00118621
-0.000410409
0.00118405
-0.00036836
0.00118692
-0.000320515
0.00119657
-0.000268231
0.00121338
-0.000212743
0.00123664
-0.000155923
0.00126436
-9.79707e-05
0.00129742
-4.36365e-05
0.00133085
1.16428e-05
0.00136733
5.88914e-05
0.00140764
9.90999e-05
0.00145299
0.000131109
0.00150472
0.000154144
0.00156409
0.000167777
0.00163207
0.000171872
0.00170926
0.000166531
0.00179589
0.000152023
0.0018918
0.000128681
0.00199659
9.68244e-05
0.00210973
5.66167e-05
0.00222883
9.86483e-06
0.00235628
-4.87008e-05
0.0024902
-0.000114694
0.00262928
-0.000190055
0.00277186
-0.000274763
0.00291648
-0.000369702
0.00305436
-0.00047231
-0.000579202
0.00319441
0.000542734
-0.000154108
0.0014415
-0.00024508
0.0024091
-0.000317125
0.0034346
-0.000397566
0.00449838
-0.000446696
0.00554994
-0.000478812
0.00653673
-0.000498874
0.00742324
-0.000508906
0.00819072
-0.000512811
0.00883646
-0.000514698
0.00936309
-0.000512692
0.0097603
-0.000488611
0.0100055
-0.000424677
0.0100713
-0.000310901
0.00993698
-0.000150291
0.00960376
3.65626e-05
0.00909872
0.000222351
0.00846844
0.000385015
0.00776906
0.000513571
0.00705184
0.000607083
0.00635751
0.000670311
0.00571467
0.000710139
0.00514172
0.000733103
0.00464849
0.000744567
0.0042377
0.000748376
0.0039061
0.000746672
0.00364829
0.000737327
0.00345259
0.000722121
0.00330135
0.000701894
0.00317683
0.000675404
0.00306575
0.000641841
0.00295973
0.000600873
0.00285529
0.000552375
0.0027525
0.000496457
0.00265337
0.000433485
0.00255939
0.000365369
0.00248085
0.000286961
0.00242038
0.000204502
0.00236845
0.000120086
0.0023287
3.30393e-05
0.0022996
-5.14429e-05
0.0022712
-0.000124464
0.00223772
-0.000189216
0.00219432
-0.000245208
0.00213778
-0.00029213
0.00206687
-0.00032967
0.00198265
-0.000357662
0.00188841
-0.000376104
0.00178907
-0.000385188
0.00169026
-0.00038539
0.00159734
-0.000377508
0.00151477
-0.000362516
0.00144569
-0.000341334
0.00139207
-0.000314734
0.00135484
-0.000283288
0.0013341
-0.000247489
0.00132924
-0.00020789
0.00133861
-0.000165291
0.00136113
-0.000120484
0.00139386
-7.63689e-05
0.00143863
-3.31285e-05
0.00149185
5.67177e-06
0.00155137
3.95787e-05
0.00161599
6.64939e-05
0.00168501
8.5123e-05
0.00175817
9.46098e-05
0.00183553
9.45167e-05
0.0019173
8.47632e-05
0.00200378
6.55369e-05
0.00209522
3.72409e-05
0.00219046
1.5883e-06
0.00229234
-4.52676e-05
0.0024014
-9.9194e-05
0.00251395
-0.000161254
0.00263033
-0.00023107
0.00274847
-0.000308193
0.00286536
-0.000391651
0.0029761
-0.000480447
0.00307452
-0.000570724
-0.00066289
0.0031582
-0.000411363
0.000257255
-0.00108897
0.000432531
-0.00192055
0.000514452
-0.00292971
0.000611594
-0.00410101
0.000724604
-0.0054304
0.00085058
-0.00689024
0.00096096
-0.00842522
0.00102608
-0.00995691
0.00101888
-0.0113917
0.000920121
-0.0126254
0.000721027
-0.0135592
0.000445104
-0.0141333
0.000149433
-0.014341
-0.000103195
-0.0142147
-0.000276541
-0.0138074
-0.000370786
-0.0131752
-0.000409809
-0.0123691
-0.000421075
-0.0114316
-0.000423922
-0.0104013
-0.000423202
-0.00931543
-0.000415607
-0.00819946
-0.00040583
-0.00707165
-0.000394709
-0.00594308
-0.000383997
-0.00482032
-0.000374391
-0.00370761
-0.000366039
-0.00261221
-0.000358073
-0.00154198
-0.000348102
-0.000506744
-0.000333346
0.000479444
-0.000310783
0.00139993
-0.000278647
0.00223783
-0.000237022
0.00297794
-0.000187741
0.00360777
-0.000133365
0.00411833
-7.70777e-05
0.00450498
-2.12831e-05
0.00475456
3.73769e-05
0.00487789
8.11771e-05
0.00488646
0.000111515
0.00479112
0.000128373
0.00460775
0.000131929
0.00436188
0.000121403
0.00407376
9.89107e-05
0.00376493
6.36214e-05
0.00345231
2.04862e-05
0.00315124
-2.85935e-05
0.00287409
-8.05174e-05
0.00262946
-0.000131469
0.00242149
-0.000177218
0.00224976
-0.000213657
0.00210959
-0.000237342
0.00199335
-0.00024628
0.00189252
-0.000240506
0.00179998
-0.000222194
0.00171181
-0.000195115
0.00162768
-0.000163353
0.00155016
-0.000130371
0.00148338
-9.85095e-05
0.00143158
-6.86904e-05
0.00139683
-4.16202e-05
0.00138125
-1.75456e-05
0.00138357
3.34824e-06
0.00140306
2.00984e-05
0.0014379
3.16464e-05
0.00148611
3.69118e-05
0.00154576
3.49678e-05
0.00161511
2.51594e-05
0.00169277
7.10602e-06
0.00177757
-1.92625e-05
0.00186896
-5.41492e-05
0.00196749
-9.69467e-05
0.00206979
-0.000147564
0.00217587
-0.000205276
0.00228396
-0.000269343
0.00239177
-0.000338885
0.0024962
-0.000412621
0.00259351
-0.000488957
0.00267884
-0.000565777
0.00275027
-0.000642152
-0.000712737
0.00280011
0.000783179
-0.000525925
0.00220487
-0.000989162
0.0038247
-0.00110538
0.00544944
-0.00101314
0.00685482
-0.00068078
0.00784568
-0.000140278
0.00834299
0.000463653
0.0083941
0.00097496
0.00810717
0.0013058
0.00758453
0.00144276
0.00689198
0.00141358
0.00607173
0.00126536
0.00516355
0.00105761
0.00421636
0.000843987
0.00328283
0.000656995
0.00240563
0.000506414
0.00160814
0.000387681
0.000895779
0.000291283
0.000264289
0.000207568
-0.000287596
0.000128683
-0.000762615
5.9412e-05
-0.00114931
-1.91331e-05
-0.00143866
-0.00010536
-0.0016232
-0.000199459
-0.00169745
-0.000300136
-0.00165934
-0.000404156
-0.00151086
-0.000506545
-0.00125851
-0.000600461
-0.000916287
-0.000675563
-0.000509376
-0.000717695
-7.37681e-05
-0.000714254
0.000353289
-0.000664078
0.000746885
-0.000581337
0.00110328
-0.000489762
0.00143059
-0.000404382
0.00172881
-0.000319503
0.00200004
-0.000233855
0.002246
-0.00016478
0.00246563
-0.000108115
0.00265693
-6.29341e-05
0.00281779
-2.89265e-05
0.00294461
-5.41367e-06
0.00303595
7.56982e-06
0.00308826
1.13079e-05
0.00310104
7.7069e-06
0.00307495
-2.49868e-06
0.00301275
-1.83263e-05
0.00291658
-3.52989e-05
0.00278789
-4.85225e-05
0.00263256
-5.83288e-05
0.00245755
-6.23262e-05
0.00227046
-5.91935e-05
0.00207905
-4.91005e-05
0.00188753
-3.06714e-05
0.00170409
-1.16701e-05
0.00153512
5.61223e-06
0.00138536
1.93873e-05
0.00125813
2.87278e-05
0.00115562
3.38143e-05
0.00107853
3.54755e-05
0.00102648
3.44971e-05
0.0009986
3.12316e-05
0.000993272
2.54257e-05
0.00100855
1.63733e-05
0.00104231
3.14641e-06
0.00109264
-1.53564e-05
0.00115729
-3.94909e-05
0.00123457
-7.01775e-05
0.00132293
-0.000107618
0.00142058
-0.000151808
0.00152611
-0.000202474
0.00163766
-0.00025911
0.00175337
-0.000320988
0.00187115
-0.000387124
0.00198862
-0.000456352
0.00210339
-0.000527386
0.00221336
-0.000598932
0.00231735
-0.000669764
0.002415
-0.000739802
-0.000803589
0.00250585
-0.000277005
-0.00024892
-0.000404829
-0.000861338
-5.60143e-05
-0.00145419
0.000661216
-0.00173037
0.00148498
-0.00150454
0.00222079
-0.000876092
0.00283028
-0.00014584
0.00338004
0.000425204
0.00396136
0.000724482
0.00461059
0.000793537
0.00529969
0.000724473
0.00594547
0.000619579
0.00645615
0.000546932
0.00677087
0.000529273
0.00687496
0.000552904
0.00678687
0.000594506
0.0065402
0.000634353
0.00617245
0.000659034
0.00572114
0.00065887
0.00522272
0.000627106
0.00472263
0.000559505
0.00424691
0.000456583
0.00381921
0.000322337
0.0034546
0.000165155
0.00315538
-9.18494e-07
0.00291169
-0.000160464
0.00270285
-0.000297701
0.00250039
-0.000398002
0.00227555
-0.000450732
0.00201064
-0.00045278
0.00170711
-0.000410722
0.00138379
-0.000340762
0.00106769
-0.000265233
0.00078402
-0.000206096
0.000549039
-0.000169401
0.000382355
-0.000152819
0.000297323
-0.000148823
0.000283021
-0.000150479
0.00032853
-0.000153624
0.000418893
-0.000153297
0.000538143
-0.000148176
0.00066973
-0.000137001
0.000796081
-0.000118782
0.000900921
-9.35316e-05
0.000971917
-6.329e-05
0.00100094
-3.1523e-05
0.000986574
-3.95874e-06
0.000935549
1.57266e-05
0.000861279
2.57472e-05
0.000775512
2.74385e-05
0.000688609
2.45764e-05
0.000607948
2.1468e-05
0.000537792
2.10549e-05
0.000483302
2.38182e-05
0.000443088
2.85443e-05
0.000415258
3.34415e-05
0.000397815
3.68303e-05
0.000388913
3.763e-05
0.000387397
3.53311e-05
0.00039311
2.97628e-05
0.000406782
2.08256e-05
0.000429728
8.28518e-06
0.000463375
-8.2212e-06
0.000509105
-2.93558e-05
0.000567593
-5.5342e-05
0.00063928
-8.70437e-05
0.000724492
-0.000124703
0.00082281
-0.000168496
0.000933541
-0.000218349
0.00105565
-0.000273921
0.00118778
-0.000334604
0.00132821
-0.000399537
0.00147485
-0.00046763
0.00162534
-0.000537611
0.00177708
-0.000608095
0.00192737
-0.000677676
0.00207347
-0.000745026
0.00221277
-0.000809066
0.00234191
-0.000868939
-0.000923468
0.00246179
-0.000474562
0.000225642
-0.00140098
6.50747e-05
-0.00246686
-0.0003883
-0.00346275
-0.000734487
-0.0041598
-0.000807494
-0.00437097
-0.000664924
-0.00406011
-0.000456699
-0.00332666
-0.000308245
-0.00234106
-0.000261117
-0.00126237
-0.000285147
-0.000208803
-0.000329097
0.000740911
-0.000330136
0.00155243
-0.00026459
0.00222159
-0.000139885
0.00275821
1.62823e-05
0.0031805
0.000172223
0.00351185
0.000302997
0.00378084
0.00039005
0.00402048
0.000419222
0.00426433
0.000383264
0.00453725
0.000286578
0.00484432
0.000149515
0.00516207
4.58688e-06
0.00544102
-0.000113798
0.00563098
-0.000190878
0.00567598
-0.000205461
0.00554276
-0.000164485
0.00522095
-7.61896e-05
0.00472791
4.23087e-05
0.00411189
0.000163239
0.00344575
0.000255419
0.00280648
0.000298506
0.00225116
0.000290087
0.00180213
0.000242936
0.00146117
0.000171563
0.00121913
8.9223e-05
0.00106875
1.55424e-06
0.000989684
-7.14141e-05
0.000969477
-0.000133417
0.000997327
-0.000181147
0.00105828
-0.00020913
0.00113618
-0.000214893
0.00121531
-0.000197912
0.00128192
-0.000160148
0.00132732
-0.000108689
0.00133778
-4.19795e-05
0.00130112
3.26964e-05
0.00122208
9.47674e-05
0.00110742
0.000140412
0.000968138
0.000166719
0.000817771
0.000174944
0.000669715
0.000169525
0.000534887
0.000155883
0.000420154
0.000138551
0.000328318
0.00012038
0.000259176
0.000102584
0.000210788
8.52194e-05
0.000180723
6.7695e-05
0.000166922
4.91328e-05
0.000168089
2.85945e-05
0.00018376
5.15407e-06
0.00021436
-2.23142e-05
0.000259577
-5.34387e-05
0.000320177
-8.99555e-05
0.000396703
-0.000131869
0.000489033
-0.000179374
0.000596745
-0.000232415
0.000718918
-0.000290669
0.000854107
-0.000353538
0.00100034
-0.000420158
0.00115516
-0.00048942
0.00131564
-0.000560014
0.0014785
-0.000630492
0.00164023
-0.000699341
0.00179721
-0.00076508
0.00194589
-0.000826351
0.00208289
-0.000882028
0.00220516
-0.000931337
0.00231006
-0.000973836
-0.00101074
0.00239733
0.000682483
-0.00045684
0.00158984
-0.000842287
0.0022004
-0.000998854
0.00256603
-0.00110012
0.00291062
-0.00115209
0.00338504
-0.00113935
0.00399423
-0.00106589
0.00462579
-0.000939807
0.00513225
-0.000767577
0.00540015
-0.000553048
0.00537059
-0.00029954
0.00504961
-9.14851e-06
0.00448912
0.000295896
0.00376996
0.000579272
0.00299724
0.000789002
0.00229462
0.000874839
0.00178173
0.000815888
0.00153381
0.00063797
0.0015484
0.000404638
0.00175164
0.000180025
0.00203543
2.78351e-06
0.00229897
-0.000114026
0.00247474
-0.000171181
0.00252941
-0.000168465
0.00245108
-0.00011255
0.00226222
-1.65978e-05
0.00199629
0.000101445
0.00169698
0.000223111
0.0014083
0.000330995
0.00116223
0.00040931
0.000970041
0.000447605
0.000825275
0.000443273
0.000713458
0.000401903
0.00062337
0.000333024
0.000553339
0.000241594
0.000505342
0.00013722
0.000481053
2.58428e-05
0.000476876
-6.72369e-05
0.00049532
-0.000151861
0.00052844
-0.000214266
0.000567701
-0.000248392
0.00060567
-0.000252862
0.000638609
-0.000230852
0.000665192
-0.000186731
0.000681541
-0.000125039
0.0006902
-5.06383e-05
0.000693484
2.9412e-05
0.00068211
0.000106142
0.000651541
0.00017098
0.000600864
0.000217396
0.000533423
0.000242384
0.000456028
0.00024692
0.000376828
0.000235082
0.000303113
0.000212266
0.00024011
0.000183382
0.000190907
0.000151787
0.000157022
0.000119104
0.000139104
8.56132e-05
0.000137448
5.0789e-05
0.000152446
1.35971e-05
0.000184355
-2.67548e-05
0.000232467
-7.04262e-05
0.000297787
-0.000118759
0.000379624
-0.000171792
0.000477259
-0.000229505
0.000589482
-0.000291597
0.000714553
-0.000357485
0.000850198
-0.000426314
0.000993647
-0.000496987
0.0011417
-0.000568214
0.00129086
-0.000638583
0.00143749
-0.000706635
0.00157796
-0.000770967
0.00170894
-0.000830318
0.00182753
-0.000883666
0.00193148
-0.000930307
0.00201938
-0.000969924
0.00209068
-0.00100264
0.00214597
-0.00102912
-0.00105125
0.00218648
-0.000223444
-0.000233396
-0.000380745
-0.000684986
-0.000391339
-0.00098826
-0.000382834
-0.00110862
-0.000442759
-0.00109216
-0.000587524
-0.000994581
-0.000800991
-0.000852419
-0.00105792
-0.000682875
-0.00132153
-0.000503967
-0.00154965
-0.000324928
-0.00171645
-0.000132745
-0.00181022
8.46203e-05
-0.00182794
0.000313623
-0.00177216
0.000523488
-0.00164051
0.000657357
-0.00143606
0.000670387
-0.00116905
0.000548872
-0.000859166
0.000328091
-0.0005373
8.27718e-05
-0.00024048
-0.000116795
-8.88868e-07
-0.000236807
0.000164428
-0.000279342
0.000256756
-0.000263509
0.000297826
-0.000209536
0.000318123
-0.000132847
0.000346472
-4.49471e-05
0.000402911
4.50069e-05
0.00049649
0.000129532
0.000625145
0.00020234
0.000776139
0.000258316
0.000930152
0.000293592
0.00106322
0.000310207
0.00114687
0.000318247
0.00117815
0.000301749
0.00114937
0.000270374
0.00105941
0.000227183
0.000909417
0.000175831
0.000723697
0.000118484
0.000512832
5.90048e-05
0.000292062
6.50265e-06
7.73218e-05
-3.36514e-05
-0.000118093
-5.74468e-05
-0.00028698
-6.19648e-05
-0.000425723
-4.79886e-05
-0.000527639
-2.31221e-05
-0.000591822
1.35447e-05
-0.00061212
4.97099e-05
-0.000595363
8.93859e-05
-0.000550277
0.000125894
-0.000486039
0.000153158
-0.000412162
0.000168506
-0.000336913
0.000171671
-0.000265881
0.00016405
-0.000201393
0.000147778
-0.00014292
0.00012491
-8.80553e-05
9.69224e-05
-3.35525e-05
6.46008e-05
2.38774e-05
2.81828e-05
8.57841e-05
-1.11177e-05
0.000157062
-5.76805e-05
0.000237689
-0.000107382
0.000328958
-0.000161695
0.000430694
-0.000220496
0.000542258
-0.000283356
0.00066234
-0.000349587
0.00078901
-0.000418266
0.000919786
-0.000488262
0.00105176
-0.000558287
0.00118174
-0.000626965
0.00130644
-0.000692915
0.0014227
-0.000754848
0.00152773
-0.000811665
0.00161931
-0.000862546
0.00169601
-0.000907018
0.00175733
-0.000944983
0.00180374
-0.000976714
0.00183664
-0.00100283
0.00185827
-0.00102427
0.00187146
-0.00104231
-0.00105868
0.00187888
-0.00015794
-7.54563e-05
-0.000645548
-0.000197378
-0.0012535
-0.000380306
-0.00180476
-0.000557362
-0.00224544
-0.000651485
-0.00247267
-0.00076735
-0.00236659
-0.000958495
-0.00181954
-0.00122993
-0.000796711
-0.0015268
0.000575069
-0.00169671
0.00201501
-0.00157268
0.00323325
-0.00113362
0.00410785
-0.000560972
0.00471166
-8.03311e-05
0.0051568
0.00021222
0.0054832
0.000343984
0.00566047
0.000371606
0.00565019
0.000338376
0.00545485
0.000278103
0.00511975
0.000218312
0.00470529
0.000177647
0.00426361
0.000162345
0.00383207
0.00016803
0.00343503
0.000187503
0.00308773
0.00021445
0.00279858
0.0002442
0.00257458
0.000269009
0.00240868
0.000295433
0.00229499
0.000316031
0.00222565
0.000327653
0.00218986
0.00032939
0.00217847
0.000321587
0.00219073
0.000305995
0.00220694
0.000285536
0.00221317
0.000264148
0.00219501
0.000245336
0.00213948
0.000231363
0.00203518
0.000222783
0.00187602
0.000218165
0.00166773
0.00021479
0.00142333
0.000210755
0.00115946
0.00020642
0.000893885
0.000203608
0.000642088
0.000203808
0.000411989
0.000206977
0.000213797
0.000211736
4.7763e-05
0.000215744
-7.96462e-05
0.000216795
-0.000166786
0.000213034
-0.000216985
0.000203358
-0.000236014
0.000187535
-0.000230323
0.000165981
-0.000205683
0.000139409
-0.000166502
0.000108597
-0.000115684
7.40918e-05
-5.47994e-05
3.6038e-05
1.539e-05
-5.58851e-06
9.52625e-05
-5.16895e-05
0.00018579
-0.000101645
0.000283767
-0.000155658
0.00038988
-0.000213494
0.000502951
-0.000274767
0.000621299
-0.000338845
0.000742806
-0.000404862
0.000864976
-0.000471757
0.000985038
-0.000538328
0.00110008
-0.000603301
0.00120721
-0.000665421
0.00130378
-0.000723535
0.00138756
-0.000776698
0.00145698
-0.000824261
0.00151125
-0.000865939
0.00155054
-0.000901838
0.00157597
-0.000932447
0.00158955
-0.000958567
0.00159406
-0.000981222
0.0015928
-0.00100157
0.00158938
-0.00102085
0.0015874
-0.00104032
-0.00106144
0.00159016
-0.000719802
0.000644346
-0.00202974
0.00111256
-0.0035023
0.00109225
-0.00501099
0.000951327
-0.00646515
0.000802676
-0.00779723
0.000564733
-0.0089383
0.000182575
-0.00980294
-0.000365288
-0.0102988
-0.00103091
-0.0103401
-0.00165538
-0.00990705
-0.00200578
-0.00909799
-0.00194269
-0.00811511
-0.00154385
-0.00717208
-0.00102336
-0.00639767
-0.000562189
-0.00580614
-0.000247553
-0.00534374
-9.07923e-05
-0.00494059
-6.47744e-05
-0.00453833
-0.000124153
-0.00410556
-0.000214454
-0.00364367
-0.000284246
-0.00318057
-0.000300761
-0.00274989
-0.000262642
-0.00237052
-0.000191867
-0.00204489
-0.000111182
-0.00176799
-3.26997e-05
-0.00153956
4.05796e-05
-0.00135533
0.000111199
-0.00120281
0.000163515
-0.00107951
0.000204349
-0.000983926
0.000233808
-0.000913389
0.000251051
-0.000860518
0.000253123
-0.000827251
0.000252269
-0.000812164
0.000249061
-0.000811827
0.000245
-0.000821698
0.000241233
-0.000837076
0.000238161
-0.000854331
0.00023542
-0.000871748
0.000232208
-0.000888836
0.000227843
-0.000904534
0.000222119
-0.000916219
0.000215294
-0.000920146
0.000207735
-0.00091273
0.000199561
-0.000891365
0.000190371
-0.00085498
0.00017936
-0.000803834
0.000165649
-0.000739325
0.000148524
-0.000663536
0.000127569
-0.000578668
0.000102667
-0.000486601
7.39139e-05
-0.000388082
4.08909e-05
-0.000285265
5.77935e-06
-0.000179212
-3.19612e-05
-7.02462e-05
-7.29283e-05
4.21599e-05
-0.000117994
0.000157499
-0.000167028
0.000275645
-0.000219791
0.000395846
-0.000275859
0.00051696
-0.00033461
0.000637396
-0.000395202
0.000755182
-0.000456631
0.000868096
-0.000517775
0.000973808
-0.00057747
0.00107007
-0.000634586
0.00115488
-0.000688113
0.0012267
-0.000737247
0.00128464
-0.000781466
0.00132852
-0.000820587
0.00135905
-0.000854791
0.00137772
-0.000884608
0.00138674
-0.000910853
0.00138883
-0.000934533
0.001387
-0.000956738
0.00138432
-0.000978543
0.0013837
-0.00100095
0.00138771
-0.00102486
0.00139849
-0.0010511
-0.00108062
0.00141767
0.000506778
0.000137568
0.00101162
0.000607716
0.00115611
0.000947761
0.00107804
0.0010294
0.000946065
0.00093465
0.000754932
0.000755867
0.00038672
0.000550787
-0.000309033
0.000330465
-0.00139994
5.99949e-05
-0.00276024
-0.000295079
-0.00407312
-0.000692901
-0.00501265
-0.00100316
-0.00545457
-0.00110192
-0.0055006
-0.000977334
-0.00532372
-0.000739072
-0.00504397
-0.000527307
-0.00471145
-0.000423313
-0.00435587
-0.000420347
-0.00398969
-0.000490331
-0.00361861
-0.000585534
-0.00323721
-0.000665646
-0.00284274
-0.000695234
-0.00244833
-0.000657056
-0.00207628
-0.000563916
-0.00174074
-0.000446715
-0.0014426
-0.000330846
-0.00117587
-0.000226147
-0.000933255
-0.000131418
-0.000726526
-4.32148e-05
-0.000561447
3.927e-05
-0.000440224
0.000112585
-0.000368278
0.000179104
-0.000348243
0.000233088
-0.00037144
0.000275467
-0.000429082
0.000306703
-0.000511279
0.000327196
-0.000607484
0.000337437
-0.000707491
0.000338168
-0.000802573
0.000330501
-0.000886285
0.000315919
-0.000954589
0.000296147
-0.00100539
0.000272915
-0.00103777
0.000247676
-0.00105138
0.000221351
-0.00104606
0.000194236
-0.00102182
0.000166128
-0.000979069
0.000136613
-0.000918768
0.000105348
-0.000842518
7.22749e-05
-0.000752407
3.74568e-05
-0.000650586
8.46532e-07
-0.000540019
-3.66534e-05
-0.000424312
-7.48158e-05
-0.000304627
-0.000113905
-0.000182176
-0.000154412
-5.80789e-05
-0.000197026
6.62628e-05
-0.000242336
0.00018977
-0.000290534
0.00031139
-0.000341411
0.000429928
-0.000394397
0.000543974
-0.000448656
0.000651954
-0.000503182
0.000752229
-0.000556906
0.000843241
-0.000608786
0.000923676
-0.000657905
0.000992623
-0.000703533
0.00104971
-0.000745198
0.00109518
-0.00078272
0.00112994
-0.000816223
0.00115547
-0.000846119
0.00117373
-0.000873054
0.00118695
-0.000897827
0.0011974
-0.000921307
0.00120722
-0.000944351
0.00121824
-0.000967754
0.00123192
-0.00099222
0.00124934
-0.00101837
0.00127123
-0.00104675
0.00129796
-0.00107783
-0.00111208
0.00132943
0.00025145
-0.000113882
0.000720306
0.00013886
0.00123834
0.000429726
0.00184677
0.000420965
0.00261432
0.000167104
0.00354842
-0.000178231
0.00460226
-0.000503057
0.00567299
-0.000740264
0.0066135
-0.000880509
0.00727799
-0.000959576
0.00759436
-0.00100927
0.00762085
-0.00102965
0.0075246
-0.00100567
0.00748691
-0.000939645
0.00760025
-0.000852405
0.00784391
-0.000770967
0.00813036
-0.000709764
0.0083633
-0.000653286
0.0084614
-0.000588437
0.00836165
-0.000485783
0.00803971
-0.000343702
0.00751964
-0.000175165
0.00685442
8.16346e-06
0.00608555
0.000204946
0.00523
0.000408837
0.0043323
0.000566859
0.00347866
0.000627489
0.0027441
0.000603148
0.00215284
0.000548044
0.00169082
0.00050129
0.00133016
0.000473241
0.0010501
0.00045916
0.000831156
0.000452037
0.000659569
0.000447055
0.000524867
0.000441405
0.000418775
0.000433289
0.000333804
0.000422408
0.000264094
0.000407879
0.000205253
0.000389343
0.0001543
0.000366872
0.000109613
0.000340834
7.07153e-05
0.000311814
3.78583e-05
0.000280534
1.16499e-05
0.00024756
-7.32265e-06
0.000213209
-1.87707e-05
0.000177576
-2.28963e-05
0.000140738
-2.16421e-05
0.000104093
-1.34043e-05
6.40368e-05
4.17175e-06
1.98806e-05
2.81005e-05
-2.30821e-05
5.79524e-05
-6.65052e-05
9.35655e-05
-0.000110429
0.000135046
-0.000155385
0.000182548
-0.000201914
0.000235979
-0.000250456
0.000294805
-0.000301161
0.000358088
-0.000353818
0.000424535
-0.000407858
0.000492578
-0.000462439
0.000560504
-0.000516581
0.000626608
-0.000569286
0.000689348
-0.000619645
0.000747478
-0.000666917
0.000800158
-0.000710586
0.000847018
-0.000750392
0.000888162
-0.000786343
0.000924137
-0.000818695
0.000955827
-0.000847914
0.000984332
-0.000874624
0.00101082
-0.000899537
0.00103637
-0.000923384
0.00106193
-0.000946868
0.0010882
-0.000970621
0.00111565
-0.000995203
0.00114454
-0.00102111
0.00117493
-0.00104876
0.00120669
-0.00107852
0.00123953
-0.00111067
-0.00114537
0.00127282
-0.000340984
0.000227102
-0.00023435
3.22257e-05
0.000424317
-0.000228941
0.00123247
-0.000387192
0.00193675
-0.000537167
0.00245528
-0.000696763
0.00279658
-0.000844357
0.00300356
-0.000947251
0.00310958
-0.000986523
0.00311618
-0.000966176
0.00301209
-0.000905185
0.00280417
-0.000821726
0.00252596
-0.00072746
0.00221301
-0.000626691
0.00188302
-0.000522421
0.0015436
-0.000431541
0.00117423
-0.000340393
0.000779761
-0.000258821
0.000367421
-0.000176096
-4.07439e-05
-7.76184e-05
-0.000429842
4.53959e-05
-0.000796978
0.000191971
-0.00114267
0.000353852
-0.00146495
0.000527232
-0.00175352
0.000697407
-0.00199054
0.000803876
-0.00214495
0.000781903
-0.00218173
0.000639925
-0.00211969
0.000486001
-0.0019961
0.000377704
-0.00184837
0.000325509
-0.00170083
0.000311625
-0.00156274
0.000313942
-0.00143181
0.00031612
-0.00130407
0.000313668
-0.00117884
0.000308057
-0.00105762
0.000301193
-0.000940459
0.000290716
-0.000828622
0.000277506
-0.000724616
0.000262866
-0.000630797
0.000247016
-0.000548166
0.000229183
-0.000477213
0.00020958
-0.000417754
0.0001881
-0.000369011
0.000164466
-0.000329676
0.000138241
-0.000297789
0.000108852
-0.000267768
7.40722e-05
-0.00024395
4.0219e-05
-0.000226216
2.14632e-06
-0.000208506
-4.07913e-05
-0.000187541
-8.74701e-05
-0.000160364
-0.000137606
-0.000124884
-0.000190866
-7.9998e-05
-0.0002468
-2.56585e-05
-0.000304795
3.72593e-05