/*--------------------------------*- C++ -*----------------------------------*\
| =========                 |                                                 |
| \\      /  F ield         | OpenFOAM: The Open Source CFD Toolbox           |
|  \\    /   O peration     | Version:  2012                                  |
|   \\  /    A nd           | Website:  www.openfoam.com                      |
|    \\/     M anipulation  |                                                 |
\*---------------------------------------------------------------------------*/
FoamFile
{
    version     2.0;
    format      ascii;
    class       volVectorField;
    location    "0.66";
    object      U;
}
// * * * * * * * * * * * * * * * * * * * * * * * * * * * * * * * * * * * * * //

dimensions      [0 1 -1 0 0 0 0];


internalField   nonuniform List<vector> 
42400
(
(-1.05533 4.28189 -7.84609e-17)
(-2.90553 10.2028 -1.13849e-16)
(-5.241 16.8089 1.16267e-16)
(-8.11332 22.4726 0)
(-9.79177 25.6703 0)
(-8.72169 26.3323 3.45583e-19)
(-4.9888 24.9493 0)
(0.0918887 22.7962 -2.95924e-19)
(4.75624 21.1857 0)
(7.78493 20.9085 -2.22551e-19)
(8.92472 22.0199 -1.84701e-19)
(8.64172 24.0287 1.49e-19)
(7.60702 26.2708 3.00789e-17)
(6.34253 28.2165 -3.06809e-17)
(5.15056 29.5786 6.20355e-20)
(4.15286 30.2338 0)
(3.38926 30.1478 0)
(2.8904 29.3567 0)
(2.67204 27.9488 0)
(2.71154 26.047 0)
(2.9448 23.7914 0)
(3.27749 21.328 -1.94986e-20)
(3.60325 18.8024 9.22586e-18)
(3.82005 16.3578 6.74443e-19)
(3.82509 14.1211 -1.01972e-17)
(3.52986 12.1903 1.86005e-20)
(2.88356 10.629 3.02087e-20)
(1.90139 9.44982 -8.12249e-20)
(0.683102 8.59645 0)
(-0.597383 7.95497 0)
(-1.74069 7.36476 -1.1874e-17)
(-2.57035 6.64903 1.20001e-17)
(-2.98037 5.67907 -1.42535e-19)
(-2.95378 4.42001 1.06036e-17)
(-2.55627 2.9367 -1.05474e-17)
(-1.92181 1.36676 0)
(-1.22171 -0.135111 0)
(-0.606414 -1.45588 0)
(-0.139532 -2.5453 0)
(0.191215 -3.41053 6.73156e-18)
(0.427929 -4.09625 -6.75955e-18)
(0.615267 -4.65272 5.66764e-18)
(0.787371 -5.10967 -7.30429e-19)
(0.964252 -5.46949 -9.80523e-18)
(1.14987 -5.72271 4.5812e-18)
(1.33684 -5.85827 -3.94381e-18)
(1.51237 -5.86709 7.86482e-18)
(1.66174 -5.74521 -3.67985e-18)
(1.7708 -5.49551 -2.13392e-19)
(1.82785 -5.12832 3.2257e-18)
(1.82498 -4.66078 -6.23855e-18)
(1.7589 -4.11499 -1.99986e-19)
(1.63093 -3.51515 3.16645e-18)
(1.44633 -2.88442 -3.13465e-19)
(1.21346 -2.24218 0)
(0.941937 -1.60251 0)
(0.64225 -0.974078 0)
(0.326142 -0.361397 2.53978e-19)
(0.00571971 0.233316 2.42579e-19)
(-0.304855 0.809382 0)
(-0.590349 1.36609 3.66194e-18)
(-0.83613 1.90026 -3.81343e-18)
(-1.02845 2.40656 -3.3583e-18)
(-1.1553 2.8781 3.29495e-18)
(-1.20749 3.30718 0)
(-1.17953 3.68639 0)
(-1.07005 4.00961 -2.83992e-18)
(-0.881695 4.27288 2.77566e-18)
(-0.620364 4.47474 3.24533e-19)
(-0.294107 4.61622 0)
(0.0882217 4.70033 0)
(0.518129 4.73141 2.91891e-19)
(0.988331 4.71441 2.82359e-19)
(1.49324 4.65424 0)
(2.02937 4.55552 2.64879e-19)
(2.59481 4.42136 2.08721e-18)
(3.19623 4.25809 -2.02439e-18)
(3.81443 4.05109 -4.82232e-19)
(4.55608 3.8599 -1.90949e-18)
(5.07939 3.48746 -1.84841e-18)
(6.86489 -5.23466 0)
(0.660709 -4.92838 2.93733e-17)
(-14.474 11.2202 -3.02024e-17)
(-33.7208 24.1478 0)
(-42.5152 32.1792 0)
(-42.9515 32.0654 1.33446e-17)
(-38.3455 26.9024 -1.40182e-17)
(-32.7082 20.654 2.98727e-19)
(-28.2867 15.7217 0)
(-25.4553 12.6986 2.24863e-19)
(-23.7055 11.2456 1.86656e-19)
(-22.408 10.8868 -4.0036e-18)
(-21.1502 11.276 3.76557e-19)
(-19.7668 12.1838 4.2705e-18)
(-18.2368 13.4528 5.42099e-18)
(-16.5788 14.9384 -5.10455e-18)
(-14.8066 16.4646 0)
(-12.9276 17.838 4.19568e-19)
(-10.9593 18.8873 0)
(-8.94408 19.4968 0)
(-6.95107 19.6156 0)
(-5.06727 19.247 -1.0728e-17)
(-3.37992 18.4377 3.94482e-19)
(-1.96595 17.2665 1.09479e-17)
(-0.896397 15.8441 0)
(-0.20225 14.2896 -2.25767e-19)
(0.120667 12.7114 -3.05049e-20)
(0.118347 11.2023 8.20225e-20)
(-0.125063 9.82949 -5.52121e-18)
(-0.506168 8.62816 5.58449e-18)
(-0.925417 7.59776 -1.90055e-19)
(-1.30688 6.70444 -1.50278e-19)
(-1.60424 5.8905 -1.62282e-18)
(-1.7939 5.08956 1.89625e-18)
(-1.86865 4.24407 1.36587e-19)
(-1.83276 3.32069 -3.05657e-19)
(-1.69441 2.31605 0)
(-1.45877 1.25293 -3.84774e-20)
(-1.12615 0.170167 0)
(-0.700435 -0.89522 -1.56147e-19)
(-0.191955 -1.91436 2.91539e-18)
(0.384776 -2.85229 -3.10841e-18)
(1.01128 -3.6744 2.79139e-19)
(1.6582 -4.35677 -2.70359e-19)
(2.29383 -4.88423 2.41601e-20)
(2.88809 -5.24491 -2.49811e-19)
(3.41173 -5.42976 2.38152e-19)
(3.83772 -5.43415 3.15233e-18)
(4.1439 -5.26001 -3.15021e-18)
(4.31609 -4.91762 0)
(4.35006 -4.42677 1.85533e-19)
(4.2522 -3.81592 3.53487e-19)
(4.03845 -3.11934 2.16134e-18)
(3.73135 -2.37356 -2.15772e-18)
(3.35696 -1.61317 -2.85347e-19)
(2.94067 -0.867775 3.92727e-18)
(2.50589 -0.159563 -4.40012e-18)
(2.07388 0.498057 -2.53518e-19)
(1.66093 1.09821 -2.42147e-19)
(1.28047 1.64044 3.50023e-18)
(0.943419 2.12821 -3.44473e-18)
(0.660533 2.56597 2.13083e-19)
(0.440747 2.95891 1.93928e-19)
(0.29122 3.31091 0)
(0.21742 3.62396 -2.55307e-18)
(0.222515 3.89855 4.03638e-20)
(0.307002 4.13432 3.08503e-18)
(0.468688 4.33074 0)
(0.703048 4.48767 -6.34926e-19)
(1.00389 4.60561 2.99875e-19)
(1.36416 4.68567 2.3681e-18)
(1.7768 4.7293 -2.59794e-18)
(2.23547 4.73806 -2.50088e-18)
(2.73594 4.71288 2.41866e-18)
(3.2752 4.65521 -5.17539e-19)
(3.84995 4.56301 2.01719e-18)
(4.47076 4.44397 -1.48347e-18)
(5.0987 4.26494 4.81797e-19)
(5.88878 4.11861 -2.2628e-18)
(6.344 3.75549 1.75376e-18)
(-9.90271 6.31301 -4.22553e-17)
(-22.0556 12.4853 8.60761e-20)
(-26.9049 12.921 2.99237e-19)
(-30.9173 13.4185 1.02102e-19)
(-34.044 15.5545 0)
(-34.22 16.2221 -1.10841e-16)
(-31.5601 14.8045 2.18211e-16)
(-27.2573 11.8783 -1.07171e-16)
(-22.223 8.30648 9.25108e-17)
(-16.9367 4.66582 -8.1342e-18)
(-11.637 1.27705 -8.76884e-17)
(-6.52648 -1.66535 -3.20307e-19)
(-1.8517 -4.00335 -2.95897e-19)
(2.12701 -5.58336 6.25952e-17)
(5.18939 -6.28619 -6.37657e-17)
(7.19395 -6.05543 -1.70741e-19)
(8.11871 -4.91366 -4.7412e-17)
(8.0546 -2.97835 4.65636e-18)
(7.16384 -0.453041 4.28158e-17)
(5.64527 2.43551 4.34642e-19)
(3.71878 5.45977 -3.85735e-19)
(1.58595 8.40994 -3.38934e-19)
(-0.586605 11.112 0)
(-2.66436 13.4318 2.04688e-21)
(-4.5329 15.259 1.83613e-17)
(-6.07503 16.5033 -3.44427e-17)
(-7.19236 17.1001 1.64332e-17)
(-7.80655 17.0177 -1.23498e-17)
(-7.87791 16.2878 1.2514e-17)
(-7.45609 15.0347 9.01223e-18)
(-6.68945 13.4606 -1.59876e-17)
(-5.75796 11.7847 1.7329e-18)
(-4.79821 10.1771 5.61457e-18)
(-3.87541 8.72527 0)
(-2.99004 7.4467 0)
(-2.1106 6.31909 1.39483e-20)
(-1.21093 5.29928 0)
(-0.280893 4.34985 -8.89463e-20)
(0.687637 3.46234 2.11256e-18)
(1.69435 2.6388 -4.97204e-18)
(2.72697 1.88195 2.89449e-18)
(3.76848 1.20002 0)
(4.79396 0.587338 0)
(5.77272 0.0379206 3.82963e-18)
(6.67463 -0.445509 -3.59212e-18)
(7.46836 -0.85442 -2.80666e-19)
(8.11948 -1.17809 0)
(8.59365 -1.40435 0)
(8.86219 -1.5214 3.31778e-18)
(8.90874 -1.51991 -3.30132e-18)
(8.73467 -1.39527 -1.84543e-19)
(8.36092 -1.14926 0)
(7.82502 -0.791054 -2.879e-18)
(7.17406 -0.337041 2.52398e-18)
(6.45662 0.190859 -4.19182e-18)
(5.71576 0.767304 4.42507e-18)
(4.98685 1.36586 -3.73023e-18)
(4.29808 1.96178 7.70949e-18)
(3.66879 2.53135 -7.31437e-18)
(3.11393 3.05727 1.13122e-19)
(2.64198 3.52334 3.36985e-18)
(2.25685 3.92055 3.13894e-18)
(1.96452 4.25104 -3.27691e-18)
(1.76684 4.51859 0)
(1.66225 4.72857 2.42977e-18)
(1.64762 4.88814 -4.50647e-20)
(1.71823 5.00461 -3.27883e-18)
(1.86809 5.08471 0)
(2.09023 5.13423 6.02689e-19)
(2.37718 5.15781 2.0246e-18)
(2.72149 5.15884 -1.99502e-18)
(3.11697 5.1392 0)
(3.55653 5.09853 0)
(4.03628 5.03742 -2.61196e-19)
(4.55519 4.95686 2.5265e-19)
(5.11167 4.85203 1.43672e-18)
(5.70569 4.72496 -2.30469e-18)
(6.32107 4.55188 0)
(7.00821 4.39246 4.39806e-19)
(7.54139 4.0929 1.6112e-18)
(-4.01303 5.00198 5.61724e-17)
(-2.59486 9.84181 -8.10886e-17)
(4.93027 8.17633 4.01413e-17)
(14.7848 8.37042 3.33398e-17)
(22.1152 8.90159 -3.43317e-17)
(29.1666 10.2379 0)
(35.7255 11.6041 3.96901e-17)
(41.3142 12.9787 -4.027e-17)
(45.592 14.5397 1.88551e-17)
(48.4281 16.3981 -1.92513e-17)
(49.8457 18.5798 -5.15501e-19)
(49.9178 21.0191 7.52186e-18)
(48.7214 23.5448 -2.20868e-17)
(46.3611 25.9081 3.29131e-17)
(42.9949 27.8425 -4.04498e-17)
(38.842 29.1581 2.15203e-17)
(34.1588 29.7885 2.39819e-17)
(29.2092 29.7974 -4.57878e-17)
(24.2414 29.3085 2.28861e-17)
(19.4766 28.477 -4.36199e-19)
(15.0862 27.4486 9.22122e-19)
(11.1623 26.3483 1.37985e-17)
(7.72798 25.2767 -1.41642e-17)
(4.76863 24.313 -2.556e-19)
(2.26514 23.4998 0)
(0.208712 22.8355 -1.86103e-19)
(-1.38926 22.2783 0)
(-2.4995 21.755 -2.62367e-18)
(-3.10698 21.1558 1.51055e-18)
(-3.22207 20.3925 7.34502e-19)
(-2.89977 19.4108 -1.82747e-18)
(-2.21779 18.2046 1.90617e-18)
(-1.25547 16.8036 -3.85253e-19)
(-0.0916283 15.2592 -3.5127e-19)
(1.19938 13.6345 -5.828e-18)
(2.54893 11.9955 6.1947e-18)
(3.90409 10.4095 0)
(5.23025 8.94249 7.24876e-18)
(6.48337 7.61315 -7.16062e-18)
(7.62776 6.42171 3.01543e-19)
(8.65075 5.37345 -4.73771e-19)
(9.5332 4.46919 0)
(10.2422 3.68625 0)
(10.757 3.00568 0)
(11.0647 2.42386 -3.35021e-19)
(11.1514 1.94129 5.18378e-18)
(11.0111 1.56463 -4.89686e-18)
(10.6523 1.30114 0)
(10.1049 1.1513 0)
(9.42052 1.10413 3.36355e-18)
(8.66271 1.13887 -3.15221e-18)
(7.89227 1.23226 2.82999e-18)
(7.15301 1.36705 -2.14974e-18)
(6.46611 1.53644 3.02235e-19)
(5.83394 1.74251 -1.98744e-18)
(5.24885 1.9909 2.51541e-18)
(4.70217 2.28455 -4.00865e-18)
(4.18973 2.61964 3.72504e-18)
(3.71438 2.98459 0)
(3.28444 3.36263 -2.08826e-19)
(2.9144 3.73847 -3.24266e-18)
(2.61662 4.09827 2.91223e-19)
(2.39724 4.42371 6.14896e-18)
(2.26052 4.70203 -5.5143e-18)
(2.20863 4.92768 2.42116e-18)
(2.24032 5.09937 2.55116e-18)
(2.35141 5.21932 -1.8845e-18)
(2.53574 5.29219 -2.8118e-19)
(2.78593 5.32399 -2.25922e-18)
(3.09423 5.32093 2.18137e-18)
(3.45246 5.28789 -5.16901e-19)
(3.8544 5.22984 -2.21876e-18)
(4.29727 5.15357 1.9288e-18)
(4.77686 5.06031 0)
(5.28686 4.94637 -1.78021e-18)
(5.82436 4.81044 4.60074e-19)
(6.37655 4.64874 3.72935e-18)
(6.94642 4.46378 -1.61101e-18)
(7.47897 4.24819 1.55114e-18)
(8.03287 4.03101 -1.48425e-18)
(-2.16069 0.461752 -4.54489e-18)
(-5.17836 -2.4359 0)
(-5.00129 -4.67407 0)
(-6.89116 -10.7553 3.61378e-19)
(-8.58087 -15.7762 0)
(-11.1115 -21.5449 0)
(-13.9164 -28.008 0)
(-16.2201 -35.3616 2.41641e-19)
(-17.2591 -43.8567 0)
(-16.5611 -53.2345 -5.2922e-19)
(-14.4555 -62.5592 8.13434e-17)
(-12.1284 -70.256 -1.76321e-16)
(-11.1599 -74.6986 9.53315e-17)
(-12.7243 -75.0356 0)
(-16.8773 -71.5797 -3.51478e-19)
(-22.4823 -65.5396 -1.95064e-19)
(-27.8914 -58.3408 0)
(-31.8328 -51.0673 1.02816e-16)
(-33.8294 -44.2761 -2.02607e-16)
(-34.0601 -38.1151 7.7436e-18)
(-32.9903 -32.5203 9.09881e-17)
(-31.0893 -27.3569 4.97307e-19)
(-28.6949 -22.4987 0)
(-26.029 -17.8664 -5.84183e-17)
(-23.2238 -13.4089 6.04171e-17)
(-20.3502 -9.098 -4.53736e-17)
(-17.4686 -4.94783 4.63543e-17)
(-14.6156 -0.958038 3.47195e-17)
(-11.8238 2.85354 -3.48091e-17)
(-9.13568 6.45268 0)
(-6.58605 9.78603 -2.342e-17)
(-4.2024 12.7817 2.36217e-17)
(-1.99323 15.3699 3.65773e-19)
(0.0444845 17.481 -1.65192e-17)
(1.92099 19.0478 1.69947e-17)
(3.62446 20.0498 7.83147e-20)
(5.14498 20.4694 -3.72233e-19)
(6.46515 20.3158 -1.09178e-17)
(7.58151 19.6541 1.09768e-17)
(8.48906 18.5753 8.29239e-18)
(9.17904 17.1648 -5.45988e-19)
(9.65541 15.5344 -8.07978e-18)
(9.92731 13.8088 0)
(10.0209 12.0837 3.68761e-19)
(9.97794 10.4265 -4.22551e-18)
(9.84083 8.88654 9.62486e-18)
(9.64783 7.49975 -8.49851e-18)
(9.42781 6.29378 3.81673e-18)
(9.19153 5.28674 0)
(8.93207 4.48647 1.86863e-19)
(8.63012 3.88885 -2.8892e-18)
(8.26349 3.47559 2.84679e-18)
(7.81693 3.21574 -4.3748e-20)
(7.28856 3.07166 -2.2982e-18)
(6.69157 3.00718 1.71187e-18)
(6.04999 2.99602 -1.96998e-18)
(5.39307 3.02389 -1.9766e-18)
(4.75053 3.08575 3.89371e-18)
(4.14915 3.18079 -3.32139e-18)
(3.60971 3.30688 3.48191e-18)
(3.14779 3.45869 0)
(2.77558 3.62594 -1.88637e-19)
(2.50016 3.79633 -2.73363e-18)
(2.3248 3.95936 2.34035e-18)
(2.24881 4.10561 6.20898e-19)
(2.26816 4.2279 0)
(2.37628 4.32207 2.19656e-18)
(2.56498 4.38652 -1.89215e-18)
(2.82516 4.42171 -2.6879e-19)
(3.1477 4.42959 -2.33326e-19)
(3.52466 4.41462 4.70484e-19)
(3.94687 4.37849 2.13852e-20)
(4.40522 4.32113 -1.93373e-18)
(4.89207 4.24302 1.67783e-18)
(5.39732 4.14465 -1.95804e-19)
(5.90789 4.02645 0)
(6.40786 3.88812 -1.92739e-18)
(6.87841 3.73397 1.48147e-18)
(7.29396 3.55773 0)
(7.67644 3.41841 -1.40486e-18)
(2.7304 1.51969 -6.31502e-19)
(2.45422 8.36544 -6.16598e-17)
(-1.7166 19.5152 5.8777e-17)
(-7.09722 33.0649 -1.17991e-16)
(-14.5967 46.6756 5.89251e-17)
(-24.0081 60.057 -6.31065e-20)
(-33.8399 71.0204 5.00411e-17)
(-42.5981 78.3326 -5.15949e-17)
(-49.0113 81.614 1.64929e-19)
(-51.447 80.358 7.40607e-19)
(-48.4369 74.1544 -2.69693e-17)
(-40.1371 63.6749 -1.73941e-17)
(-28.712 50.8126 4.64693e-17)
(-17.0225 37.6876 -3.2087e-17)
(-7.11084 25.7866 6.15619e-17)
(0.30827 15.7374 -2.80151e-17)
(5.46245 7.58588 0)
(8.88964 1.08615 0)
(11.0653 -4.07211 2.19134e-17)
(12.336 -8.15825 -1.104e-19)
(12.9788 -11.3808 -2.10457e-17)
(13.238 -13.8869 1.93697e-17)
(13.3459 -15.7572 -3.81648e-17)
(13.4945 -17.0833 1.81332e-17)
(13.7727 -17.8908 1.58038e-17)
(14.2069 -18.1904 -1.38862e-18)
(14.7596 -17.9743 -1.57946e-17)
(15.3445 -17.2223 -3.80311e-20)
(15.8515 -15.9269 1.53562e-20)
(16.1585 -14.1159 8.08723e-21)
(16.1627 -11.8823 0)
(15.7922 -9.37171 1.12808e-17)
(15.0238 -6.73444 -2.2708e-17)
(13.8817 -4.07218 1.14515e-17)
(12.4556 -1.44345 0)
(10.8675 1.11718 -1.13431e-17)
(9.2648 3.52491 1.13875e-17)
(7.77288 5.6968 0)
(6.49437 7.58029 0)
(5.49719 9.12999 -8.43694e-18)
(4.81929 10.318 8.75606e-18)
(4.46195 11.1291 1.64489e-19)
(4.39963 11.5735 0)
(4.5844 11.6695 5.37088e-18)
(4.95326 11.45 -1.0258e-18)
(5.43596 10.9692 -5.33507e-18)
(5.95076 10.2931 -1.86744e-19)
(6.41103 9.49263 4.01171e-19)
(6.73346 8.63587 0)
(6.85056 7.78566 -2.77221e-18)
(6.72734 6.99761 4.84717e-18)
(6.36591 6.30795 -2.42003e-18)
(5.80442 5.72717 -2.82206e-19)
(5.11303 5.2422 -2.06768e-18)
(4.37081 4.82435 3.30401e-19)
(3.65771 4.45128 3.30568e-18)
(3.03253 4.1094 -1.19949e-18)
(2.52287 3.79613 0)
(2.12996 3.5188 0)
(1.83972 3.28847 1.63836e-19)
(1.63553 3.1126 1.57537e-19)
(1.50563 2.99202 0)
(1.44458 2.9216 2.2639e-18)
(1.45163 2.89149 -2.22636e-18)
(1.52767 2.89007 -2.50979e-18)
(1.67326 2.90644 -1.9892e-19)
(1.88702 2.93136 1.79771e-18)
(2.16533 2.95785 -1.92585e-18)
(2.50286 2.9815 1.88075e-18)
(2.89255 2.99938 1.73346e-20)
(3.32614 3.00997 1.48235e-18)
(3.79461 3.01211 -1.44623e-18)
(4.2869 3.00574 -1.39226e-18)
(4.79075 2.99133 1.7475e-18)
(5.29274 2.96966 -1.32369e-18)
(5.77879 2.94164 1.47521e-18)
(6.23619 2.90928 -1.45362e-18)
(6.65142 2.8725 2.83188e-18)
(7.03649 2.84156 1.52407e-20)
(7.33223 2.81246 1.78525e-20)
(24.6377 -15.348 -4.33064e-17)
(58.1463 -37.0849 -1.59513e-20)
(74.723 -45.9257 6.47698e-17)
(72.2612 -42.3934 -1.30628e-16)
(50.1721 -24.4539 6.58598e-17)
(12.1036 3.10145 -6.31565e-17)
(-28.8508 31.4494 7.66569e-19)
(-60.1553 53.0317 6.3958e-17)
(-76.2 65.3221 -6.37902e-17)
(-78.7056 69.9878 6.35359e-17)
(-72.6771 70.0468 -6.0358e-17)
(-63.032 68.0383 6.09283e-17)
(-53.2091 65.4745 -5.4534e-17)
(-44.9419 62.9209 5.51704e-17)
(-38.6779 60.396 -2.70334e-19)
(-34.185 57.7427 -2.54803e-19)
(-30.9874 54.8354 -8.02583e-17)
(-28.6045 51.5887 8.15446e-17)
(-26.5768 47.953 3.87386e-19)
(-24.4989 43.9187 -6.24282e-19)
(-22.0192 39.5105 -5.52684e-17)
(-18.9049 34.8363 5.50653e-17)
(-15.0673 29.9926 0)
(-10.5083 25.0929 4.28355e-19)
(-5.41659 20.296 0)
(-0.0715784 15.7284 0)
(5.1872 11.4806 2.87982e-19)
(9.95702 7.63556 1.61222e-17)
(13.7161 4.34217 -1.65994e-17)
(15.8272 1.84256 -1.01427e-17)
(15.82 0.339762 1.02722e-17)
(13.8466 -0.215035 7.44979e-20)
(10.7699 -0.162027 -1.04092e-19)
(7.63321 0.0743271 0)
(5.10289 0.218581 1.51649e-19)
(3.35938 0.235816 0)
(2.30875 0.243022 0)
(1.76773 0.335286 6.1556e-20)
(1.56816 0.536212 0)
(1.59393 0.846327 0)
(1.75726 1.24593 1.82593e-18)
(1.9796 1.70001 -1.5295e-18)
(2.19883 2.16204 0)
(2.36271 2.5808 0)
(2.44068 2.91315 0)
(2.41787 3.11883 -5.00328e-20)
(2.29538 3.17844 1.88386e-19)
(2.09173 3.09823 1.68693e-18)
(1.83598 2.9149 -1.85112e-18)
(1.55698 2.676 1.77588e-18)
(1.27491 2.42278 -1.97171e-18)
(1.00285 2.18573 1.97437e-19)
(0.750721 1.98206 7.63305e-20)
(0.533977 1.82291 0)
(0.360683 1.7059 0)
(0.236659 1.61932 -1.28164e-18)
(0.164433 1.55114 -1.44072e-19)
(0.141427 1.49332 1.35598e-18)
(0.161243 1.44258 -1.2672e-18)
(0.217196 1.39937 1.22348e-18)
(0.305435 1.36627 2.18828e-18)
(0.426085 1.34629 -4.89944e-20)
(0.582644 1.34158 -4.26125e-18)
(0.780664 1.35276 2.13146e-18)
(1.02534 1.37898 1.21127e-19)
(1.32014 1.41838 2.5561e-19)
(1.66663 1.46944 1.85885e-18)
(2.06363 1.53075 -3.6083e-18)
(2.50725 1.60077 1.74932e-18)
(2.99126 1.67831 2.16541e-19)
(3.50734 1.76246 1.62544e-18)
(4.04546 1.85238 -1.77924e-18)
(4.59427 1.94713 0)
(5.14178 2.04543 -1.91315e-19)
(5.67615 2.14551 0)
(6.18643 2.245 1.44924e-18)
(6.66327 2.34099 1.49446e-20)
(7.09955 2.42944 -1.37669e-18)
(7.49437 2.5113 1.02438e-18)
(7.81776 2.57294 3.42142e-19)
(7.45558 -3.71077 2.23957e-17)
(37.5464 -27.9554 -3.36765e-17)
(81.1307 -52.6256 2.40618e-19)
(105.349 -75.7258 -2.45484e-17)
(102.71 -78.3629 2.51424e-17)
(80.5634 -68.3826 -1.64705e-17)
(55.5251 -54.0697 3.16452e-17)
(39.3843 -42.1543 -1.35946e-17)
(34.8683 -34.7418 1.07029e-17)
(38.2459 -30.5885 -9.75373e-18)
(43.9815 -27.5219 0)
(47.6498 -23.801 1.06823e-18)
(47.2273 -18.6976 -4.9525e-19)
(43.0862 -12.4858 0)
(36.9576 -6.02459 0)
(30.6371 -0.165209 0)
(25.2882 4.60585 0)
(21.4654 8.15177 2.81933e-19)
(19.3667 10.527 0)
(18.9912 11.9082 8.48384e-18)
(20.1805 12.5123 -7.38308e-18)
(22.5996 12.6056 -1.53702e-17)
(25.757 12.4126 1.61478e-17)
(29.0074 12.1258 1.48842e-17)
(31.6283 11.8586 -1.54623e-17)
(32.9527 11.6694 1.43849e-17)
(32.4633 11.5936 -1.48933e-17)
(29.9046 11.6518 1.39079e-17)
(25.4858 11.7484 -5.70863e-19)
(20.0112 11.5987 -1.34848e-17)
(14.6529 10.9326 0)
(10.3628 9.72411 -1.44398e-19)
(7.48576 8.17274 -1.43842e-19)
(5.87987 6.51925 0)
(5.15483 4.96242 -1.52236e-19)
(4.96937 3.63963 0)
(5.06146 2.63606 0)
(5.24987 1.97464 -4.52696e-18)
(5.40984 1.63974 8.10895e-18)
(5.46018 1.61441 -3.71388e-18)
(5.34591 1.86267 -2.34775e-18)
(5.03394 2.32694 2.40563e-18)
(4.52082 2.93334 3.12398e-20)
(3.83963 3.59882 0)
(3.06088 4.23398 -5.18372e-19)
(2.28008 4.73773 5.45916e-19)
(1.59193 5.00767 0)
(1.07432 4.97893 0)
(0.762678 4.66232 -4.36471e-19)
(0.620793 4.12679 4.92192e-19)
(0.564994 3.47927 7.9727e-19)
(0.511771 2.82759 -7.57662e-19)
(0.417501 2.24895 -9.13993e-19)
(0.284438 1.77812 1.72388e-18)
(0.141759 1.4153 -8.84825e-19)
(0.0212775 1.14358 -2.55438e-19)
(-0.0554323 0.942299 0)
(-0.0784051 0.793641 1.12006e-19)
(-0.0452763 0.684619 -8.89091e-19)
(0.043238 0.606894 1.84912e-18)
(0.18626 0.55586 -9.84321e-19)
(0.384049 0.529493 0)
(0.637465 0.525875 -1.28798e-19)
(0.947003 0.543727 0)
(1.31306 0.583107 -1.21206e-19)
(1.73419 0.643508 -1.10629e-19)
(2.20659 0.7238 -2.17272e-19)
(2.72432 0.82257 -1.71812e-18)
(3.27908 0.938069 1.46889e-18)
(3.86041 1.06814 -2.04365e-19)
(4.45606 1.2102 -1.59921e-18)
(5.05242 1.36119 1.94959e-18)
(5.63519 1.51767 -1.53162e-18)
(6.18998 1.67585 1.48896e-18)
(6.70299 1.83171 -1.65535e-18)
(7.16177 1.98123 1.24716e-18)
(7.55565 2.1201 1.41221e-18)
(7.87788 2.2459 -1.36867e-18)
(8.1201 2.35022 3.3742e-19)
(8.30183 2.45183 -3.27487e-19)
(-0.358471 3.96752 6.22095e-17)
(1.06541 7.12255 9.09127e-17)
(6.5577 8.77082 -1.83304e-16)
(12.9924 8.13367 1.82171e-16)
(18.6163 6.99318 -9.16362e-17)
(23.5015 6.64403 -2.78116e-19)
(27.4832 7.47918 8.70922e-17)
(30.4622 9.3834 -1.7442e-16)
(32.2411 11.8796 3.12293e-18)
(32.3342 14.3285 8.52509e-17)
(30.2355 16.2398 -6.36883e-19)
(25.7055 17.4217 -7.19801e-17)
(19.0439 17.8922 7.34797e-17)
(11.1161 17.7604 -6.07171e-17)
(2.99876 17.1976 6.20187e-17)
(-4.30761 16.4278 5.03916e-17)
(-9.98523 15.7033 -5.14367e-17)
(-13.2955 15.1794 -2.8036e-19)
(-13.6829 14.7939 0)
(-11.0937 14.2691 -3.16336e-17)
(-6.21511 13.3247 3.19273e-17)
(-0.462645 11.9795 4.34131e-19)
(4.44088 10.6069 1.8384e-17)
(7.18452 9.65738 -1.89945e-17)
(7.32697 9.33574 1.67711e-19)
(5.21597 9.53879 0)
(1.64868 10.0252 -1.66269e-19)
(-2.46641 10.5284 -1.14194e-19)
(-6.26801 10.818 -7.31648e-18)
(-9.03529 10.7279 7.50021e-18)
(-10.3287 10.1825 3.09401e-18)
(-10.1184 9.20325 -2.95292e-18)
(-8.72246 7.88187 1.80325e-19)
(-6.56341 6.34428 -1.65692e-19)
(-4.07813 4.74769 -1.42971e-19)
(-1.55028 3.23407 2.90819e-19)
(0.828965 1.89957 7.49103e-19)
(2.93516 0.800003 -7.54801e-19)
(4.67421 -0.0238231 6.95539e-20)
(5.96715 -0.549722 8.15813e-21)
(6.75476 -0.785282 -5.4062e-20)
(7.00479 -0.752741 5.23826e-19)
(6.72293 -0.479368 -2.28616e-19)
(5.95492 0.00319265 -3.27241e-19)
(4.78554 0.646204 -3.83474e-20)
(3.34512 1.38373 6.01056e-20)
(1.80834 2.1396 0)
(0.35339 2.80888 4.38042e-19)
(-0.869076 3.28712 -4.30851e-19)
(-1.75497 3.51173 4.76074e-19)
(-2.26704 3.47471 5.74734e-21)
(-2.4377 3.22049 4.36841e-20)
(-2.35002 2.8259 4.67884e-20)
(-2.10426 2.37331 4.89885e-20)
(-1.78616 1.92866 -6.66758e-19)
(-1.45031 1.53234 6.22651e-20)
(-1.11999 1.20167 0)
(-0.79656 0.938652 -9.33367e-19)
(-0.470173 0.737866 6.95936e-19)
(-0.127231 0.59183 0)
(0.243762 0.493899 -9.80766e-19)
(0.651206 0.437181 7.55749e-19)
(1.10067 0.417201 0)
(1.59414 0.431326 -1.07912e-19)
(2.12968 0.475969 0)
(2.70233 0.547784 -1.63074e-18)
(3.30415 0.64339 3.53384e-18)
(3.92462 0.759099 -1.68109e-18)
(4.55108 0.890852 2.08632e-19)
(5.16938 1.03423 2.04294e-19)
(5.76462 1.18453 -1.61102e-18)
(6.32195 1.33692 1.3729e-18)
(6.82748 1.48659 -1.95762e-19)
(7.26915 1.62902 -1.9202e-19)
(7.63759 1.76016 3.72509e-19)
(7.92684 1.87665 1.80604e-19)
(8.13485 1.97568 1.6097e-18)
(8.26473 2.05688 1.08054e-20)
(8.32011 2.11275 -1.52394e-18)
(8.3365 2.17936 -3.3162e-19)
(21.9243 -10.1495 0)
(47.6787 -23.3204 -2.60429e-19)
(58.5877 -27.3314 2.76952e-19)
(60.7374 -29.4382 2.0358e-17)
(59.0336 -28.7943 -3.80705e-17)
(52.0114 -26.1452 3.12268e-17)
(40.5437 -21.9817 -1.35955e-17)
(25.7939 -16.6542 0)
(8.80597 -10.4774 6.52753e-19)
(-9.4614 -3.67045 -8.49307e-19)
(-28.1459 3.5458 1.51552e-18)
(-46.3689 10.8891 4.5003e-18)
(-62.875 17.8734 -9.49107e-18)
(-75.5816 23.6206 2.42768e-19)
(-81.6336 26.8881 2.55163e-19)
(-78.5949 26.5599 6.14224e-18)
(-66.3191 22.4432 -3.75242e-19)
(-47.9352 15.8593 -3.91657e-18)
(-28.81 9.06973 4.29157e-18)
(-13.5255 3.96478 2.94378e-19)
(-3.93111 1.16019 -2.21076e-19)
(0.520709 0.255377 -8.08628e-19)
(1.37257 0.523237 -3.15561e-18)
(0.124425 1.38573 1.65642e-19)
(-2.11899 2.51509 3.0923e-18)
(-4.62574 3.7385 -1.51334e-19)
(-6.92355 4.95512 -2.05287e-18)
(-8.72089 6.09366 4.41933e-18)
(-9.85242 7.09792 -3.55368e-18)
(-10.2449 7.90941 1.573e-18)
(-9.91443 8.46597 0)
(-8.95717 8.70714 -1.35533e-18)
(-7.53162 8.57397 2.36249e-18)
(-5.787 8.06078 -1.0493e-18)
(-3.85893 7.20096 7.34438e-19)
(-1.87243 6.0289 -7.99268e-19)
(0.0325434 4.60615 1.42244e-21)
(1.69485 3.06416 0)
(2.92747 1.56909 3.76041e-20)
(3.56248 0.262644 -3.08443e-19)
(3.54995 -0.742759 3.23362e-19)
(2.9897 -1.4244 -5.47428e-21)
(2.07397 -1.83899 6.0401e-22)
(0.997632 -2.03968 0)
(-0.113662 -2.05867 0)
(-1.18503 -1.91792 6.32196e-19)
(-2.14556 -1.64043 -6.35703e-19)
(-2.92051 -1.27049 -3.17921e-20)
(-3.45581 -0.87141 -6.12086e-19)
(-3.72744 -0.4974 1.21271e-18)
(-3.74683 -0.183906 -5.63073e-19)
(-3.55702 0.0520615 0)
(-3.21781 0.209823 6.01157e-19)
(-2.78809 0.300358 -5.69043e-19)
(-2.31303 0.340698 0)
(-1.81956 0.349138 7.06801e-19)
(-1.31851 0.342079 -6.5582e-19)
(-0.810065 0.331986 7.36572e-19)
(-0.289898 0.326581 -6.35123e-19)
(0.248901 0.333993 0)
(0.812945 0.359332 2.0353e-19)
(1.40436 0.402968 1.06032e-19)
(2.02236 0.465513 -8.5124e-19)
(2.66299 0.545941 8.2927e-20)
(3.31907 0.642356 8.42887e-19)
(3.98069 0.752148 0)
(4.6358 0.871948 1.06895e-19)
(5.27088 0.997739 0)
(5.87179 1.12508 0)
(6.42468 1.24936 -1.67338e-18)
(6.91695 1.36608 1.63109e-18)
(7.33821 1.47115 1.41691e-18)
(7.68106 1.56124 2.10666e-19)
(7.94172 1.63407 -1.35774e-18)
(8.12034 1.68863 -1.71976e-18)
(8.22094 1.72532 1.48689e-18)
(8.25108 1.74591 -1.80183e-19)
(8.22141 1.75344 -1.42615e-18)
(8.14424 1.74908 3.11553e-18)
(8.0491 1.76115 -1.00777e-18)
(14.9214 -6.38406 -5.43478e-17)
(42.7398 -15.7271 4.15729e-17)
(58.9001 -28.8 4.81248e-17)
(62.6136 -33.4263 -4.94898e-17)
(54.9577 -32.9209 -2.921e-19)
(44.0054 -29.9373 -2.93761e-19)
(33.0786 -26.638 0)
(24.197 -21.475 -6.86487e-17)
(18.4796 -14.6879 7.05967e-17)
(15.6851 -6.94556 0)
(14.3299 0.975751 7.43558e-17)
(12.7915 8.20904 -1.48712e-16)
(10.616 14.1945 3.76708e-18)
(8.42713 18.8128 1.3656e-16)
(6.99293 22.1607 -6.69676e-17)
(6.64974 24.3195 -4.17078e-19)
(7.27376 25.2838 -4.54146e-20)
(8.43222 25.1353 0)
(9.53276 24.0544 -3.93679e-17)
(10.1811 22.3573 3.96209e-17)
(10.2143 20.3752 -3.42157e-20)
(9.6548 18.3722 -2.39015e-17)
(8.62341 16.5143 2.43906e-17)
(7.27557 14.9133 -1.65059e-17)
(5.73446 13.6046 1.67643e-17)
(4.12904 12.606 1.47681e-19)
(2.57203 11.903 -8.73313e-18)
(1.15863 11.4624 2.11836e-18)
(-0.0463406 11.2225 1.14225e-17)
(-0.99941 11.1248 -1.44331e-18)
(-1.67497 11.1006 -3.3862e-18)
(-2.06515 11.0835 -1.24704e-18)
(-2.17647 11.0568 1.30128e-18)
(-2.04686 11.011 0)
(-1.76446 10.8994 2.50401e-20)
(-1.42133 10.6854 3.37604e-20)
(-1.08831 10.3374 0)
(-0.795271 9.81266 1.65263e-18)
(-0.510511 9.05864 -1.69419e-18)
(-0.182572 8.04378 -2.16384e-20)
(0.175703 6.809 0)
(0.464753 5.47124 5.44648e-21)
(0.558114 4.18462 -4.88587e-19)
(0.389412 3.0672 4.76483e-19)
(-0.0204848 2.16208 0)
(-0.585744 1.46044 5.48634e-19)
(-1.19544 0.931774 -5.52197e-19)
(-1.74349 0.544683 0)
(-2.15097 0.277775 0)
(-2.37959 0.10704 -1.68221e-20)
(-2.42695 0.0065613 -2.02245e-20)
(-2.31417 -0.0451306 0)
(-2.07335 -0.0631806 3.16769e-19)
(-1.73711 -0.0569666 -3.40536e-19)
(-1.33119 -0.031978 -5.08699e-19)
(-0.87237 0.00867246 -3.63226e-20)
(-0.369834 0.0633184 1.20787e-18)
(0.172354 0.13238 -1.31903e-18)
(0.752139 0.217601 -1.46585e-19)
(1.365 0.316004 6.25519e-19)
(2.00568 0.423849 -9.9298e-20)
(2.66778 0.541262 0)
(3.34196 0.66629 0)
(4.0165 0.795853 8.69266e-19)
(4.67812 0.926521 -9.63893e-19)
(5.3127 1.05449 0)
(5.90601 1.17574 1.1282e-19)
(6.44465 1.28626 0)
(6.91689 1.38231 8.7538e-19)
(7.31358 1.46075 -8.54083e-19)
(7.62894 1.51928 2.18257e-19)
(7.86114 1.55675 1.88852e-18)
(8.01254 1.57331 -1.6379e-18)
(8.08954 1.57053 2.06476e-19)
(8.10197 1.5514 0)
(8.06217 1.52007 0)
(7.98399 1.48162 0)
(7.88182 1.44129 -1.652e-18)
(7.77066 1.40526 -1.7825e-19)
(7.66685 1.38464 2.76048e-18)
(-24.7418 7.20811 -4.13671e-17)
(-48.6004 7.187 -5.8731e-17)
(-46.5791 3.45599 6.0027e-17)
(-34.9537 -11.8876 -5.4396e-17)
(-18.979 -24.8002 5.54455e-17)
(3.68954 -40.0675 -1.89596e-19)
(34.7981 -57.5136 -2.06081e-19)
(72.981 -76.1342 0)
(110.85 -92.8438 -3.74211e-19)
(134.116 -101.621 0)
(129.161 -97.5763 -2.41613e-19)
(96.6004 -82.121 8.71297e-18)
(53.8236 -62.56 -9.15147e-18)
(19.7828 -45.8906 -4.34097e-18)
(0.852433 -34.7217 4.82602e-18)
(-6.82857 -28.3249 -1.74143e-18)
(-8.49642 -24.9653 1.50791e-18)
(-7.33277 -23.1042 0)
(-5.2069 -21.7036 0)
(-3.41395 -20.1245 0)
(-2.70252 -18.0682 1.91979e-18)
(-3.16857 -15.5679 -3.66966e-18)
(-4.41211 -12.8943 -2.23132e-19)
(-5.92409 -10.3266 5.30971e-18)
(-7.41672 -8.04323 -2.76043e-18)
(-8.76013 -6.08041 0)
(-9.88174 -4.44669 4.34668e-21)
(-10.7092 -3.13523 0)
(-11.1748 -2.12901 2.85676e-18)
(-11.2569 -1.41016 -2.80808e-18)
(-10.9778 -0.963383 -2.44208e-20)
(-10.4054 -0.7484 0)
(-9.64369 -0.705089 -1.83129e-18)
(-8.8163 -0.775854 3.416e-18)
(-8.0468 -0.912752 -1.62024e-18)
(-7.42567 -1.06963 1.1237e-18)
(-6.99864 -1.21187 -2.07084e-18)
(-6.76636 -1.32128 9.45167e-19)
(-6.69169 -1.39523 0)
(-6.71324 -1.44296 0)
(-6.76177 -1.47977 0)
(-6.7761 -1.51967 -2.71247e-19)
(-6.71563 -1.56773 6.23503e-19)
(-6.56349 -1.6183 -3.39474e-19)
(-6.32173 -1.65842 0)
(-6.00086 -1.67389 -7.75298e-20)
(-5.6114 -1.65511 8.63503e-20)
(-5.16217 -1.59868 2.49426e-19)
(-4.65926 -1.50702 3.82229e-20)
(-4.10881 -1.38659 6.14867e-20)
(-3.5188 -1.24488 5.99307e-20)
(-2.89834 -1.08767 -4.28309e-19)
(-2.25564 -0.918365 0)
(-1.59737 -0.741633 0)
(-0.928768 -0.562479 -6.00468e-19)
(-0.249804 -0.383904 6.56425e-19)
(0.440776 -0.206562 0)
(1.14162 -0.0302204 0)
(1.84972 0.144907 5.71951e-20)
(2.56051 0.318228 9.89194e-20)
(3.26625 0.488727 0)
(3.95756 0.654518 0)
(4.62366 0.812976 -1.21933e-19)
(5.25277 0.961021 -1.22632e-19)
(5.83305 1.09537 1.04837e-18)
(6.35338 1.21284 -1.8563e-18)
(6.80434 1.31063 -1.31959e-19)
(7.179 1.38663 1.85024e-18)
(7.47372 1.4397 -1.95618e-18)
(7.68865 1.46986 1.81651e-18)
(7.82795 1.47838 -3.25174e-19)
(7.89965 1.46777 -8.76884e-19)
(7.91489 1.44163 1.73282e-18)
(7.88688 1.40441 1.95137e-20)
(7.82953 1.36105 -3.2986e-18)
(7.75623 1.31664 1.81026e-18)
(7.67888 1.27602 0)
(7.60756 1.2435 3.79672e-19)
(7.55062 1.22294 0)
(7.51511 1.21442 -1.42252e-18)
(-12.446 6.52341 0)
(-22.3059 12.1951 2.52585e-19)
(-17.7391 12.1299 -2.49265e-19)
(-13.7144 10.926 -9.7266e-17)
(-13.7729 10.0147 1.95725e-16)
(-13.0369 9.07296 -9.84869e-17)
(-9.1021 6.809 2.05588e-19)
(0.0992004 1.66089 0)
(16.6287 -7.88083 0)
(40.3523 -21.8187 0)
(65.8708 -37.0657 2.39888e-19)
(83.3941 -48.4569 -6.54191e-20)
(84.9828 -52.3228 0)
(70.9938 -49.0531 2.31453e-19)
(49.6897 -42.0866 1.28475e-20)
(30.6286 -35.036 4.52433e-17)
(19.0239 -29.8716 -4.53818e-17)
(15.2059 -26.8548 -2.33448e-19)
(16.8874 -25.3362 0)
(20.9533 -24.5106 1.36956e-19)
(24.3917 -23.658 -1.68905e-19)
(25.2528 -22.1291 1.64987e-17)
(23.3507 -19.6836 -3.93885e-18)
(19.7695 -16.699 -1.28845e-17)
(15.6974 -13.7267 -7.9056e-20)
(11.8117 -11.0382 -2.71355e-20)
(8.32817 -8.65121 -2.46049e-18)
(5.27027 -6.51872 2.62296e-18)
(2.62527 -4.6517 -7.0353e-20)
(0.384658 -3.09252 -5.04294e-20)
(-1.45295 -1.86055 -5.75561e-20)
(-2.90191 -0.970751 1.84291e-18)
(-4.01271 -0.420517 -1.86037e-18)
(-4.82863 -0.176908 -1.10889e-19)
(-5.3824 -0.187029 5.43227e-20)
(-5.70049 -0.396138 -4.03047e-20)
(-5.80684 -0.748179 3.38709e-20)
(-5.7284 -1.18697 0)
(-5.4993 -1.65985 -4.23719e-20)
(-5.1612 -2.12147 9.36863e-19)
(-4.76024 -2.53642 -9.5939e-19)
(-4.34078 -2.88013 0)