/*--------------------------------*- C++ -*----------------------------------*\
| =========                 |                                                 |
| \\      /  F ield         | OpenFOAM: The Open Source CFD Toolbox           |
|  \\    /   O peration     | Version:  2012                                  |
|   \\  /    A nd           | Website:  www.openfoam.com                      |
|    \\/     M anipulation  |                                                 |
\*---------------------------------------------------------------------------*/
FoamFile
{
    version     2.0;
    format      ascii;
    class       volScalarField;
    location    "0.65";
    object      p;
}
// * * * * * * * * * * * * * * * * * * * * * * * * * * * * * * * * * * * * * //

dimensions      [0 2 -2 0 0 0 0];


internalField   nonuniform List<scalar> 
42400
(
9599.33
9411.07
9168.33
8828.33
8353.28
7780.38
7138.54
6461.34
5785.82
5147.14
4571.05
4067.31
3631.11
3246.89
2901.67
2586.4
2295.78
2026.66
1776.88
1544.75
1328.9
1128.08
941.618
769.658
612.798
472.148
349.008
243.87
154.045
75.6899
10.6792
-35.6529
-66.8098
-92.2235
-115.843
-133.855
-143.979
-147.75
-147.804
-146.154
-143.973
-141.849
-140.046
-138.654
-137.667
-137.027
-136.655
-136.472
-136.41
-136.411
-136.42
-136.382
-136.244
-135.963
-135.509
-134.871
-134.052
-133.062
-131.916
-130.624
-129.194
-127.629
-125.924
-124.075
-122.072
-119.906
-117.573
-115.069
-112.394
-109.552
-106.552
-103.405
-100.123
-96.7165
-93.1906
-89.5428
-85.7572
-81.7969
-77.5931
-73.0118
-8363.85
-8223.86
-8029.6
-7763.38
-7408.58
-6989.6
-6519.25
-6009.05
-5469.13
-4910.2
-4345.74
-3792.04
-3267.63
-2787.31
-2359.64
-1985.95
-1662.83
-1385.85
-1150.73
-952.209
-783.983
-639.916
-515.388
-408.082
-317.716
-244.223
-185.811
-141.347
-109.264
-88.1457
-76.5919
-72.6846
-74.5275
-80.8537
-90.4768
-101.648
-112.366
-121.084
-127.087
-130.401
-131.495
-130.994
-129.508
-127.554
-125.522
-123.686
-122.208
-121.164
-120.559
-120.346
-120.439
-120.738
-121.141
-121.56
-121.921
-122.173
-122.277
-122.208
-121.947
-121.48
-120.797
-119.887
-118.744
-117.367
-115.75
-113.895
-111.806
-109.493
-106.97
-104.253
-101.364
-98.3219
-95.148
-91.8585
-88.4654
-84.9761
-81.3925
-77.7134
-73.9381
-70.0516
-1280.77
-1143.8
-944.96
-708.197
-415.237
-113.097
180.943
453.323
690.34
876.534
993.777
1022.16
946.835
770.061
521.864
249.996
-9.79247
-249.899
-476.223
-688.228
-877.027
-1033.17
-1150.26
-1223.69
-1249.76
-1227.82
-1163.62
-1067.65
-952.811
-830.448
-708.852
-593.833
-489.725
-399.712
-325.37
-266.387
-221.034
-187.008
-162.03
-144.098
-131.53
-122.953
-117.277
-113.668
-111.505
-110.343
-109.863
-109.799
-110.072
-110.533
-111.109
-111.748
-112.413
-113.074
-113.699
-114.256
-114.708
-115.017
-115.142
-115.048
-114.708
-114.1
-113.21
-112.029
-110.564
-108.821
-106.815
-104.567
-102.099
-99.4401
-96.6161
-93.6522
-90.5698
-87.3866
-84.1161
-80.7693
-77.3561
-73.8875
-70.3694
-66.8357
7521.14
7355.87
7144
6848.98
6441.81
5955.54
5408.92
4814.5
4179.05
3504.55
2792.58
2047.23
1291.2
597.306
80.8204
-189.537
-264.06
-253.606
-222.992
-180.976
-129.563
-81.2886
-47.9338
-34.0765
-37.5935
-52.5417
-71.7523
-88.8527
-99.6057
-102.203
-97.0913
-86.4083
-73.1568
-60.2805
-49.9241
-43.1357
-40.005
-40.0154
-42.4065
-46.4257
-51.4541
-57.0326
-62.8317
-68.6115
-74.193
-79.444
-84.2752
-88.6367
-92.5162
-95.9289
-98.9087
-101.497
-103.734
-105.653
-107.275
-108.611
-109.659
-110.411
-110.856
-110.983
-110.785
-110.259
-109.406
-108.235
-106.758
-104.993
-102.962
-100.69
-98.2038
-95.5311
-92.6972
-89.725
-86.635
-83.4459
-80.1756
-76.8421
-73.4646
-70.0611
-66.653
-63.3086
-8173.81
-7541.42
-6696.61
-5804.47
-4863.86
-3990.9
-3194.29
-2481.01
-1865.02
-1358.89
-967.09
-686.419
-503.244
-387.738
-299.371
-208.349
-110.564
-15.5775
72.594
156.835
236.99
309.249
370.962
421.632
460.384
485.433
494.992
488.351
466.539
432.045
388.252
338.764
286.881
235.335
186.26
141.141
100.814
65.6853
35.6205
10.2792
-10.8119
-28.2329
-42.5903
-54.4481
-64.2866
-72.4922
-79.3663
-85.1439
-90.0112
-94.1194
-97.5908
-100.522
-102.987
-105.037
-106.709
-108.023
-108.991
-109.622
-109.921
-109.894
-109.547
-108.886
-107.919
-106.652
-105.091
-103.246
-101.129
-98.7507
-96.1287
-93.2815
-90.2319
-87.0074
-83.6403
-80.1661
-76.6217
-73.0431
-69.4634
-65.9104
-62.4269
-59.0507
4946.93
4817.6
4661.02
4461.63
4214.4
3943.62
3670.17
3407.73
3159.75
2923.63
2696.62
2478.84
2272.38
2078.49
1895.67
1719.81
1546.92
1375.87
1209.21
1051.23
905.357
773.478
656.84
556.472
472.645
404.16
348.268
301.352
259.986
221.647
184.951
149.529
115.674
83.8827
54.6607
28.3852
5.26916
-14.7527
-31.7731
-46.0795
-58.0512
-68.0441
-76.3687
-83.2885
-89.0245
-93.7632
-97.6637
-100.864
-103.482
-105.619
-107.356
-108.76
-109.877
-110.741
-111.375
-111.791
-112.001
-112.008
-111.816
-111.422
-110.818
-109.994
-108.932
-107.609
-106.001
-104.083
-101.829
-99.222
-96.257
-92.9474
-89.3293
-85.4613
-81.4184
-77.2829
-73.1338
-69.0381
-65.0463
-61.1943
-57.522
-54.0289
5247.63
5084.54
4830.98
4473.64
4045.37
3633.14
3265.09
2917.46
2554.61
2157.11
1724.15
1266.71
802.16
353.085
-56.669
-408.489
-694.032
-914.135
-1075.14
-1185.76
-1254.97
-1290.41
-1297.59
-1280.46
-1242.22
-1186.02
-1115.08
-1032.87
-943.092
-849.429
-755.428
-664.244
-578.527
-500.265
-430.795
-370.723
-319.972
-277.956
-243.767
-216.335
-194.564
-177.422
-163.994
-153.502
-145.309
-138.902
-133.876
-129.916
-126.78
-124.281
-122.277
-120.656
-119.332
-118.237
-117.316
-116.524
-115.824
-115.181
-114.561
-113.924
-113.224
-112.408
-111.425
-110.199
-108.652
-106.702
-104.271
-101.298
-97.7595
-93.6761
-89.1239
-84.2267
-79.1398
-74.0242
-69.0215
-64.2367
-59.733
-55.5387
-51.6648
-48.0781
-16722
-16003.9
-15094.9
-14176.9
-13196.9
-12246.7
-11301.9
-10356.8
-9429.23
-8537.93
-7692.73
-6897.3
-6152.33
-5456.97
-4808.74
-4205.11
-3645.75
-3133.07
-2670.77
-2261.64
-1905.99
-1601.45
-1344.22
-1129.55
-952.419
-807.464
-689.675
-594.382
-517.313
-454.574
-403.231
-361.181
-326.812
-298.814
-276.01
-257.227
-241.367
-227.532
-215.091
-203.667
-193.067
-183.227
-174.139
-165.819
-158.276
-151.508
-145.497
-140.21
-135.603
-131.622
-128.214
-125.32
-122.887
-120.86
-119.19
-117.828
-116.726
-115.837
-115.106
-114.472
-113.86
-113.186
-112.355
-111.254
-109.753
-107.721
-105.031
-101.592
-97.3673
-92.3997
-86.8177
-80.8264
-74.6764
-68.6185
-62.8588
-57.5318
-52.6963
-48.3528
-44.4665
-40.9724
1449.48
1502.93
1550.82
1473.31
1247.43
881.99
504.67
208.998
-5.8818
-179.814
-331.989
-456.937
-541.793
-580.371
-577.071
-543.233
-490.406
-426.768
-357.41
-286.413
-217.998
-156.375
-105.253
-67.0832
-43.2064
-34.7309
-42.3388
-65.2055
-99.7629
-139.239
-175.74
-203.681
-221.422
-230.255
-232.625
-230.457
-225.099
-217.589
-208.75
-199.227
-189.53
-180.02
-170.961
-162.519
-154.797
-147.846
-141.672
-136.25
-131.535
-127.47
-123.993
-121.038
-118.543
-116.447
-114.693
-113.229
-112.002
-110.965
-110.069
-109.25
-108.431
-107.539
-106.479
-105.133
-103.355
-100.999
-97.9327
-94.0578
-89.343
-83.8477
-77.7351
-71.2605
-64.7319
-58.4488
-52.6416
-47.4382
-42.8672
-38.8872
-35.4205
-32.3773
10627.2
10544.4
10335.9
9879.16
9154.94
8254.17
7311.95
6442.31
5691.3
5052.37
4504.94
4036.2
3643.67
3327.88
3084.21
2898.22
2747.06
2607.73
2466.03
2316.59
2155.78
1974.95
1762.82
1514.46
1235.4
939.963
648.036
382.532
165.03
8.76925
-86.1833
-132.62
-148.976
-150.695
-146.608
-140.732
-134.697
-129.176
-124.504
-120.747
-117.753
-115.372
-113.479
-111.955
-110.694
-109.591
-108.565
-107.56
-106.536
-105.474
-104.368
-103.223
-102.053
-100.871
-99.6887
-98.5025
-97.2904
-96.0155
-94.8362
-93.6975
-92.42
-90.9702
-89.2989
-87.3295
-84.9688
-82.1184
-78.6894
-74.6236
-69.9196
-64.6561
-59.0025
-53.2057
-47.5493
-42.2901
-37.6005
-33.5438
-30.0907
-27.158
-24.6448
-22.4588
-1078.62
-829.331
-473.01
-31.0831
519.786
1101.24
1650.98
2120.02
2490.22
2770.09
2972.93
3103.75
3160.83
3142.8
3052.35
2897.3
2690.92
2451.18
2197.15
1946.14
1710.54
1496.85
1307.64
1142.75
1000.26
878.317
775.731
689.989
615.431
544.143
469.45
389.221
306.123
225.068
151.319
88.3351
37.4703
-1.6207
-30.2616
-50.2082
-63.3594
-71.4212
-75.8237
-77.7858
-78.3241
-78.1377
-77.7256
-77.4061
-77.3306
-77.533
-77.9645
-78.5204
-79.0678
-79.4708
-79.6131
-79.4111
-78.7737
-77.3662
-75.4499
-73.1264
-70.5308
-67.671
-64.5754
-61.2831
-57.8117
-54.1583
-50.3129
-46.277
-42.0815
-37.8022
-33.5646
-29.5293
-25.8576
-22.6682
-20.0038
-17.8282
-16.0522
-14.5707
-13.2907
-12.1441
-2236.1
-2443.72
-2719.24
-3015.38
-3336.65
-3590.07
-3740.27
-3785.01
-3741.07
-3629.19
-3466.93
-3270.79
-3057.51
-2842.64
-2637.22
-2447
-2273.18
-2113.95
-1966.43
-1827.52
-1694.52
-1565.66
-1439.91
-1316.71
-1195.45
-1075.43
-956.514
-839.496
-726.401
-619.868
-522.108
-434.38
-357.193
-290.591
-234.161
-187.184
-148.87
-118.32
-94.5957
-76.8364
-64.1552
-55.6293
-50.2873
-47.2366
-45.4632
-44.5494
-44.3274
-44.3348
-44.261
-43.9363
-43.2624
-42.2061
-40.7866
-39.0613
-37.1183
-35.0433
-32.8981
-30.8359
-28.716
-26.6422
-24.6456
-22.7063
-20.8101
-18.9435
-17.0912
-15.2414
-13.3944
-11.5701
-9.81117
-8.17848
-6.74077
-5.55812
-4.66352
-4.04781
-3.65761
-3.41122
-3.22489
-3.03437
-2.80225
-2.51204
-2119.56
-2144.11
-2196.3
-2267.75
-2383.56
-2517.9
-2660.54
-2803.24
-2939.4
-3064.99
-3176.76
-3272.87
-3352.33
-3413.65
-3453.89
-3468.57
-3453.12
-3405.35
-3326.92
-3222.24
-3095.42
-2949.04
-2785.59
-2607.71
-2417.14
-2214.08
-1998.77
-1773.3
-1543.31
-1316.74
-1101.64
-904.872
-731.315
-583.355
-460.896
-361.55
-282.265
-219.892
-171.419
-134.127
-105.638
-83.918
-67.2709
-54.3803
-44.4633
-36.4786
-29.4282
-22.9084
-16.7067
-10.7568
-5.08427
0.238321
5.09537
9.36015
12.9363
15.7574
17.662
18.6917
19.0946
19.0125
18.5459
17.8212
16.9606
16.0595
15.1824
14.3652
13.6198
12.9375
12.294
11.6572
11
10.3098
9.592
8.86692
8.16527
7.52284
6.97271
6.53703
6.22397
6.03233
-5535.1
-5344.11
-5102.98
-4822.44
-4518.91
-4222.36
-3935.88
-3643.32
-3319.43
-2944.64
-2514.05
-2037.76
-1535.82
-1031.16
-543.772
-88.2064
325.043
685.497
981.195
1201.37
1341.35
1404.46
1401.14
1346.42
1256.52
1145.84
1025.65
903.409
784.017
670.747
565.667
470.01
384.549
309.879
246.409
193.65
150.803
116.793
90.3632
70.2412
55.2575
44.3986
36.8169
31.8183
28.8396
27.444
27.2991
28.1125
29.6163
31.5649
33.7355
35.9423
38.0059
39.7741
41.1319
42.0197
42.5598
42.5546
42.0336
41.0654
39.7229
38.0922
36.2662
34.3365
32.3844
30.4736
28.6461
26.9221
25.3035
23.7808
22.3408
20.9732
19.6763
18.4602
17.3436
16.3472
15.4858
14.7642
14.1778
13.7211
6403.07
6211.89
5966.66
5681.5
5322.26
4963.23
4640.59
4371.81
4159.23
3993.5
3860.35
3745.47
3637.47
3527.8
3410.11
3278.93
3128.26
2952.16
2747.87
2519.17
2276.48
2033.84
1804.9
1599.29
1420.06
1264.99
1129.84
1010.61
904.278
808.583
721.77
642.576
570.235
504.364
444.808
391.47
344.198
302.697
266.51
235.082
207.845
184.271
163.91
146.378
131.352
118.55
107.722
98.6274
91.0344
84.7148
79.4469
75.0195
71.2356
67.918
64.916
62.1112
59.4221
56.7924
54.1997
51.6472
49.1507
46.7291
44.3977
42.166
40.0388
38.0185
36.1061
34.3011
32.6013
31.0043
29.5077
28.1108
26.8143
25.6202
24.5309
23.5485
22.6729
21.902
21.2296
20.6565
8623.32
8473.23
8295.78
8128.91
7961.48
7846.92
7743.13
7585.64
7331.98
6969.78
6510.82
5982.47
5415.21
4836.45
4268.45
3729.08
3230.94
2780.04
2378.65
2026.47
1722.24
1464.09
1248.9
1072.17
928.381
811.506
715.577
635.642
568.412
512.1
465.816
429.037
401.134
380.846
365.961
353.358
340.052
324.522
306.408
286.212
264.797
243.002
221.813
201.829
183.395
166.683
151.737
138.508
126.884
116.713
107.825
100.046
93.2047
87.1452
81.7272
76.8315
72.3598
68.2359
64.4045
60.8291
57.4888
54.3734
51.4789
48.8035
46.3447
44.0966
42.049
40.1874
38.4939
36.9491
35.534
34.2325
33.0318
31.9229
30.8998
29.9588
29.097
28.3118
27.5978
26.9583
4583.47
4477.8
4270.86
3892.06
3309.05
2638.09
1982.68
1404.95
917.64
499.639
123.9
-222.768
-537.097
-806.226
-1015.23
-1152.49
-1215.12
-1210.13
-1149.57
-1045.78
-909.584
-750.719
-578.919
-404.255
-236.911
-86.5061
39.1982
136.009
204.345
248.125
272.473
282.512
283.199
278.771
271.897
263.791
254.746
244.468
232.955
220.545
207.766
195.172
182.891
171.108
159.97
149.557
139.896
130.974
122.757
115.195
108.23
101.805
95.8634
90.3521
85.2257
80.4455
75.9806
71.8072
67.9086
64.2741
60.8974
57.7752
54.906
52.2876
49.9164
47.7855
45.8839
44.1957
42.7003
41.3731
40.187
39.1151
38.1328
37.22
36.3621
35.5498
34.7782
34.0453
33.3484
32.6938
-17524.6
-17032.1
-16441.8
-15797.4
-15089.4
-14280.9
-13322.4
-12222.8
-11042.4
-9843.27
-8652.41
-7460.93
-6248.42
-5009.35
-3766.31
-2568.31
-1482.35
-577.227
102.279
552.53
806.571
914.054
923.994
875.478
797.14
709.602
626.587
553.899
490.525
433.401
381.037
333.755
292.414
257.418
228.48
204.845
185.621
169.967
157.205
146.775
138.218
131.141
125.202
120.11
115.628
111.564
107.774
104.15
100.621
97.1418
93.6886
90.2535
86.8394
83.4556
80.1151
76.8332
73.6259
70.5096
67.5009
64.6166
61.8733
59.2876
56.8752
54.6503
52.624
50.8034
49.189
47.7738
46.542
45.4696
44.5261
43.6785
42.8955
42.1511
41.4276
40.7152
40.0108
39.3156
38.6305
37.9635
7654.31
7541.26
7378.36
7125.02
6773.56
6409.38
6067.6
5747.19
5422.78
5060.01
4639.9
4172.82
3694.12
3243.48
2841.46
2487.95
2174.8
1886.15
1597.6
1290.49
965.531
644.285
351.604
105.577
-84.0651
-213.357
-282.732
-300.268
-283.472
-252.479
-220.869
-193.239
-168.985
-146.32
-123.99
-101.496
-78.889
-56.5978
-35.2374
-15.4063
2.43497
18.005
31.2015
42.0731
50.7778
57.5415
62.6222
66.2825
68.7707
70.3092
71.0901
71.2743
70.9905
70.344
69.4175
68.2765
66.9735
65.5515
64.047
62.4922
60.9165
59.3476
57.812
56.3342
54.9367
53.6377
52.4504
51.3803
50.4246
49.5715
48.8019
48.0924
47.4193
46.7624
46.1075
45.4475
44.7811
44.1103
43.4371
42.7679
7384.29
7674.64
8131.23
8630.82
9137.55
9474.36
9586.9
9487.28
9223.23
8847.19
8398.69
7903.73
7377.11
6821
6226.27
5583.59
4897.98
4191.24
3498.52
2851.61
2268.15
1749.29
1291.51
893.942
558.167
284.944
73.31
-79.483
-178.623
-232.521
-251.463
-245.528
-223.429
-192.315
-157.328
-122.18
-89.3289
-60.2134
-35.5265
-15.389
0.520237
12.8047
22.1829
29.3563
34.9277
39.3679
43.016
46.0978
48.7529
51.0601
53.0605
54.7741
56.2112
57.3792
58.2866
58.944
59.3651
59.5659
59.5654
59.3846
59.0467
58.5766
58.001
57.3475
56.6441
55.9175
55.192
54.4869
53.8149
53.1807
52.5806
52.005
51.4403
50.8735
50.2945
49.6981
49.0834
48.453
47.8089
47.1553
-11237.9
-10937.7
-10607.4
-10279.7
-9995.56
-9737.68
-9437.12
-9009.47
-8398.05
-7592.78
-6606.9
-5512.83
-4524.18
-3854.97
-3500.62
-3320.69
-3234.14
-3220.36
-3252.37
-3291.3
-3300.82
-3255.87
-3146.39
-2978
-2766.51
-2530.48
-2282.7
-2027.63
-1765.42
-1498.15
-1233.3
-982.902
-759.222
-570.013
-417.537
-299.601
-211.442
-147.294
-101.467
-69.237
-46.8144
-31.3116
-20.6226
-13.2645
-8.21324
-4.76763
-2.44683
-0.919357
0.0454057
0.611066
0.897074
0.993226
0.96818
0.873921
0.747987
0.616997
0.498716
0.404134
0.339204
0.306177
0.304693
0.332558
0.38634
0.461788
0.554171
0.658559
0.770003
0.883632
0.994833
1.09932
1.19313
1.27272
1.33498
1.37716
1.39705
1.39317
1.36353
1.30772
1.22561
1.11002
-434.849
-433.871
-531.209
-771.264
-1133.54
-1398.62
-1439.24
-1270.53
-985.008
-663.607
-355.838
-112.331
1.55228
-38.3904
-171.841
-306.569
-387.946
-405.591
-370.812
-303.015
-224.921
-157.077
-113.419
-98.7045
-111.523
-143.563
-181.573
-209.939
-214.398
-188.979
-141.817
-90.1892
-46.673
-15.499
5.17576
18.0072
24.8111
26.9519
25.683
22.3718
18.1212
13.7106
9.62201
6.09102
3.18046
0.844878
-1.01228
-2.50533
-3.73772
-4.78775
-5.70639
-6.52098
-7.2355
-7.8448
-8.36868
-8.80857
-9.16721
-9.44968
-9.6611
-9.80616
-9.88961
-9.91561
-9.88869
-9.81365
-9.6956
-9.54003
-9.35283
-9.14121
-8.91085
-8.6666
-8.41424
-8.15925
-7.90662
-7.66099
-7.42676
-7.20828
-7.00842
-6.82832
-6.67023
-6.54076
13972.1
13560
12957.7
12091.4
10887.3
9681.58
8675.25
7878.81
7198.49
6547.58
5900.48
5296.24
4783.33
4356.3
3976.41
3624.83
3305.31
3017.3
2756.42
2520.05
2307.76
2119.66
1952.69
1799.58
1650.95
1498.84
1338.75
1169.49
992.33
811.638
635.739
474.873
337.125
225.892
140.301
77.0906
32.2576
1.91073
-17.4214
-28.657
-34.1297
-35.682
-34.7707
-32.5574
-29.8154
-27.0241
-24.5143
-22.4865
-21.0315
-20.1481
-19.7601
-19.7447
-19.9735
-20.3332
-20.7121
-21.0506
-21.3171
-21.5062
-21.6233
-21.6622
-21.6298
-21.5224
-21.3496
-21.1186
-20.8351
-20.5057
-20.1366
-19.7326
-19.2999
-18.8451
-18.3733
-17.8895
-17.3988
-16.9062
-16.4168
-15.9358
-15.4681
-15.0163
-14.5854
-14.1821
1898.55
2209.74
2621.89
2978.51
3215.58
3264.76
3174.96
2991.92
2716.27
2320.45
1812.55
1297.05
913.743
690.746
544.676
414.888
307.401
241.477
217.647
223.43
243.435
265.474
281.91
288.668
284.592
270.136
246.298
215.328
180.415
144.713
111.021
81.412
56.9634
37.7261
22.9192
11.2888
1.54035
-7.30297
-15.7163
-23.7285
-31.1954
-37.803
-43.1235
-46.7174
-48.7823
-49.6032
-49.466
-48.6289
-47.3181
-45.7304
-44.0356
-42.3682
-40.8212
-39.4491
-38.2758
-37.2838
-36.4581
-35.7647
-35.1676
-34.6484
-34.1768
-33.735
-33.2964
-32.8423
-32.3599
-31.8422
-31.2853
-30.6878
-30.0514
-29.3791
-28.6754
-27.9455
-27.1949
-26.4296
-25.6562
-24.8816
-24.113
-23.3557
-22.6175
-21.9008
-14459.8
-14035.7
-13528.6
-13035.3
-12501.9
-11949.2
-11342.5
-10664.4
-9931.02
-9193.02
-8503.68
-7863.17
-7199.86
-6422.71
-5490.89
-4442.47
-3403.55
-2515.94
-1844.85
-1362.44
-1016.26
-775.309
-622.748
-540.495
-508.315
-508.096
-524.87
-547.156
-565.662
-574.096
-568.75
-548.005
-512.386
-464.619
-409.334
-352.236
-298.754
-252.639
-215.238
-185.843
-162.683
-143.652
-127.38
-113.197
-100.459
-89.2931
-79.9293
-72.2206
-66.189
-61.6045
-58.1787
-55.5837
-53.4873
-51.7665
-50.3561
-49.227
-48.3343
-47.6293
-47.0603
-46.577
-46.1359
-45.7008
-45.2424
-44.738
-44.172
-43.5358
-42.8268
-42.0471
-41.202
-40.2984
-39.3437
-38.3452
-37.3102
-36.2463
-35.1616
-34.0648
-32.9657
-31.8723
-30.7961
-29.7342
1023.68
1044.47
1084.65
1141.99
1204.77
1284.16
1399.53
1567.09
1791.52
2061.71
2346.56
2600.29
2772.29
2816.56
2701.5
2431.63
2059.24
1661.75
1303.66
1013.78
789.111
612.605
468.653
347.628
243.834
153.976
75.9767
8.511
-49.3427
-96.8866
-133.246
-158.052
-171.364
-173.822
-166.926
-153.379
-136.938
-121.402
-109.335
-101.527
-97.4729
-96.179
-96.6589
-98.0324
-99.4045
-99.6869
-98.1949
-94.6138
-89.627
-83.8444
-77.9408
-72.513
-68.032
-64.6263
-62.23
-60.6599
-59.6886
-59.1036
-58.7295
-58.4392
-58.1517
-57.816
-57.3958
-56.8675
-56.2209
-55.4564
-54.5811
-53.6051
-52.5394
-51.3945
-50.1798
-48.904
-47.5752
-46.2019
-44.7933
-43.3598
-41.9134
-40.4641
-39.0262
-37.5989
11751.7
11541.9
11264.8
10843.5
10250.8
9562.78
8842.04
8123.16
7415.66
6717.38
6021.98
5321.76
4609.63
3884.62
3166.46
2501.27
1941.19
1514.81
1217.96
1025.12
903.299
823.228
764.186
712.714
661.394
607.906
552.073
497.086
445.588
397.184
349.308
299.435
246.348
190.793
135.543
84.2795
40.0778
4.47846
-22.5756
-42.2333
-56.0806
-65.6597
-72.2306
-76.7019
-79.637
-81.3112
-81.9701
-81.9079
-80.8423
-78.8382
-76.6538
-74.6212
-72.926
-71.6553
-70.7894
-70.2461
-69.9246
-69.8042
-69.7474
-69.6795
-69.5517
-69.3342
-69.0351
-68.5644
-67.9193
-67.1088
-66.1422
-65.0327
-63.7947
-62.4427
-60.9898
-59.448
-57.8284
-56.1423
-54.4019
-52.6207
-50.8136
-48.993
-47.175
-45.3697
-11066.1
-10747.6
-10365
-9914.33
-9307.63
-8535.17
-7634.72
-6704.48
-5836.74
-5077.22
-4437.69
-3918.07
-3513.27
-3210.98
-2986.09
-2801.96
-2624.21
-2432.33
-2219.9
-1991.88
-1760.5
-1538.09
-1332.93
-1146.02
-970.69
-800.075
-632.587
-475.351
-337.784
-225.725
-139.986
-78.1879
-36.7139
-11.039
3.78504
12.2337
17.2661
20.0443
20.5949
18.6655
14.2138
7.50332
-0.988473
-10.6892
-21.0125
-31.3966
-41.3173
-50.3314
-58.1733
-64.9698
-70.4407
-74.7429
-78.0898
-80.6226
-82.4815
-83.7842
-84.6381
-85.0584
-85.171
-85.0359
-84.6864
-84.1286
-83.3353
-82.3866
-81.2866
-80.0395
-78.6541
-77.1407
-75.5109
-73.7759
-71.9452
-70.0272
-68.0301
-65.9638
-63.8399
-61.6728
-59.479
-57.2725
-55.0695
-52.8892
5394.39
5345.05
5259.92
5098.14
4865.71
4603.75
4368.93
4202
4106.4
4053.6
3998.04
3893.5
3711.03
3449.94
3131.65
2781.36
2418.21
2056.18
1705.5
1373.07
1061.41
768.308
491.577
233.808
6.26561
-173.483
-289.5
-340.03
-339.213
-308.254
-265.201
-221.179
-181.7
-148.603
-121.855
-100.544
-83.8538
-71.3775
-62.8186
-57.7985
-55.8357
-56.4004
-58.9659
-63.0221
-68.0416
-73.5082
-79.1505
-84.8096
-89.9154
-94.1476
-97.4135
-99.7732
-101.375
-102.408
-102.992
-103.226
-103.26
-103.002
-102.472
-101.698
-100.703
-99.5056
-98.1252
-96.5854
-94.9044
-93.0894
-91.1649
-89.1428
-87.0309
-84.835
-82.5587
-80.2062
-77.7832
-75.2989
-72.7658
-70.1998
-67.6193
-65.0403
-62.4793
-59.9565
3571.74
3604.33
3674.34
3756.38
3879.92
4014.64
4156.68
4295.07
4417.32
4518.72
4601.26
4667.99
4719.98
4752.06
4750.19
4697
4582.67
4405.07
4166.37
3871.36
3529.27
3155.49
2768.24
2384.55
2014.96
1665.23
1338.85
1041.97
780.485
557.517
372.886
223.683
105.078
11.7073
-61.0852
-117.021
-159.245
-190.529
-213.169
-228.879
-238.87
-244.022
-245.054
-242.653
-237.312
-229.053
-218.771
-207.028
-194.789
-182.909
-171.932
-162.199
-153.901
-147.048
-141.522
-136.958
-132.741
-129.073
-125.773
-122.69
-119.752
-116.917
-114.156
-111.446
-108.77
-106.119
-103.447
-100.765
-98.0564
-95.3108
-92.5201
-89.6812
-86.7968
-83.8755
-80.9304
-77.978
-75.0364
-72.1212
-69.2481
-66.4322
-5207.77
-5215.63
-5183.41
-5112.15
-5016.94
-4980.43
-5044.51
-5210.69
-5429.74
-5636.84
-5793.9
-5890.23
-5916.12
-5845.68
-5651.83
-5323.47
-4864.18
-4288.47
-3629.99
-2941.59
-2280.36
-1690.65
-1195.69
-799.531
-494.831
-269.821
-111.135
-8.10098
48.8831
69.0834
61.7465
35.7518
-1.63869
-45.4838
-92.5684
-140.108
-185.202
-225.195
-258.142
-282.987
-299.493
-308.056
-309.514
-305.033
-295.774
-283.135
-267.711
-250.577
-233.043
-216.222
-200.964
-187.763
-176.773
-167.887
-160.729
-154.929
-150.307
-146.218
-142.427
-138.806
-135.273
-131.791
-128.344
-124.929
-121.545
-118.186
-114.865
-111.551
-108.237
-104.917
-101.585
-98.2407
-94.8891
-91.5399
-88.2061
-84.902
-81.6416
-78.4362
-75.2995
-72.2337
-9238.06
-8052.05
-6669.2
-5559.5
-4581.74
-3726.25
-2976.59
-2352.74
-1853.14
-1470.93
-1206.83
-1063.01
-1014.82
-1018.36
-1055.78
-1133.12
-1240.68
-1354.32
-1457.21
-1542.17
-1605.54
-1645.17
-1659.57
-1648.44
-1613.88
-1559.72
-1490.3
-1409.37
-1319.78
-1223.96
-1124.49
-1024.15
-926.363
-833.627
-747.819
-670.366
-602.079
-543.051
-492.775
-450.372
-414.765
-384.802
-359.353
-337.403
-318.096
-300.757
-284.899
-270.223
-256.56
-243.83
-232.002
-221.06
-210.979
-201.715
-193.197
-185.342
-178.073
-171.312
-164.999
-159.085
-153.526
-148.281
-143.313
-138.587
-134.068
-129.722
-125.518
-121.427
-117.42
-113.479
-109.591
-105.751
-101.96
-98.2219
-94.5444
-90.9344
-87.3982
-83.9404
-80.5722
-77.2758
12452.1
12111.9
11434.4
10257.9
8708.8
7231.68
6004.97
4993.42
4146.45
3438.59
2856.11
2399.01
2056.82
1783.91
1513.6
1221.46
933.14
672.769
436.66
212.384
-3.56125
-204.279
-375.548
-506.141
-601.165
-676.71
-744.183
-806.95
-863.828
-910.369
-941.268
-954.17
-948.683
-926.453
-891.16
-847.009
-797.593
-745.698
-693.337
-641.879
-592.269
-545.185
-501.145
-460.539
-423.631
-390.534
-361.197
-335.404
-312.804
-292.972
-275.463
-259.878
-245.885
-233.227
-221.705
-211.163
-201.474
-192.535
-184.26
-176.577
-169.425
-162.748
-156.496
-150.618
-145.069
-139.803
-134.776
-129.951
-125.295
-120.782
-116.395
-112.123
-107.958
-103.897
-99.9363
-96.0717
-92.2994
-88.6159
-85.0282
-81.5037
-3839.77
-3618.35
-3333.36
-2996.41
-2566.97
-2022.5
-1428.1
-870.187
-388.822
2.82962
303.821
524.215
668.654
717.672
656.223
514.212
344.182
176.56
21.8268
-113.381
-232.764
-351.677
-484.53
-632.63
-780.408
-904.12
-990.34
-1043.61
-1074.72
-1089.24
-1088.98
-1075.65
-1049.91
-1011.48
-961.341
-902.353
-838.474
-773.625
-710.881
-652.198
-598.556
-550.259
-507.201
-469.049
-435.343
-405.553
-379.134
-355.567
-334.385
-315.193
-297.671
-281.575
-266.72
-252.972
-240.23
-228.412
-217.443
-207.256
-197.787
-188.976
-180.768
-173.115
-165.968
-159.279
-153.001
-147.086
-141.488
-136.164
-131.079
-126.203
-121.512
-116.986
-112.609
-108.365
-104.237
-100.212
-96.2742
-92.414
-88.635
-84.9071
-2548.42
-2601.77
-2687.39
-2795.14
-2902.26
-2925.32
-2852.11
-2728.81
-2622.58
-2594.85
-2683.13
-2891.23
-3188.02
-3507.48
-3765.9
-3912.21
-3953.08
-3913.96
-3799.99
-3607.2
-3357.96
-3103.86
-2881.17
-2670.78
-2404.24
-2067.05
-1727.67
-1464.28
-1279.4
-1137.78
-1017.85
-913.059
-820.804
-739.536
-668.532
-607.643
-556.705
-515.072
-481.795
-455.243
-433.649
-415.388
-399.117
-383.878
-369.094
-354.495
-340.017
-325.714
-311.688
-298.036
-284.839
-272.148
-259.997
-248.402
-237.371
-226.903
-216.991
-207.624
-198.789
-190.467
-182.639
-175.277
-168.353
-161.831
-155.675
-149.847
-144.312
-139.036
-133.992
-129.153
-124.497
-120.003
-115.649
-111.413
-107.274
-103.212
-99.2087
-95.2506
-91.3403
-87.4624
-9668.67
-9391.01
-9020.46
-8519.97
-7846.9
-7025.97
-6098.88
-5120.65
-4152.41
-3261.68
-2507.74
-1918.96
-1494.4
-1225.81
-1107.38
-1127.12
-1260.17
-1472.22
-1725.58
-1985.35
-2227.83
-2432.4
-2552.42
-2538.92
-2407.79
-2212.27
-1978.37
-1725.15
-1476.44
-1243.25
-1028.07
-835.828
-672.125
-539.455
-437.023
-361.725
-309.435
-275.854
-256.817
-247.976
-245.946
-248.485
-253.231
-258.343
-262.602
-265.283
-266.06
-264.896
-261.942
-257.458
-251.748
-245.12
-237.859
-230.209
-222.373
-214.51
-206.743
-199.159
-191.822
-184.772
-178.032
-171.609
-165.497
-159.682
-154.142
-148.854
-143.793
-138.938
-134.265
-129.755
-125.386
-121.137
-116.987
-112.914
-108.893
-104.906
-100.933
-96.9598
-92.9837
-89.0072
12666.1
12341.1
11915.7
11345.1
10589.5
9776.86
8977.31
8200.88
7414.32
6593.07
5752.83
4932.87
4165.41
3464.54
2832.73
2268.39
1770.3
1338.82
974.387
677.164
447.538
288.823
200.751
152.733
89.8317
-8.85954
-117.106
-204.92
-260.803
-287.36
-293.402
-287.765
-276.934
-264.923
-254.248
-246.217
-241.165
-238.761
-238.405
-240.042
-242.501
-244.572
-245.871
-246.091
-245.067
-242.85
-239.628
-235.642
-231.117
-226.23
-221.103
-215.819
-210.433
-204.987
-199.516
-194.051
-188.622
-183.257
-177.98
-172.815
-167.776
-162.875
-158.113
-153.488
-148.994
-144.623
-140.366
-136.211
-132.146
-128.159
-124.236
-120.361
-116.519
-112.693
-108.867
-105.022
-101.145
-97.2204
-93.2358
-89.2022
-1065.05
-664.171
-186.541
235.191
652.475
1027.92
1386.3
1720.23
1998.72
2203.95
2335.64
2402.4
2413.6
2379.56
2311.3
2218.77
2109.27
1987.62
1856.75
1718.29
1573.76
1424.88
1272.13
1113.18
947.313
777.973
608.372
442.954
288.446
150.918
33.7332
-62.426
-138.295
-195.577
-236.761
-264.787
-282.732
-293.361
-298.592
-299.433
-297.198
-292.581
-285.965
-277.712
-268.235
-258.011
-247.551
-237.307
-227.61
-218.651
-210.493
-203.109
-196.42
-190.326
-184.73
-179.543
-174.691
-170.115
-165.767
-161.607
-157.601
-153.721
-149.941
-146.242
-142.604
-139.014
-135.459
-131.925
-128.402
-124.88
-121.349
-117.8
-114.223
-110.611
-106.954
-103.244
-99.4727
-95.6297
-91.7017
-87.674
-11426.7
-11284.3
-11133.9
-10962.4
-10734.5
-10450.7
-10086.2
-9614.31
-9020.41
-8319.79
-7563.86
-6818.33
-6138.72
-5546.75
-5034.41
-4581.22
-4169.68
-3790.24
-3438.35
-3111.61
-2808.08
-2525.78
-2261.99
-2012.49
-1772.46
-1539.53
-1315.52
-1105.27
-914.726
-749.172
-611.352
-500.865
-414.705
-348.67
-299.007
-263.526
-239.427
-224.403
-216.036
-211.987
-210.372
-209.804
-209.318
-208.31
-206.491
-203.817
-200.406
-196.453
-192.168
-187.735
-183.295
-178.946
-174.745
-170.723
-166.89
-163.242
-159.767
-156.445
-153.254
-150.169
-147.163
-144.213
-141.293
-138.384
-135.466
-132.524
-129.538
-126.5
-123.399
-120.227
-116.979
-113.652
-110.246
-106.762
-103.204
-99.5732
-95.8749
-92.1131
-88.295
-84.37
2010.01
2003.4
1992.94
1960.15
1902.9
1833.67
1766.34
1703.19
1636.99
1557.51
1455.5
1325.81
1170.21
997.644
820.936
652.082
499.314
366.819
256.212
167.647
99.8279
50.8192
18.7962
2.08287
-1.12169
6.50632
20.3914
34.094
40.3654
33.923
14.8722
-11.63
-40.0532
-67.0023
-89.6566
-106.262
-117.195
-124.121
-128.887
-132.72
-136.181
-139.405
-142.345
-144.905
-147.009
-148.621
-149.748
-150.429
-150.716
-150.666
-150.329
-149.747
-148.952
-147.968
-146.813
-145.505
-144.057
-142.481
-140.789
-138.989
-137.085
-135.08
-132.973
-130.76
-128.438
-125.997
-123.431
-120.736
-117.908
-114.947
-111.854
-108.637
-105.301
-101.858
-98.3144
-94.6796
-90.9624
-87.177
-83.3577
-79.5005
0.825485
0.317027
-0.222642
-0.710232
-1.1098
-1.41208
-1.62773
-1.77139
-1.85195
-1.87458
-1.84837
-1.79114
-1.72768
-1.68414
-1.68382
-1.7461
-1.887
-2.12003
-2.45591
-2.9011
-3.45575
-4.11185
-4.85191
-5.6482
-6.46329
-7.25238
-7.96703
-8.55983
-8.9894
-9.22503
-9.24803
-9.05631
-8.66348
-8.09719
-7.39581
-6.60374
-5.76683
-4.92837
-4.12611
-3.38995
-2.74082
-2.19085
-1.7445
-1.40051
-1.15393
-0.99786
-0.924542
-0.926097
-0.995003
-1.12434
-1.3079
-1.54032
-1.81718
-2.13492
-2.49035
-2.88005
-3.29966
-3.7432
-4.20178
-4.66276
-5.11099
-5.5288
-5.89505
-6.19125
-6.40027
-6.50864
-6.5081
-6.39719
-6.18206
-5.87629
-5.49951
-5.0747
-4.62468
-4.1688
-3.72106
-3.29021
-2.88154
-2.49901
-2.14662
-1.82823
-1.54696
-1.30529
-1.10576
-0.951132
-0.843345
-0.782587
-0.767353
-0.795337
-0.864181
-0.971523
-1.11446
-1.28894
-1.48951
-1.70966
-1.94259
-2.18191
-2.42186
-2.65722
-2.88307
-3.09487
-3.28871
-3.46169
-3.61191
-3.7384
-3.84075
-3.91872
-3.97236
-4.00174
-4.00709
-3.98887
-3.94786
-3.88517
-3.80228
-3.70097
-3.58325
-3.45133
-3.30744
-3.15386
-2.99278
-2.82626
-2.65622
-2.48438
-2.31229
-2.14129
-1.97256
-1.80709
-1.64573
-1.48917
-1.33803
-1.19279
-1.05388
-0.921615
-0.796228
-0.677868
-0.566614
-0.462492
-0.365489
-0.275559
-0.192626
-0.116596
-0.0473607
0.0151873
0.0711587
0.120665
0.163821
0.200737
0.231515
0.256242
0.274987
0.287803
0.294721
0.295748
0.290858
0.279993
0.263061
0.239948
0.210516
0.174604
0.132035
0.0826139
0.0261421
-0.0375664
-0.108666
-0.187259
-0.273367
-0.366907
-0.467659
-0.575234
-0.689046
-0.808297
-0.931946
-1.0587
-1.18698
-1.31493
-1.44044
-1.56116
-1.67457
-1.77804
-1.86896
-1.94479
-2.00315
-2.04198
-2.05956
-2.05477
-2.02688
-1.97606
-1.9027
-1.80858
-1.69507
-1.56569
-1.42195