/*--------------------------------*- C++ -*----------------------------------*\
| =========                 |                                                 |
| \\      /  F ield         | OpenFOAM: The Open Source CFD Toolbox           |
|  \\    /   O peration     | Version:  2012                                  |
|   \\  /    A nd           | Website:  www.openfoam.com                      |
|    \\/     M anipulation  |                                                 |
\*---------------------------------------------------------------------------*/
FoamFile
{
    version     2.0;
    format      ascii;
    class       surfaceScalarField;
    location    "0.44";
    object      phi;
}
// * * * * * * * * * * * * * * * * * * * * * * * * * * * * * * * * * * * * * //

dimensions      [0 3 -1 0 0 0 0];
oriented        oriented;


internalField   nonuniform List<scalar> 
84340
(
0.000108907
-9.74221e-05
-1.14848e-05
0.000164639
-9.10204e-05
3.52881e-05
5.38376e-05
-6.69663e-05
0.000177768
-9.73251e-05
-4.89855e-05
0.000200148
-0.000164117
1.82361e-05
4.85556e-05
-0.00012443
0.000129523
-0.000169211
-1.39441e-05
0.000251401
-0.000361887
0.000116354
0.000344924
-0.000475223
0.000223035
0.000379191
-0.000485872
0.000281173
0.000336391
-0.000394529
0.000304545
0.000212981
-0.000236353
0.000333381
2.94021e-05
-5.82377e-05
0.000422887
-0.000172427
8.2921e-05
0.000614828
-0.000350964
0.000159022
0.000880908
-0.000469362
0.000203281
0.00113913
-0.000490153
0.000231927
0.0013101
-0.00042012
0.000249157
0.00137532
-0.000327022
0.000261801
0.00136503
-0.000265035
0.000275321
0.00132143
-0.00024055
0.000284147
0.00128007
-0.000238951
0.000280318
0.00126649
-0.000247986
0.000261564
0.00128798
-0.000260274
0.000238784
0.00133179
-0.0002707
0.000226887
0.00138113
-0.000276513
0.000227173
0.00142908
-0.000278814
0.000230861
0.00147844
-0.00028194
0.000232583
0.00153728
-0.000291348
0.000232513
0.00161347
-0.000310242
0.000234048
0.00171362
-0.000343424
0.000243279
0.00183927
-0.000391072
0.000265417
0.00198734
-0.000448632
0.000300559
0.00215452
-0.000510452
0.000343271
0.00233523
-0.000565936
0.000385234
0.00252185
-0.000605252
0.000418632
0.0027056
-0.000621658
0.000437906
0.00287859
-0.000613411
0.000440424
0.00303589
-0.000583509
0.000426203
0.00317629
-0.00053737
0.000396974
0.00330139
-0.000480201
0.000355101
0.00341399
-0.000415804
0.000303203
0.00351685
-0.000346825
0.000243963
0.00361256
-0.00027491
0.000179198
0.00370244
-0.000202181
0.000112299
0.00378798
-0.000130686
4.51525e-05
0.00387207
-6.20868e-05
-2.20091e-05
0.00394712
1.12967e-05
-8.63465e-05
0.00401507
7.89361e-05
-0.000146887
0.00407521
0.000142421
-0.000202558
0.00412594
0.000202274
-0.000253008
0.00416499
0.000258863
-0.000297912
0.00418961
0.000312275
-0.000336892
0.00419655
0.000362428
-0.000369361
0.00418173
0.000409061
-0.000394247
0.00414004
0.000451571
-0.000409879
0.0040655
0.000488773
-0.000414232
0.00395256
0.00051864
-0.000405704
0.00379874
0.000538114
-0.000384286
0.00360777
0.000543365
-0.000352396
0.00339155
0.000530824
-0.000314603
0.00316885
0.000498914
-0.000276216
0.00296115
0.000449065
-0.000241371
0.0027875
0.00038484
-0.000211189
0.0026606
0.000309783
-0.000182881
0.00258508
0.000225771
-0.000150252
0.00255841
0.00013203
-0.000105359
0.00256893
3.01223e-05
-4.06428e-05
0.00261877
-9.39562e-05
4.41225e-05
0.00268889
-0.00022425
0.000154125
0.00276438
-0.000362206
0.000286722
0.0028304
-0.000501638
0.00043562
0.00287305
-0.000634572
0.00059192
0.00288147
-0.000752947
0.000744524
0.0028499
-0.000850757
0.00088233
0.00277908
-0.00092592
0.000996738
0.0026762
-0.000980606
0.00108349
0.00255275
-0.00101968
0.00114312
0.00242128
-0.0010485
0.00117997
0.00229215
-0.00107051
0.00119964
-0.00109209
0.00120903
0.00217521
-0.000186333
8.89112e-05
-0.00030198
2.46259e-05
-0.000320973
-4.79726e-05
-0.000323124
-4.68348e-05
-0.000294766
-1.01227e-05
-0.000217309
5.2067e-05
-8.87474e-05
0.00012284
7.05725e-05
0.000185605
0.000220339
0.000229425
0.000309407
0.000247324
0.000294764
0.000227623
0.000175188
0.000148978
9.78256e-06
-7.02151e-06
-0.000118827
-0.000222354
-0.000167858
-0.00042033
-0.000147227
-0.000510785
-9.01315e-05
-0.000477216
-7.0624e-06
-0.000410091
8.65936e-05
-0.000358691
0.0001798
-0.000333756
0.00025651
-0.000315661
0.00029748
-0.000288955
0.000297413
-0.000260208
0.000269656
-0.000242944
0.000240549
-0.000247406
0.000234795
-0.00027306
0.000266637
-0.000313782
0.000339135
-0.000363846
0.000447534
-0.000418641
0.000579818
-0.000475709
0.000720205
-0.000531459
0.00085165
-0.000580077
0.000960703
-0.000619505
0.00104416
-0.000649391
0.00110466
-0.000665758
0.00114425
-0.000661246
0.00116426
-0.00063342
0.00116866
-0.000587911
0.00116532
-0.000534023
0.00116396
-0.000478846
0.00117307
-0.000424914
0.00119787
-0.000371619
0.00124059
-0.000317638
0.00130055
-0.000262136
0.00137472
-0.000204854
0.00145895
-0.000146322
0.00155629
-8.60391e-05
0.00165644
-2.12139e-05
0.00176458
3.42788e-05
0.00187539
9.14634e-05
0.00198388
0.00015037
0.0020863
0.000209857
0.00217974
0.000268991
0.00226207
0.000326731
0.00233206
0.000381584
0.00238939
0.000431438
0.00243474
0.000473292
0.00246928
0.000503573
0.00249449
0.000518156
0.0025119
0.000513416
0.00252359
0.000487224
0.00253306
0.000439593
0.00254534
0.000372559
0.00256568
0.000289438
0.00259722
0.000194232
0.00263654
9.2715e-05
0.002691
-2.43389e-05
0.00274294
-0.0001459
0.00278429
-0.000265597
0.00280276
-0.000380679
0.00278797
-0.000486845
0.00273435
-0.000580953
0.00264352
-0.000662118
0.00252459
-0.000731835
0.00239165
-0.000792979
0.00225963
-0.000848587
0.00214071
-0.000900753
0.00204242
-0.000950212
0.00196873
-0.000996816
-0.0010398
0.00191644
0.000302357
-0.000213445
0.000630035
-0.000303053
0.000729199
-0.000147137
0.000678141
4.22351e-06
0.000623333
4.46854e-05
0.00066012
1.52803e-05
0.000828578
-4.5619e-05
0.00112816
-0.000113975
0.00154549
-0.000187906
0.00206055
-0.000267734
0.00264374
-0.000355574
0.00324627
-0.000453547
0.00380328
-0.000564033
0.00426693
-0.000686007
0.00465459
-0.000807983
0.00504787
-0.000904073
0.00554952
-0.000978863
0.00617036
-0.00103092
0.00687439
-0.00106273
0.00761366
-0.00107303
0.0083558
-0.0010578
0.00906174
-0.000994894
0.0096654
-0.000863863
0.0100968
-0.000674373
0.0103105
-0.000461091
0.0102985
-0.000261025
0.0100638
-7.91029e-05
0.00962311
7.68441e-05
0.00899267
0.000211802
0.00820003
0.000316932
0.00728701
0.000381558
0.00631557
0.000391357
0.00534932
0.000346748
0.00443538
0.000264552
0.00359249
0.00017713
0.00282696
0.000104289
0.00214297
5.05626e-05
0.0015446
1.0459e-05
0.0010329
-2.23155e-05
0.000605072
-5.10222e-05
0.00025564
-7.54828e-05
-2.20312e-05
-9.39474e-05
-0.000234874
-0.000104795
-0.000389828
-0.000107181
-0.000493661
-0.000101021
-0.00055327
-8.6714e-05
-0.000574387
-6.49221e-05
-0.00055917
-3.64299e-05
-0.000522334
-2.55685e-06
-0.000468132
3.72619e-05
-0.000396774
7.90118e-05
-0.000310578
0.000123661
-0.000211186
0.000169599
-9.94382e-05
0.000214984
2.43574e-05
0.00025779
0.000160188
0.000295607
0.000307693
0.000325787
0.000465917
0.000345349
0.000632414
0.000351659
0.000803192
0.000342638
0.000973171
0.000317245
0.00113707
0.000275698
0.00129021
0.00021942
0.00142923
0.000150411
0.00155406
6.94037e-05
0.00166177
-1.49886e-05
0.00174131
-0.000103886
0.00179151
-0.0001961
0.00181384
-0.000287923
0.0018105
-0.000377335
0.00178672
-0.00046307
0.00175051
-0.000544739
0.00171105
-0.000622661
0.00167645
-0.000697234
0.00165186
-0.000768387
0.00163878
-0.00083551
0.00163582
-0.000897791
0.00164019
-0.000954579
0.00164897
-0.0010056
-0.00105061
0.00165978
-0.000305819
9.23736e-05
-0.000978412
0.000369541
-0.00181071
0.000685159
-0.00265832
0.000851833
-0.00343498
0.000821346
-0.0040661
0.000646404
-0.00451577
0.000404052
-0.00477824
0.000148489
-0.00486814
-9.79995e-05
-0.00480607
-0.000329808
-0.00460872
-0.000552924
-0.00429086
-0.000771402
-0.00387096
-0.000983934
-0.0033705
-0.00118647
-0.00280952
-0.00136897
-0.00221265
-0.00150094
-0.00168326
-0.00150825
-0.0014208
-0.00129338
-0.00161163
-0.000871895
-0.00220625
-0.000478407
-0.00292041
-0.00034364
-0.00350971
-0.000405602
-0.00390872
-0.000464852
-0.00417553
-0.000407562
-0.00432693
-0.000309691
-0.0043942
-0.000193756
-0.00439802
-7.52811e-05
-0.00435857
3.73921e-05
-0.00428745
0.000140683
-0.0041992
0.000228684
-0.00410445
0.00028681
-0.00400739
0.000294294
-0.0039065
0.000245853
-0.00380383
0.000161886
-0.00369903
7.23251e-05
-0.00359388
-8.61583e-07
-0.00349194
-5.13704e-05
-0.00339358
-8.79022e-05
-0.00329622
-0.000119681
-0.00320248
-0.000144762
-0.0031146
-0.000163365
-0.00303264
-0.000175904
-0.00295478
-0.000182652
-0.00287822
-0.000183742
-0.00279996
-0.000179276
-0.00271731
-0.000169369
-0.002628
-0.000154231
-0.00253023
-0.000134197
-0.00242311
-0.000109677
-0.00230453
-8.13256e-05
-0.00217538
-5.01327e-05
-0.00203455
-1.71745e-05
-0.00188138
1.64308e-05
-0.00171468
4.82901e-05
-0.00153448
7.75822e-05
-0.0013411
0.000102233
-0.00113563
0.000120308
-0.000920316
0.000130038
-0.000698606
0.000129949
-0.000474996
0.000119028
-0.000254554
9.68039e-05
-4.19092e-05
6.30524e-05
0.000159057
1.84531e-05
0.000341456
-3.19885e-05
0.000502915
-9.20556e-05
0.000646141
-0.000158215
0.000771233
-0.000228979
0.000878442
-0.00030331
0.000970252
-0.000379733
0.00104997
-0.000457055
0.00112114
-0.000534238
0.00118659
-0.000610192
0.00124769
-0.000683754
0.00130425
-0.000753802
0.00135529
-0.000819426
0.00139984
-0.000880055
0.00143752
-0.000935476
0.00146873
-0.000985786
0.00149449
-0.00103136
-0.00107277
0.00151664
-0.000275364
0.000367738
-0.000439675
0.000533851
-0.000265236
0.000510719
0.000139452
0.000447145
0.000616215
0.000344584
0.00103867
0.000223945
0.00135854
8.41871e-05
0.00157766
-7.06358e-05
0.00171077
-0.00023111
0.00177415
-0.00039318
0.001796
-0.000574778
0.00181051
-0.000785914
0.00183564
-0.00100907
0.00186143
-0.00121226
0.00185512
-0.00136265
0.00177233
-0.00141816
0.00156734
-0.00130326
0.00120661
-0.000932654
0.000688276
-0.000353559
4.46241e-05
0.000165245
-0.000678081
0.000379065
-0.00143252
0.000348837
-0.00217269
0.000275321
-0.00282967
0.000249412
-0.00340437
0.000265015
-0.00389383
0.000295704
-0.00428865
0.000319535
-0.004574
0.00032274
-0.00473115
0.000297835
-0.00474919
0.000246731
-0.00464125
0.000178863
-0.00445275
0.000105795
-0.00424435
3.74568e-05
-0.00406093
-2.15311e-05
-0.00391591
-7.27008e-05
-0.00380398
-0.000112786
-0.00371397
-0.000141387
-0.00363916
-0.00016271
-0.00357378
-0.000185058
-0.00351353
-0.000205018
-0.003455
-0.000221891
-0.00339557
-0.000235331
-0.00333318
-0.000245041
-0.0032662
-0.000250723
-0.00319338
-0.000252102
-0.00311375
-0.000248994
-0.00302665
-0.000241336
-0.0029316
-0.000229245
-0.0028282
-0.000213074
-0.00271607
-0.000193456
-0.00259487
-0.000171336
-0.0024641
-0.000147941
-0.00232299
-0.000124682
-0.00217165
-0.000103053
-0.0020096
-8.44653e-05
-0.00183708
-7.02835e-05
-0.00165502
-6.17543e-05
-0.00146504
-5.9944e-05
-0.00126939
-6.56947e-05
-0.0010708
-7.95663e-05
-0.000872179
-0.000101817
-0.000676754
-0.000132372
-0.000487556
-0.000170745
-0.000303323
-0.000216221
-0.000127214
-0.000268165
4.01643e-05
-0.000325593
0.000198661
-0.000387475
0.000347764
-0.000452413
0.000487268
-0.000519237
0.000616819
-0.000586606
0.000735798
-0.000653217
0.000843513
-0.000717908
0.000939502
-0.000779743
0.00102376
-0.00083806
0.00109681
-0.000892479
0.00115963
-0.000942871
0.00121349
-0.000989331
0.00125986
-0.00103216
0.00130036
-0.00107186
-0.00110934
0.00133694
0.000949107
-0.000581369
0.00241257
-0.000929613
0.00376778
-0.000844488
0.00488429
-0.000669367
0.00575369
-0.000524812
0.00644319
-0.000465562
0.00703647
-0.000509087
0.0075586
-0.000592765
0.00790138
-0.000573892
0.00791162
-0.000403418
0.00750243
-0.000165595
0.00668876
2.77603e-05
0.00555802
0.00012167
0.00421899
0.00012677
0.00277022
8.61208e-05
0.00131047
4.15941e-05
-1.39829e-05
2.1194e-05
-0.000985993
3.93555e-05
-0.00143818
9.86319e-05
-0.00146029
0.000187346
-0.00136963
0.000288411
-0.00140538
0.000384588
-0.00159793
0.000467865
-0.00188097
0.000532453
-0.00218496
0.000569006
-0.00245891
0.000569658
-0.0026726
0.000533219
-0.00281376
0.000463906
-0.00288735
0.00037142
-0.00290919
0.000268568
-0.00289864
0.000168314
-0.00287344
8.05985e-05
-0.00284724
1.12571e-05
-0.00282945
-3.93263e-05
-0.00281813
-8.40157e-05
-0.00280947
-0.000121443
-0.00279607
-0.000154795
-0.00277821
-0.000180568
-0.0027603
-0.000202967
-0.0027414
-0.000223917
-0.00271933
-0.000243961
-0.00269238
-0.000262284
-0.00265941
-0.000278006
-0.00261983
-0.000290306
-0.00257337
-0.000298566
-0.00251989
-0.000302465
-0.00245932
-0.000301906
-0.0023917
-0.00029687
-0.00231734
-0.000287434
-0.00223691
-0.000273884
-0.00215129
-0.000256958
-0.00206112
-0.000238111
-0.00196635
-0.000219454
-0.00186613
-0.000203273
-0.0017591
-0.00019149
-0.00164395
-0.000185436
-0.00151986
-0.000185844
-0.0013867
-0.000193109
-0.00124499
-0.000207397
-0.00109586
-0.000228704
-0.000940823
-0.000256851
-0.000781708
-0.000291486
-0.000620355
-0.000332097
-0.00045852
-0.000378057
-0.000298086
-0.000428598
-0.000140824
-0.000482856
1.15407e-05
-0.00053984
0.000157621
-0.000598493
0.000296082
-0.000657698
0.000425858
-0.000716382
0.000546179
-0.000773538
0.000656587
-0.000828316
0.000756925
-0.00088008
0.000847321
-0.000928456
0.000928183
-0.000973341
0.00100019
-0.00101488
0.00106427
-0.00105341
0.00112149
-0.00108938
0.00117301
-0.00112338
-0.0011565
0.00122016
-0.000910367
0.000328999
-0.00258858
0.000748595
-0.00444076
0.0010077
-0.00624979
0.00113966
-0.00780949
0.00103489
-0.00886872
0.000593664
-0.00928513
-9.26713e-05
-0.0091611
-0.000716803
-0.00872228
-0.00101271
-0.00813905
-0.000986642
-0.00748614
-0.000818503
-0.00679633
-0.000662054
-0.00610375
-0.000570908
-0.00542978
-0.000547201
-0.00478848
-0.00055518
-0.00418589
-0.000560992
-0.00362
-0.000544702
-0.0030801
-0.00050054
-0.0025494
-0.000432067
-0.00201929
-0.000342765
-0.00148907
-0.000241812
-0.000973831
-0.000130649
-0.000497169
-8.79591e-06
-7.82859e-05
0.00011357
0.000270914
0.000219806
0.000541758
0.000298814
0.000732438
0.000342539
0.000847049
0.000349296
0.000893657
0.000324812
0.000882344
0.000279881
0.000821917
0.000228741
0.000731161
0.000171355
0.000626421
0.000115996
0.000520262
6.68333e-05
0.000418683
1.75633e-05
0.000322259
-2.50199e-05
0.000229068
-6.1603e-05
0.000141441
-9.29415e-05
5.76116e-05
-0.000119138
-2.62065e-05
-0.000140099
-0.000114074
-0.000156093
-0.000209639
-0.000166719
-0.000314628
-0.000173018
-0.000428515
-0.000176419
-0.000546778
-0.000180303
-0.000663891
-0.000185353
-0.000773504
-0.000192293
-0.000869296
-0.000201077
-0.000946781
-0.00020995
-0.00100504
-0.000215624
-0.00104685
-0.00021515
-0.00107637
-0.000208594
-0.00109588
-0.00019994
-0.00110417
-0.000194979
-0.00109787
-0.000197791
-0.00107426
-0.000209044
-0.00103228
-0.000227826
-0.000972687
-0.000252703
-0.000897254
-0.00028283
-0.000808142
-0.000317815
-0.000707619
-0.000357374
-0.000597972
-0.000401133
-0.000481465
-0.000448604
-0.00036032
-0.000499202
-0.000236637
-0.000552281
-0.000112338
-0.000607155
1.09064e-05
-0.000663084
0.000131684
-0.00071927
0.000248837
-0.000774851
0.000361391
-0.000828935
0.000468528
-0.000880676
0.000569573
-0.000929361
0.000664006
-0.000974513
0.000751489
-0.00101594
0.000831885
-0.00105374
0.000905253
-0.00108825
0.000971823
-0.00111998
0.00103197
-0.00114953
0.0010862
-0.00117761
-0.00120543
0.00113513
-0.000159801
0.0004888
-0.000482262
0.00107105
-0.000678163
0.0012036
-0.00063458
0.00109608
-0.00046338
0.000863689
-0.000311386
0.000441671
-0.000322058
-8.19998e-05
-0.000542836
-0.000496025
-0.000862798
-0.00069275
-0.00111729
-0.000732147
-0.00119834
-0.000737459
-0.00110134
-0.000759055
-0.000888445
-0.000783799
-0.000655633
-0.000780013
-0.000485248
-0.000725565
-0.00042761
-0.00061863
-0.000504045
-0.000468267
-0.000719404
-0.00028518
-0.00106282
-8.8647e-05
-0.00148433
7.8742e-05
-0.00190295
0.000176805
-0.00222477
0.000191177
-0.00238901
0.000155441
-0.00237752
0.000102076
-0.00220724
4.95251e-05
-0.00191239
3.9687e-06
-0.00153292
-3.6935e-05
-0.00110612
-7.75022e-05
-0.000661578
-0.00011973
-0.000218468
-0.000163229
0.000218936
-0.000208662
0.000634509
-0.000244218
0.00102185
-0.000271341
0.00137932
-0.000290641
0.00169511
-0.000298224
0.00197484
-0.000304753
0.00221983
-0.000306594
0.00242902
-0.000302129
0.0025998
-0.000289922
0.00272846
-0.000268751
0.00281027
-0.000237907
0.00284116
-0.000197607
0.00281723
-0.000149085
0.00273856
-9.77554e-05
0.00260505
-4.67912e-05
0.00241771
1.99027e-06
0.00218268
4.27322e-05
0.00190989
7.17167e-05
0.00161353
8.64096e-05
0.00130828
8.96237e-05
0.00100858
8.45499e-05
0.000727291
7.26983e-05
0.000472527
5.48235e-05
0.000250828
2.67202e-05
6.79874e-05
-1.49506e-05
-7.69859e-05
-6.40704e-05
-0.000182474
-0.000122338
-0.000249494
-0.000185683
-0.000280926
-0.000251398
-0.000280997
-0.000317745
-0.000254703
-0.000383668
-0.000207239
-0.000448597
-0.000143724
-0.00051212
-6.87651e-05
-0.000574161
1.36931e-05
-0.00063474
0.000100464
-0.000693926
0.000189134
-0.000751754
0.000277967
-0.000808103
0.000365749
-0.000862634
0.000451595
-0.00091478
0.000534773
-0.000963853
0.000614613
-0.0010092
0.000690484
-0.00105038
0.000761834
-0.00108729
0.000828258
-0.00112016
0.000889551
-0.00114954
0.000945728
-0.00117615
0.000997005
-0.00120081
0.00104373
-0.00122433
-0.00124793
0.00108624
4.47713e-05
0.000444028
0.000165411
0.000950416
0.000192422
0.00117659
0.000115717
0.00117278
-1.79096e-05
0.000997315
-0.000222897
0.000646658
-0.000506325
0.000201428
-0.000799661
-0.00020269
-0.00100606
-0.000486352
-0.00105236
-0.00068585
-0.000934681
-0.000855133
-0.000678265
-0.00101547
-0.000310212
-0.00115185
0.00013927
-0.0012295
0.000635978
-0.00122227
0.00113323
-0.00111589
0.00156769
-0.000902721
0.00186986
-0.000587355
0.00199232
-0.000211104
0.00194035
0.000130708
0.00175616
0.000361
0.00149693
0.000450399
0.00122478
0.000427596
0.00098179
0.000345066
0.000786542
0.000244772
0.000641661
0.000148851
0.000539712
6.50141e-05
0.000467669
-5.4592e-06
0.000412295
-6.43562e-05
0.000361441
-0.000112375
0.000299273
-0.000146494
0.000230368
-0.000175313
0.000157419
-0.000198392
8.2994e-05
-0.000216217
1.37998e-05
-0.00022903
-5.41193e-05
-0.000236834
-0.000121578
-0.000239135
-0.000188544
-0.000235163
-0.000254551
-0.000223915
-0.000318941
-0.000204362
-0.0003809
-0.000175948
-0.000439423
-0.000139084
-0.000493144
-9.53639e-05
-0.000543344
-4.75557e-05
-0.000588359
-1.77559e-06
-0.000631957
4.55878e-05
-0.00067094
8.17155e-05
-0.00070407
0.000104846
-0.000731067
0.000113406
-0.000748773
0.00010733
-0.000752418
8.81949e-05
-0.000739776
6.00565e-05
-0.000702289
1.73365e-05
-0.000642299
-3.32706e-05
-0.000567505
-8.97441e-05
-0.000480739
-0.000150836
-0.000387891
-0.000215186
-0.000292156
-0.000281418
-0.000195371
-0.000348183
-9.88142e-05
-0.000414302
-3.64536e-06
-0.000478837
8.88378e-05
-0.000541081
0.000177504
-0.000600786
0.000261252
-0.000657909
0.000339274
-0.00071276
0.000411217
-0.000765868
0.000477249
-0.000817786
0.000538
-0.000868854
0.000594377
-0.000919011
0.000647328
-0.000967731
0.000697623
-0.00101415
0.000745754
-0.00105733
0.00079194
-0.00109657
0.000836211
-0.00113156
0.000878518
-0.00116247
0.000918807
-0.00118983
0.000957062
-0.00121441
0.000993308
-0.00123705
0.00102757
-0.0012586
-0.00128008
0.00105972
0.000844629
-0.000400601
0.00229839
-0.000503348
0.0036857
-0.000210719
0.00476436
9.41215e-05
0.00541643
0.00034525
0.00553794
0.00052515
0.00512459
0.000614774
0.00423364
0.000688263
0.00293597
0.000811321
0.00126861
0.000981502
-0.000735608
0.00114909
-0.00302266
0.00127158
-0.00550023
0.00132572
-0.00802267
0.00129294
-0.0103842
0.00113929
-0.0123367
0.000836551
-0.0136564
0.000417051
-0.014237
-6.77838e-06
-0.0141155
-0.000332584
-0.0134436
-0.000541219
-0.0124111
-0.00067154
-0.0111987
-0.000761948
-0.00994156
-0.000829574
-0.00871797
-0.000878518
-0.00757565
-0.000897554
-0.00653901
-0.000887787
-0.00561565
-0.000858344
-0.00480477
-0.000816342
-0.00410289
-0.000766236
-0.0035021
-0.000713168
-0.00298802
-0.000660572
-0.00255341
-0.000609917
-0.00219077
-0.000561032
-0.00189391
-0.000513082
-0.00165786
-0.000465075
-0.00147852
-0.000416173
-0.00135113
-0.00036653
-0.00126874
-0.000317552
-0.00122178
-0.000270872
-0.00119915
-0.000226999
-0.00118956
-0.000185532
-0.00118271
-0.000145938
-0.00116976
-0.000108314
-0.00114387
-7.34421e-05
-0.00110254
-4.31056e-05
-0.00103838
-1.85766e-05
-0.000954915
-1.74834e-06
-0.000855873
5.80416e-06
-0.00074559
3.12305e-06
-0.000628128
-1.01322e-05
-0.000506709
-3.32241e-05
-0.000381443
-6.52088e-05
-0.000258653
-0.000105454
-0.000139316
-0.000152608
-2.39071e-05
-0.000205153
8.69221e-05
-0.000261665
0.000192495
-0.00032076
0.000292139
-0.000381062
0.000385204
-0.000441248
0.00047102
-0.000500118
0.000548881
-0.000556699
0.000618156
-0.000610355
0.00067825
-0.00066088
0.000728907
-0.000708565
0.000770315
-0.000754169
0.000803219
-0.000798772
0.000828912
-0.000843478
0.00084909
-0.000889032
0.000865587
-0.000935509
0.000880089
-0.000982232
0.00089392
-0.00102798
0.000907973
-0.00107139
0.000922751
-0.00111135
0.000938477
-0.00114729
0.000955195
-0.00117919
0.000972847
-0.00120748
0.000991318
-0.00123288
0.00101046
-0.00125619
0.00103006
-0.0012782
-0.00129973
0.00104971
-0.000270041
-0.000130559
-0.000378691
-0.000394699
2.49066e-05
-0.000614316
0.000840175
-0.000721146
0.00178922
-0.000603794
0.00259987
-0.0002855
0.00313288
8.17573e-05
0.00341594
0.000405205
0.00354785
0.000679411
0.00360953
0.000919824
0.00362614
0.00113248
0.00358422
0.0013135
0.00345698
0.00145296
0.0032162
0.00153372
0.00284436
0.00151113
0.00235207
0.00132884
0.00178183
0.000987293
0.00119227
0.000582788
0.000623907
0.000235775
8.927e-05
-6.58172e-06
-0.000414241
-0.000168029
-0.000886679
-0.00028951
-0.00131919
-0.000397068
-0.0016999
-0.000497806
-0.00201209
-0.000585367
-0.00222835
-0.000671524
-0.00234461
-0.000742083
-0.00235378
-0.000807172
-0.0022713
-0.00084872
-0.00211524
-0.000869228
-0.0019059
-0.000869913
-0.00166471
-0.000851099
-0.00141166
-0.000814087
-0.00116329
-0.000761448
-0.000932557
-0.000695811
-0.000731285
-0.000617444
-0.00057084
-0.000526976
-0.000457
-0.000431392
-0.000384933
-0.000342938
-0.000341094
-0.000270838
-0.000310733
-0.000215892
-0.000283306
-0.000173365
-0.000253086
-0.000138534
-0.000217444
-0.000109084
-0.000175349
-8.52007e-05
-0.000125738
-6.81874e-05
-6.82878e-05
-5.91984e-05
-3.36102e-06
-5.91224e-05
6.82453e-05
-6.84831e-05
0.000145075
-8.69616e-05
0.00022621
-0.000114359
0.000310616
-0.000149615
0.000396741
-0.000191579
0.000483081
-0.000238947
0.000568184
-0.000290256
0.000650526
-0.000344007
0.000728476
-0.00039871
0.000800375
-0.000452961
0.000864647
-0.00050552
0.000919942
-0.000555413
0.000965286
-0.000602043
0.00100021
-0.000645282
0.00102487
-0.000685537
0.00104006
-0.000723751
0.00104717
-0.000761282
0.00104803
-0.000799635
0.00104462
-0.000840068
0.00103877
-0.000883182
0.00103194
-0.000928681
0.00102514
-0.000975433
0.00101899
-0.00102183
0.00101387
-0.00106626
0.00101006
-0.00110754
0.00100783
-0.00114505
0.00100741
-0.00117876
0.00100898
-0.00120905
0.00101263
-0.00123653
0.00101833
-0.00126189
0.00102594
-0.00128581
-0.00130888
0.00103509
-0.000483215
0.000352656
-0.00124808
0.000370168
-0.00195254
9.01365e-05
-0.00249828
-0.000175401
-0.00278825
-0.000313827
-0.0027418
-0.00033195
-0.00238229
-0.000277749
-0.00178796
-0.000189125
-0.00102589
-8.26573e-05
-0.000135873
2.9803e-05
0.0008598
0.000136805
0.00194558
0.000227724
0.00310564
0.000292904
0.00431099
0.000328367
0.00549007
0.000332053
0.00651662
0.000302282
0.00725998
0.000243933
0.0076678
0.000174976
0.00779336
0.000110211
0.00771358
7.31945e-05
0.00748731
5.82436e-05
0.00714617
5.16304e-05
0.00670831
4.07966e-05
0.00619061
1.98906e-05
0.00561921
-1.3971e-05
0.00500664
-5.89532e-05
0.00437589
-0.000111332
0.00373759
-0.00016887
0.00312087
-0.000231998
0.00255336
-0.000301724
0.00206414
-0.000380684
0.00165561
-0.000442573
0.00132841
-0.000486891
0.00106521
-0.000498247
0.000851641
-0.000482239
0.000675618
-0.000441422
0.000518904
-0.000370262
0.000375819
-0.000288306
0.000246674
-0.000213793
0.00013582
-0.000159985
4.3543e-05
-0.000123616
-2.5064e-05
-0.000104758
-6.4567e-05
-9.90317e-05
-7.38983e-05
-9.97529e-05
-5.46891e-05
-0.00010441
-1.01373e-05
-0.00011274
5.57168e-05
-0.000125053
0.000138303
-0.000141709
0.000232803
-0.000162984
0.000334823
-0.000188982
0.000439969
-0.000219505
0.000544545
-0.000254192
0.000645304
-0.000292338
0.000739442
-0.000333085
0.000824628
-0.000375442
0.000898975
-0.000418355
0.000961072
-0.000460806
0.00101004
-0.000501927
0.00104562
-0.000541102
0.00106828
-0.00057807
0.00107923
-0.000612997
0.00108044
-0.000646493
0.00107447
-0.000679568
0.00106421
-0.000713487
0.00105245
-0.000749523
0.00104146
-0.000788646
0.00103261
-0.00083122
0.00102626
-0.000876833
0.00102194
-0.000924359
0.00101875
-0.00097224
0.00101581
-0.00101889
0.00101261
-0.00106306
0.00100905
-0.00110398
0.00100541
-0.00114141
0.00100215
-0.00117551
0.000999783
-0.00120668
0.000998703
-0.00123545
0.000999183
-0.00126237
0.00100133
-0.00128797
-0.00131261
0.00100507
0.000873713
-0.000521057
0.0021556
-0.000911722
0.00326211
-0.00101637
0.00414221
-0.00105549
0.00489307
-0.00106469
0.00562445
-0.00106333
0.00639151
-0.00104481
0.00719115
-0.000988767
0.00798947
-0.000880974
0.00873408
-0.000714809
0.00935786
-0.000486979
0.00978105
-0.000195466
0.00991669
0.000157269
0.00968939
0.000555666
0.00906628
0.000955161
0.00809909
0.00126947
0.00693627
0.00140676
0.00577593
0.00133531
0.00477451
0.00111163
0.00400314
0.000844567
0.00344674
0.000614639
0.00304582
0.000452552
0.00273269
0.000353929
0.00245146
0.000301115
0.00216309
0.000274401
0.00184528
0.00025886
0.00149031
0.000243638
0.00109965
0.000221786
0.000678579
0.000189077
0.000233202
0.000143652
-0.000231606
8.41234e-05
-0.000692829
1.86513e-05
-0.00113638
-4.3341e-05
-0.00152842
-0.000106203
-0.00185283
-0.000157831
-0.00209389
-0.000200362
-0.00222499
-0.00023916
-0.00223669
-0.000276612
-0.00214161
-0.000308872
-0.00196778
-0.000333818
-0.00174348
-0.000347912
-0.0014959
-0.000352343
-0.00124516
-0.000349762
-0.0010021
-0.000342819
-0.000772165
-0.000334343
-0.000557979
-0.000326925
-0.000360458
-0.000322574
-0.000179702
-0.000322464
-1.55734e-05
-0.000327112
0.000132065
-0.000336619
0.000263338
-0.000350778
0.000378295
-0.000369148
0.000477058
-0.0003911
0.000559855
-0.000415882
0.000627121
-0.000442708
0.000679613
-0.000470846
0.00071852
-0.000499713
0.000745541
-0.000528948
0.000762909
-0.00055847
0.000773322
-0.000588483
0.000779773
-0.000619448
0.000785273
-0.000651993
0.000792485
-0.00068678
0.000803333
-0.000724335
0.000818685
-0.000764875
0.000838213
-0.000808174
0.000860528
-0.000853536
0.000883592
-0.000899897
0.000905267
-0.000946034
0.000923843
-0.000990816
0.000938341
-0.00103339
0.000948566
-0.00107328
0.000954942
-0.00111036
0.000958265
-0.00114474
0.000959474
-0.00117672
0.000959477
-0.00120668
0.000959059
-0.00123503
0.00095884
-0.00126215
0.000959259
-0.00128838
-0.00131392
0.000960571
-0.000481458
-3.95992e-05
-0.00103582
-0.000357363
-0.00131688
-0.000735306
-0.00138844
-0.000983942
-0.00135964
-0.00109349
-0.00130357
-0.0011194
-0.0012327
-0.00111568
-0.00112009
-0.00110137
-0.000930639
-0.00107043
-0.00064504
-0.00100041
-0.00027023
-0.000861788
0.000150019
-0.000615714
0.000561864
-0.000254576
0.00092086
0.00019667
0.0011955
0.000680523
0.0013798
0.00108517
0.00148275
0.0013038
0.00152295
0.00129512
0.00151773
0.00111684
0.00148572
0.000876578
0.00143921
0.000661148
0.00138231
0.000509455
0.00131266
0.000423578
0.00122503
0.000388745
0.00111437
0.000385062
0.000980014
0.000393216
0.000825503
0.000398148
0.000657498
0.000389792
0.000483524
0.000363051
0.000309888
0.000317288
0.000138723
0.000255288
-2.39084e-05
0.000181283
-0.000165591
9.83415e-05
-0.000292416
2.06214e-05
-0.000391892
-5.83551e-05
-0.000458097
-0.000134157
-0.000491106
-0.000206151
-0.000495805
-0.000271914
-0.000476971
-0.000327706
-0.000441147
-0.000369643
-0.000393813
-0.000395245
-0.000341158
-0.000404998
-0.000288537
-0.000402383
-0.000238834
-0.000392522
-0.000192073
-0.000381104
-0.000146391
-0.000372607
-9.9627e-05
-0.000369338
-5.03812e-05
-0.00037171
1.52672e-06
-0.00037902
5.51642e-05
-0.000390257
0.000108968
-0.000404582
0.000161266
-0.000421446
0.000210698
-0.000440532
0.000256457
-0.000461642
0.000298381
-0.000484632
0.000336934
-0.000509399
0.000373103
-0.000535882
0.000408235
-0.00056408
0.000443818
-0.000594053
0.000481229
-0.000625895
0.000521482
-0.000659701
0.000564994
-0.000695504
0.000611434
-0.00073322
0.000659692
-0.000772594
0.000708005
-0.000813189
0.000754245
-0.000854414
0.000796308
-0.000895598
0.000832507
-0.000936097
0.000861853
-0.00097538
0.000884132
-0.00101309
0.0008998
-0.00104906
0.000909771
-0.00108325
0.000915175
-0.00111576
0.000917179
-0.00114674
0.000916867
-0.00117641
0.000915182
-0.001205
0.000912897
-0.00123275
0.000910614
-0.00125987
0.000908773
-0.00128654
-0.00131282
0.00090767
0.000128737
-0.000168336
0.000273916
-0.000502542
0.000374468
-0.000835858
0.000434784
-0.00104426
0.000441472
-0.00110017
0.00040453
-0.00108246
0.000334499
-0.00104565
0.00024536
-0.00101223
0.000156798
-0.000981867
9.43394e-05
-0.00093795
8.33263e-05
-0.000850775
0.000161115
-0.000693504
0.000377535
-0.000470996
0.000768738
-0.000194533
0.00135357
9.56946e-05
0.00208594
0.000352795
0.00284781
0.00054193
0.00348627
0.000656663
0.0038878
0.000715314
0.00402031
0.00074407
0.00392175
0.000759707
0.00366422
0.000766988
0.00332264
0.00076516
0.00295588
0.000755498
0.00260597
0.000734974
0.00229367
0.000705515
0.00202805
0.000663765
0.00181364
0.000604207
0.00165156
0.000525132
0.00153867
0.000430175
0.00146771
0.000326252
0.00142829
0.000220703
0.00140735
0.000119283
0.0014035
2.44692e-05
0.00140694
-6.1795e-05
0.00141303
-0.000140251
0.00141214
-0.000205259
0.00139416
-0.000253935
0.00135597
-0.000289512
0.00129782
-0.000311499
0.00122212
-0.000319542
0.00112998
-0.000312852
0.00102536
-0.000297769
0.00091202