/*--------------------------------*- C++ -*----------------------------------*\
| =========                 |                                                 |
| \\      /  F ield         | OpenFOAM: The Open Source CFD Toolbox           |
|  \\    /   O peration     | Version:  2012                                  |
|   \\  /    A nd           | Website:  www.openfoam.com                      |
|    \\/     M anipulation  |                                                 |
\*---------------------------------------------------------------------------*/
FoamFile
{
    version     2.0;
    format      ascii;
    class       volVectorField;
    location    "0.44";
    object      U;
}
// * * * * * * * * * * * * * * * * * * * * * * * * * * * * * * * * * * * * * //

dimensions      [0 1 -1 0 0 0 0];


internalField   nonuniform List<vector> 
42400
(
(-4.78402 4.04576 -3.97462e-17)
(-11.4086 14.4493 -5.55978e-17)
(-16.6948 15.4444 5.6857e-17)
(-16.8909 17.1471 0)
(-20.8147 19.4157 0)
(-26.1448 24.5021 3.78965e-20)
(-31.0145 29.7973 0)
(-33.1514 32.7029 -9.95828e-21)
(-31.0516 31.4736 0)
(-24.4896 25.5248 2.1714e-21)
(-14.65 15.9113 -2.06472e-21)
(-4.30538 5.80489 1.45071e-20)
(3.28504 -0.989373 4.53095e-18)
(7.04713 -3.34767 -4.63118e-18)
(8.55382 -3.03775 7.34093e-20)
(9.12824 -1.75952 0)
(8.93071 -0.293997 0)
(8.2597 0.892804 0)
(7.59524 1.60438 0)
(7.13966 1.87199 0)
(6.8979 1.83328 0)
(6.84151 1.66518 1.68365e-19)
(6.92839 1.54208 1.19972e-18)
(7.06426 1.5607 -2.47008e-20)
(7.14643 1.73384 -8.8498e-19)
(7.12456 2.02551 1.25688e-19)
(7.02926 2.38194 1.07788e-19)
(6.97464 2.71841 -1.77281e-19)
(7.14188 2.91816 0)
(7.72544 2.82648 0)
(8.83819 2.37201 5.27365e-19)
(10.4227 1.61282 -5.32429e-19)
(12.2648 0.723482 -1.73787e-20)
(14.0803 -0.0533394 -1.16439e-18)
(15.618 -0.527249 1.16162e-18)
(16.7235 -0.598071 0)
(17.3433 -0.261971 0)
(17.5033 0.419748 0)
(17.2763 1.36062 0)
(16.7527 2.47745 -9.49884e-19)
(16.0208 3.70167 9.52474e-19)
(15.1573 4.9765 -5.01463e-19)
(14.2285 6.25936 2.0572e-19)
(13.2817 7.51351 3.31701e-19)
(12.3523 8.70456 -8.24295e-20)
(11.4807 9.81451 -3.40925e-19)
(10.6845 10.8257 9.21997e-19)
(9.95823 11.7173 -5.04277e-19)
(9.30297 12.4838 -8.73455e-20)
(8.71759 13.1303 9.21692e-19)
(8.19228 13.6588 -1.88383e-18)
(7.71421 14.0687 -1.94748e-19)
(7.27036 14.3594 1.13973e-18)
(6.84952 14.5272 -1.52142e-19)
(6.44181 14.5621 0)
(6.03984 14.4467 0)
(5.6412 14.1562 0)
(5.25275 13.6645 8.42588e-20)
(4.89465 12.9566 6.70903e-20)
(4.59714 12.0483 0)
(4.38656 11.0001 8.48107e-19)
(4.27354 9.90816 -8.69238e-19)
(4.25802 8.87053 -8.15512e-19)
(4.34531 7.94924 8.00734e-19)
(4.55409 7.15404 0)
(4.90915 6.45406 0)
(5.42064 5.79661 -9.53031e-19)
(6.08576 5.1492 9.31707e-19)
(6.88572 4.49677 7.75586e-20)
(7.75924 3.82706 0)
(8.62852 3.14238 0)
(9.41154 2.46078 8.26958e-20)
(10.0306 1.8092 8.18199e-20)
(10.4278 1.21457 0)
(10.5805 0.695772 7.78996e-20)
(10.5077 0.259028 7.17353e-19)
(10.2616 -0.100512 -6.96206e-19)
(9.90847 -0.395102 -1.42013e-19)
(9.50502 -0.630408 -5.83352e-19)
(9.11321 -0.852348 -5.26159e-19)
(0.581826 -2.07162 0)
(2.33901 -3.75114 3.64878e-17)
(2.51392 -5.32721 -3.7169e-17)
(2.28386 -4.65921 0)
(0.659766 -3.20547 0)
(-1.42603 -0.943041 2.81952e-17)
(-3.52584 1.64252 -2.88226e-17)
(-5.26956 4.21041 9.88749e-21)
(-6.48029 6.44658 0)
(-6.96614 7.91767 -2.15106e-21)
(-6.13412 7.6648 2.04323e-21)
(-2.94959 4.19162 -1.95043e-19)
(3.39023 -3.24894 6.55004e-18)
(12.1876 -12.6145 -6.85538e-18)
(20.1264 -19.3061 -1.74775e-17)
(22.7759 -20.2837 1.73813e-17)
(19.5747 -17.0724 0)
(14.73 -13.1767 -3.63817e-19)
(11.8757 -10.5166 0)
(11.1795 -9.19543 0)
(11.4062 -8.71866 0)
(11.7947 -8.67262 1.98287e-17)
(12.1586 -8.83211 -1.22443e-18)
(12.4384 -9.1466 -2.00576e-17)
(12.6456 -9.49583 0)
(12.8268 -9.76885 8.46345e-20)
(13.0715 -9.92063 -1.09166e-19)
(13.458 -9.97865 1.79506e-19)
(14.0166 -9.96098 7.85704e-18)
(14.7167 -9.89208 -7.93562e-18)
(15.4612 -9.77224 -1.98675e-20)
(16.106 -9.58897 -5.99259e-20)
(16.5248 -9.32346 1.65698e-18)
(16.6251 -8.92929 -1.56326e-18)
(16.3516 -8.34707 -3.89486e-19)
(15.6829 -7.5354 3.013e-19)
(14.6629 -6.51272 0)
(13.3995 -5.36252 7.00349e-20)
(12.0261 -4.18145 0)
(10.6584 -3.02627 6.19416e-20)
(9.36866 -1.91009 1.23575e-18)
(8.18948 -0.824157 -1.21194e-18)
(7.13335 0.244474 3.56904e-20)
(6.19877 1.29677 -4.8699e-20)
(5.3773 2.32416 -1.46991e-20)
(4.6636 3.31554 -7.06555e-20)
(4.05217 4.265 7.88372e-20)
(3.52992 5.17195 1.9445e-18)
(3.07742 6.03001 -1.9321e-18)
(2.68655 6.84168 0)
(2.3448 7.60705 1.06947e-19)
(2.03271 8.31563 1.73487e-19)
(1.73819 8.95931 1.41522e-18)
(1.45527 9.53143 -1.4126e-18)
(1.18535 10.0248 -1.47663e-19)
(0.937357 10.4288 1.8951e-18)
(0.73016 10.7275 -2.09147e-18)
(0.591839 10.9005 -8.46663e-20)
(0.557589 10.9247 -6.73541e-20)
(0.660785 10.7812 5.89178e-19)
(0.921842 10.4651 -5.7991e-19)
(1.34187 9.99112 3.46542e-20)
(1.90523 9.3931 -6.82426e-21)
(2.58781 8.71445 0)
(3.36469 7.99517 -1.67496e-19)
(4.21051 7.26022 -2.45637e-20)
(5.10046 6.52189 1.49874e-19)
(6.00732 5.79584 0)
(6.88674 5.06795 -8.10576e-20)
(7.68776 4.33457 1.28195e-20)
(8.35283 3.60354 3.77203e-19)
(8.83096 2.89156 -4.5027e-19)
(9.09479 2.21938 -5.15948e-19)
(9.15527 1.60561 4.67013e-19)
(9.06135 1.06091 -1.28244e-19)
(8.88105 0.587205 4.91711e-19)
(8.67566 0.182103 -3.6056e-19)
(8.48477 -0.154971 1.42142e-19)
(8.31964 -0.428981 -6.41283e-19)
(8.21414 -0.615264 5.02512e-19)
(9.53355 -6.73076 3.03115e-17)
(25.5716 -16.2027 -8.79058e-20)
(31.5193 -21.4473 -9.99289e-20)
(32.4138 -20.895 -7.78788e-20)
(29.764 -19.606 0)
(25.6844 -16.4354 7.41229e-17)
(21.2921 -12.2551 -1.44476e-16)
(17.6917 -7.82217 7.01929e-17)
(15.4702 -3.68571 -5.72302e-17)
(14.7553 -0.133214 6.6252e-18)
(15.426 2.68702 5.26691e-17)
(17.297 4.64614 1.62974e-19)
(20.192 5.59109 1.7498e-19)
(23.7904 5.67818 -3.67313e-17)
(27.3048 5.69262 3.73298e-17)
(29.5772 6.47492 3.69464e-19)
(30.2233 8.42167 2.7053e-17)
(30.1149 11.4198 -2.121e-18)
(30.2637 14.8957 -2.52261e-17)
(30.8013 18.3975 -1.57384e-19)
(31.2743 22.044 1.94205e-19)
(31.3272 26.2247 2.2751e-19)
(30.9713 30.8957 0)
(30.2325 35.1538 5.81703e-20)
(29.1547 37.9502 -1.38069e-17)
(27.8955 38.9127 2.18826e-17)
(26.6875 38.2308 -8.37249e-18)
(25.6699 36.1925 -6.29671e-19)
(24.8692 33.1569 6.39495e-19)
(24.0912 29.3694 5.13287e-18)
(23.035 25.0858 -1.17625e-17)
(21.5361 20.615 -5.84204e-19)
(19.8067 16.2712 7.22317e-18)
(18.0541 12.2043 0)
(16.3105 8.59456 0)
(14.3838 5.59008 1.01935e-19)
(12.2391 3.25134 0)
(10.0519 1.4774 -4.99835e-20)
(8.04634 0.0924159 -3.34834e-18)
(6.34184 -1.0326 5.7187e-18)
(4.93291 -1.93683 -2.44301e-18)
(3.75204 -2.6069 0)
(2.73089 -3.02808 0)
(1.82375 -3.20551 3.33592e-19)
(1.00591 -3.16226 -2.57881e-19)
(0.262375 -2.93077 -7.85242e-20)
(-0.412956 -2.53965 0)
(-1.01955 -2.01287 0)
(-1.5737 -1.39396 1.53221e-18)
(-2.08589 -0.720554 -1.52424e-18)
(-2.54947 -0.00692278 -1.07905e-19)
(-2.95725 0.732108 0)
(-3.30236 1.47747 -1.46536e-18)
(-3.57244 2.2114 1.30273e-18)
(-3.75093 2.91571 -1.80016e-18)
(-3.8181 3.57022 1.96052e-18)
(-3.75053 4.15499 -1.035e-18)
(-3.52729 4.64749 1.85012e-18)
(-3.13532 5.02395 -1.08855e-18)
(-2.57132 5.26795 3.0423e-19)
(-1.84832 5.37124 5.60825e-20)
(-0.995318 5.33618 -3.5298e-19)
(-0.0513889 5.1751 3.53421e-19)
(0.940851 4.90695 0)
(1.94363 4.55482 -4.58801e-19)
(2.9279 4.14718 3.64161e-20)
(3.8538 3.68156 4.83276e-19)
(4.68637 3.16988 0)
(5.39319 2.63442 -1.79452e-20)
(5.9562 2.10655 -7.2013e-20)
(6.37252 1.60955 6.18826e-20)
(6.66265 1.15546 0)
(6.86728 0.747405 0)
(7.03018 0.383863 -4.47881e-20)
(7.18105 0.0640925 5.03736e-20)
(7.32934 -0.210234 3.24077e-19)
(7.46973 -0.437515 -5.31646e-19)
(7.59136 -0.619139 0)
(7.68577 -0.759103 1.25045e-19)
(7.75063 -0.848941 5.22745e-19)
(-2.54823 0.925173 -2.91736e-17)
(-17.8753 9.62034 4.40039e-17)
(-42.8961 23.9317 -2.24195e-17)
(-61.1124 32.0609 -2.23878e-17)
(-65.7458 30.0318 2.32203e-17)
(-61.5062 22.3207 0)
(-53.2452 12.8126 -4.35728e-17)
(-43.8411 3.68024 4.418e-17)
(-34.5217 -4.30358 -4.07248e-17)
(-25.6242 -10.9781 4.1524e-17)
(-17.1276 -16.4372 -3.70124e-17)
(-8.98372 -20.82 7.32306e-17)
(-1.11797 -24.3075 -6.87527e-17)
(6.58366 -27.1663 6.38147e-17)
(14.2076 -29.6392 -5.76095e-17)
(21.7663 -31.8685 2.73086e-17)
(29.0678 -33.975 1.70615e-17)
(35.3479 -36.0803 -2.90726e-17)
(39.125 -38.2291 1.17668e-17)
(39.3706 -40.5039 1.5815e-19)
(36.6868 -42.7091 -1.89034e-19)
(31.9254 -43.4971 -6.10098e-18)
(25.5711 -41.6054 5.92481e-18)
(18.3348 -37.5535 2.53895e-19)
(10.9602 -32.7083 0)
(3.96688 -27.8112 1.94488e-19)
(-2.45714 -23.007 0)
(-8.38442 -18.2961 1.3024e-17)
(-13.8538 -13.6206 -1.22681e-18)
(-18.6253 -9.28406 -1.22056e-17)
(-22.023 -5.99994 -9.2847e-18)
(-23.2788 -4.49955 9.37948e-18)
(-22.1875 -4.79234 -1.55166e-19)
(-19.5899 -6.12719 -1.31842e-19)
(-16.6688 -7.56544 -5.32209e-18)
(-14.1795 -8.68415 5.47645e-18)
(-12.1893 -9.48405 0)
(-10.554 -10.061 3.33305e-18)
(-9.19063 -10.4547 -3.37333e-18)
(-8.07355 -10.6817 -8.74788e-21)
(-7.18582 -10.7647 -1.21318e-19)
(-6.50305 -10.7259 0)
(-5.99802 -10.5805 0)
(-5.64393 -10.3374 0)
(-5.41523 -10.0017 -9.77453e-20)
(-5.28798 -9.57836 1.64579e-18)
(-5.23961 -9.07305 -1.56301e-18)
(-5.24827 -8.49311 0)
(-5.29445 -7.84857 0)
(-5.35983 -7.14911 1.32185e-18)
(-5.42777 -6.40718 -1.24152e-18)
(-5.47999 -5.6339 1.10269e-18)
(-5.49779 -4.84322 -8.25351e-19)
(-5.46077 -4.04803 1.01427e-19)
(-5.3495 -3.26248 -5.79118e-19)
(-5.14664 -2.50284 7.47868e-19)
(-4.83774 -1.78547 -6.95275e-19)
(-4.41324 -1.12732 6.48297e-19)
(-3.87198 -0.543729 0)
(-3.2215 -0.047134 -1.11859e-20)
(-2.47834 0.354503 2.48955e-19)
(-1.66678 0.658294 1.13346e-19)
(-0.814071 0.868946 -7.93155e-19)
(0.0505875 0.987723 8.42102e-19)
(0.897928 1.01967 -4.03407e-19)
(1.7109 0.984369 -3.53536e-19)
(2.47763 0.893919 2.85622e-19)
(3.19019 0.762248 7.13639e-21)
(3.84467 0.599537 1.03103e-19)
(4.44659 0.414674 -7.7139e-20)
(5.00402 0.217152 -2.69372e-20)
(5.52065 0.0177379 -2.4099e-19)
(5.99332 -0.172603 2.03154e-19)
(6.41383 -0.345159 0)
(6.77358 -0.495338 -4.09291e-19)
(7.06773 -0.622545 4.70281e-20)
(7.29644 -0.728401 1.0566e-18)
(7.46371 -0.814925 -4.73425e-19)
(7.57617 -0.88336 5.31207e-19)
(7.65157 -0.922422 -5.18128e-19)
(-15.9345 10.5865 -2.82644e-17)
(-34.6209 19.2491 0)
(-38.0729 25.3194 0)
(-34.9623 21.8204 -7.74636e-20)
(-23.6546 17.5234 0)
(-8.16133 10.0446 0)
(8.31421 1.24221 0)
(23.5029 -7.39643 4.87607e-19)
(36.4924 -15.4523 0)
(47.6549 -22.7397 -1.32822e-19)
(57.7138 -29.4945 -1.32523e-17)
(67.0161 -35.8847 2.20807e-17)
(75.368 -41.6362 -9.21635e-18)
(82.2111 -46.2899 0)
(86.5469 -49.2778 1.2107e-19)
(86.213 -49.2676 -8.75092e-20)
(76.7474 -43.2318 0)
(53.2075 -28.1261 -6.13712e-19)
(18.7728 -7.00128 1.43304e-18)
(-10.3211 9.13869 -6.39214e-19)
(-20.6632 12.3296 -2.64945e-20)
(-17.7412 6.33403 5.05137e-20)
(-13.5998 -0.828355 0)
(-12.3913 -5.58732 -5.77377e-18)
(-13.287 -8.21282 5.73464e-18)
(-15.0602 -9.73168 -6.43366e-18)
(-16.8672 -10.7796 6.48802e-18)
(-18.065 -11.7407 5.51695e-18)
(-18.2635 -12.7488 -5.43347e-18)
(-17.4203 -13.6891 0)
(-15.7982 -14.3708 -3.15497e-18)
(-13.7724 -14.7411 3.19039e-18)
(-11.7213 -14.8963 1.53351e-19)
(-9.93116 -14.9378 -1.7725e-18)
(-8.51843 -14.9187 1.92198e-18)
(-7.44486 -14.8595 -6.49255e-20)
(-6.61676 -14.771 -4.66899e-20)
(-5.96431 -14.6572 -1.65761e-18)
(-5.44656 -14.5163 1.66603e-18)
(-5.03503 -14.3424 1.58958e-18)
(-4.71017 -14.1288 9.9257e-20)
(-4.45895 -13.8688 -1.75404e-18)
(-4.2727 -13.5569 0)
(-4.1449 -13.1889 1.13336e-19)
(-4.06953 -12.7628 -1.26064e-18)
(-4.03991 -12.2788 2.97077e-18)
(-4.04829 -11.7397 -2.73196e-18)
(-4.08566 -11.15 1.23803e-18)
(-4.14152 -10.5165 0)
(-4.20419 -9.84664 7.59246e-20)
(-4.26039 -9.14933 -9.87907e-19)
(-4.29617 -8.43339 9.78062e-19)
(-4.29678 -7.70786 -2.48046e-21)
(-4.24781 -6.9828 -6.83247e-19)
(-4.13585 -6.26786 5.0001e-19)
(-3.9491 -5.57278 -4.80084e-19)
(-3.67941 -4.90759 -3.61531e-19)
(-3.32273 -4.28235 7.92379e-19)
(-2.87972 -3.70641 -4.21769e-19)
(-2.35575 -3.18785 4.26426e-19)
(-1.76048 -2.73274 0)
(-1.10719 -2.34491 5.98718e-21)
(-0.411518 -2.02396 -1.00853e-20)
(0.314444 -1.76631 3.56951e-20)
(1.05707 -1.56437 1.67019e-20)
(1.80118 -1.41193 0)
(2.53347 -1.30397 1.49319e-19)
(3.24341 -1.23258 -9.62275e-20)
(3.92134 -1.1872 -2.50293e-21)
(4.55531 -1.16066 -5.33769e-20)
(5.13482 -1.14639 8.08453e-20)
(5.65162 -1.13954 -3.04853e-20)
(6.10077 -1.13731 -5.0433e-19)
(6.48106 -1.13807 4.25098e-19)
(6.79438 -1.14048 -7.41607e-20)
(7.04473 -1.14299 0)
(7.23758 -1.14405 -7.02882e-19)
(7.37973 -1.14254 5.57265e-19)
(7.48024 -1.1367 0)
(7.55265 -1.12113 -6.10486e-19)
(16.0117 -6.68783 -1.38597e-18)
(39.5622 -12.3256 -8.58401e-17)
(50.3264 -14.0209 7.62298e-17)
(56.7177 -7.77307 -1.47704e-16)
(56.1023 -1.62894 7.12089e-17)
(50.1166 6.45199 3.56848e-20)
(41.8611 14.0509 4.47511e-17)
(35.5145 20.1387 -4.59502e-17)
(31.4433 25.2041 -6.21047e-20)
(28.3129 29.0788 6.18682e-20)
(25.9238 30.018 -1.70107e-17)
(24.4143 27.0029 -4.02969e-18)
(23.3138 21.0159 2.1968e-17)
(21.8244 13.9114 -3.77019e-18)
(19.2705 7.04551 2.86473e-18)
(15.3477 0.997794 1.01827e-18)
(10.2426 -3.80424 0)
(4.54514 -6.63515 0)
(-0.895369 -6.82648 -9.89712e-18)
(-5.45578 -4.78467 -1.73357e-18)
(-8.97995 -2.05509 1.17247e-17)
(-11.77 -0.0275853 -1.35851e-17)
(-14.2397 0.918684 2.75516e-17)
(-16.4568 0.98682 -1.38947e-17)
(-18.1623 0.412981 -1.24782e-17)
(-19.0378 -0.63052 1.45642e-18)
(-18.9134 -1.9858 1.14484e-17)
(-17.8032 -3.53543 -1.40982e-19)
(-15.9074 -5.14362 1.12209e-19)
(-13.5584 -6.68506 -1.67265e-19)
(-11.1333 -8.06419 0)
(-8.93909 -9.22004 -1.83389e-18)
(-7.14403 -10.1335 2.79697e-18)
(-5.77898 -10.8154 -9.15459e-19)
(-4.77252 -11.3058 0)
(-4.01641 -11.6467 -1.12066e-18)
(-3.41497 -11.8745 1.13416e-18)
(-2.90963 -12.0162 0)
(-2.48079 -12.0992 0)
(-2.12084 -12.1325 -2.05214e-18)
(-1.82523 -12.1126 2.11735e-18)
(-1.59131 -12.0344 -4.54958e-20)
(-1.41696 -11.8934 0)
(-1.30024 -11.6876 1.90923e-18)
(-1.23751 -11.4176 -2.2309e-19)
(-1.22376 -11.0864 -2.0064e-18)
(-1.25261 -10.698 -1.26661e-19)
(-1.31654 -10.2577 2.06371e-19)
(-1.40707 -9.77299 0)
(-1.51435 -9.25409 -1.32799e-18)
(-1.62613 -8.71362 2.40869e-18)
(-1.72716 -8.1655 -1.21831e-18)
(-1.80003 -7.62251 -1.14163e-19)
(-1.82735 -7.09405 -9.82094e-19)
(-1.79444 -6.58531 1.55377e-19)
(-1.69071 -6.0984 1.535e-18)
(-1.50999 -5.63425 -5.39615e-19)
(-1.25028 -5.19383 0)
(-0.913116 -4.77871 0)
(-0.503148 -4.39087 9.37691e-20)
(-0.0279091 -4.03217 8.63565e-20)
(0.502659 -3.70396 0)
(1.07667 -3.40648 7.147e-19)
(1.68121 -3.13892 -7.03471e-19)
(2.30385 -2.90044 -6.9459e-19)
(2.93122 -2.68922 -1.12655e-19)
(3.55021 -2.50303 5.73487e-19)
(4.1476 -2.3387 -6.19927e-19)
(4.71252 -2.1934 6.05255e-19)
(5.23557 -2.06417 -5.27574e-20)
(5.70925 -1.94833 5.95994e-19)
(6.12846 -1.84345 -5.74217e-19)
(6.49047 -1.74744 -6.15978e-19)
(6.79499 -1.65867 7.65574e-19)
(7.04413 -1.57615 -6.28396e-19)
(7.24213 -1.49937 6.82027e-19)
(7.3948 -1.42808 -7.07253e-19)
(7.50879 -1.36197 1.3893e-18)
(7.59178 -1.29963 1.54511e-20)
(7.65199 -1.24339 1.47719e-20)
(4.65658 -5.24887 -4.80679e-17)
(-5.17434 -8.69236 5.36013e-20)
(-28.1859 -2.60162 6.59908e-17)
(-54.0166 -0.90953 -1.29679e-16)
(-66.943 -3.43391 6.35609e-17)
(-63.4064 -13.7142 -4.83656e-17)
(-44.7592 -28.4506 9.2309e-18)
(-23.083 -40.9682 3.99522e-17)
(-12.1867 -45.1667 -2.27774e-17)
(-14.8029 -40.2044 2.24184e-17)
(-23.9085 -30.4687 -9.35128e-18)
(-31.5532 -21.338 9.18967e-18)
(-33.8229 -15.7212 -3.16748e-18)
(-30.9907 -13.4832 3.24135e-18)
(-25.4712 -13.0531 -1.03575e-20)
(-19.7347 -12.9456 -2.42656e-20)
(-15.295 -12.2826 -4.76641e-18)
(-12.7098 -10.7345 4.85708e-18)
(-11.8789 -8.27665 1.23808e-19)
(-12.3805 -5.06811 -2.35664e-19)
(-13.6929 -1.38249 -1.08813e-17)
(-15.3043 2.42789 1.07399e-17)
(-16.7368 5.96709 0)
(-17.5669 8.85213 5.14283e-20)
(-17.4986 10.7961 0)
(-16.4799 11.7528 0)
(-14.6037 11.7878 -4.46435e-20)
(-12.0959 11.0673 8.37006e-18)
(-9.27702 9.8202 -8.36507e-18)
(-6.48747 8.27879 -4.26825e-18)
(-4.00791 6.64411 4.47885e-18)
(-2.00147 5.07387 -6.85033e-20)
(-0.491528 3.67687 3.09191e-20)
(0.591727 2.4926 0)
(1.35658 1.50919 -2.2749e-19)
(1.90664 0.686811 0)
(2.31382 -0.0237439 0)
(2.63306 -0.653528 -1.92308e-19)
(2.90155 -1.22547 0)
(3.13389 -1.75885 0)
(3.32827 -2.27247 3.06983e-18)
(3.47355 -2.78512 -2.91552e-18)
(3.56083 -3.30199 0)
(3.58315 -3.81995 0)
(3.53942 -4.31838 0)
(3.43237 -4.77636 -1.9499e-19)
(3.26747 -5.1683 1.25826e-19)
(3.04911 -5.46783 1.97604e-18)
(2.78071 -5.65612 -2.08479e-18)
(2.4674 -5.72946 1.78696e-18)
(2.12113 -5.70293 -1.9798e-18)
(1.76456 -5.60557 1.87227e-19)
(1.42923 -5.469 9.71927e-20)
(1.14903 -5.31555 0)
(0.95187 -5.15372 0)
(0.853961 -4.9833 -1.06658e-18)
(0.862422 -4.80333 -6.19208e-20)
(0.974776 -4.61418 1.15188e-18)
(1.18344 -4.41928 -1.02586e-18)
(1.47777 -4.22271 1.06225e-18)
(1.84495 -4.02771 1.69983e-18)
(2.27079 -3.83656 -9.06466e-20)
(2.74042 -3.65072 -3.06536e-18)
(3.2391 -3.47118 1.52394e-18)
(3.7527 -3.29858 1.08636e-19)
(4.26803 -3.13308 1.21154e-19)
(4.77302 -2.97436 1.21814e-18)
(5.25688 -2.82157 -2.35062e-18)
(5.71017 -2.67341 1.13278e-18)
(6.12507 -2.52851 1.06179e-19)
(6.49557 -2.38577 1.03136e-18)
(6.8178 -2.24472 -1.15191e-18)
(7.09027 -2.10565 0)
(7.31381 -1.96955 -1.01419e-19)
(7.49121 -1.83785 0)
(7.62667 -1.71211 8.92137e-19)
(7.72521 -1.59378 1.66471e-21)
(7.79232 -1.48387 -8.40351e-19)
(7.83433 -1.38265 5.95318e-19)
(7.85687 -1.29808 2.15941e-19)
(-26.1752 14.0081 2.06858e-17)
(-57.8353 28.3455 -3.11039e-17)
(-63.3018 30.9911 -1.19257e-20)
(-55.3498 24.8597 -3.11999e-17)
(-35.3173 14.4937 3.19215e-17)
(-0.600981 -2.37725 -3.24395e-17)
(39.4511 -21.6351 6.85117e-17)
(66.6456 -36.3483 -3.49633e-17)
(72.0865 -42.2089 4.01512e-17)
(63.4401 -40.5456 -4.0063e-17)
(51.9189 -35.5378 0)
(42.666 -30.202 3.72764e-19)
(36.1767 -25.5466 -2.9913e-20)
(31.5025 -21.6479 0)
(27.7238 -18.4458 0)
(24.4148 -15.978 0)
(21.4662 -14.3551 0)
(18.9376 -13.7053 9.21629e-20)
(16.929 -14.0896 0)
(15.4095 -15.3193 8.79401e-18)
(14.0817 -16.8453 -8.52022e-18)
(12.5083 -17.9229 -2.5537e-18)
(10.4428 -17.9908 2.72926e-18)
(8.01683 -16.9228 -8.22803e-18)
(5.63271 -14.9964 8.50033e-18)
(3.67675 -12.5679 -1.48943e-17)
(2.42047 -10.0059 1.51391e-17)
(1.95225 -7.58542 -1.76789e-17)
(2.17791 -5.42483 -1.155e-19)
(2.88621 -3.52851 1.83716e-17)
(3.84536 -1.82422 0)
(4.85678 -0.253849 3.73466e-19)
(5.79938 1.1964 3.49976e-19)
(6.62519 2.52702 0)
(7.3259 3.72431 2.24737e-19)
(7.90285 4.77655 0)
(8.35803 5.69941 0)
(8.68333 6.50944 9.08859e-18)
(8.86045 7.21173 -1.66576e-17)
(8.87185 7.80474 7.97193e-18)
(8.70645 8.28078 6.14482e-18)
(8.3647 8.61846 -6.35581e-18)
(7.86972 8.79567 -1.68504e-19)
(7.25533 8.77997 0)
(6.56763 8.55459 4.242e-18)
(5.86088 8.10852 -3.76271e-18)
(5.18038 7.43111 0)
(4.55599 6.54151 0)
(3.98423 5.50178 -2.08351e-18)
(3.4235 4.40691 2.43973e-18)
(2.82847 3.3517 2.07208e-18)
(2.2117 2.39152 -1.89392e-18)
(1.66088 1.52354 -1.67673e-18)
(1.2823 0.718315 3.0972e-18)
(1.13497 -0.0336147 -1.51567e-18)
(1.20059 -0.726182 -4.10669e-19)
(1.42309 -1.33739 0)
(1.75567 -1.83909 2.21498e-19)
(2.16166 -2.22651 -1.16267e-18)
(2.61648 -2.50752 2.53694e-18)
(3.10272 -2.69577 -1.30645e-18)
(3.60649 -2.80697 0)
(4.11521 -2.85671 -1.2279e-19)
(4.61848 -2.85976 0)
(5.10759 -2.82862 -1.08542e-19)
(5.57533 -2.77329 -1.41839e-19)
(6.01572 -2.70108 -2.6529e-19)
(6.4235 -2.61671 -1.69633e-18)
(6.79386 -2.52261 1.4246e-18)
(7.12235 -2.41972 -2.1692e-19)
(7.40521 -2.3084 -1.41788e-18)
(7.64 -2.18925 1.71889e-18)
(7.82617 -2.06364 -1.2693e-18)
(7.96539 -1.93386 1.23416e-18)
(8.06147 -1.80287 -1.30351e-18)
(8.11988 -1.6739 9.61434e-19)
(8.14701 -1.54991 1.03827e-18)
(8.14966 -1.4331 -1.00635e-18)
(8.13465 -1.32504 2.2087e-19)
(8.10632 -1.23697 -2.14378e-19)
(-27.2491 13.1097 1.86092e-17)
(-56.3271 28.463 2.8094e-17)
(-60.5574 30.0373 -5.63755e-17)
(-52.6925 26.9349 5.73438e-17)
(-44.557 22.2101 -2.91924e-17)
(-32.9442 15.7347 6.5199e-21)
(-18.2348 7.04998 3.15951e-17)
(-3.15994 -2.29582 -6.57638e-17)
(10.9438 -10.6737 -1.95878e-18)
(24.7707 -17.8544 3.64087e-17)
(38.4988 -24.0185 -5.54274e-19)
(50.7873 -28.767 -3.98463e-17)
(59.6259 -31.2622 4.07265e-17)
(63.3462 -30.8204 -3.92776e-17)
(61.3281 -27.3219 4.00916e-17)
(54.1606 -21.2431 3.56066e-17)
(42.9057 -13.1824 -3.63158e-17)
(28.4189 -3.81148 -9.22608e-20)
(11.9793 5.56453 0)
(-3.62259 13.0111 -1.97551e-17)
(-14.8452 17.1263 1.97166e-17)
(-19.9438 17.9049 5.66425e-19)
(-20.0127 16.3818 1.02128e-17)
(-17.4296 13.8039 -1.07581e-17)
(-14.0698 11.0845 1.05879e-19)
(-10.8142 8.67108 0)
(-7.90428 6.65921 -2.02695e-19)
(-5.34788 5.00028 -3.83179e-19)
(-3.11265 3.61218 -8.50692e-18)
(-1.18223 2.41693 8.73705e-18)
(0.452713 1.34892 7.32338e-18)
(1.81071 0.367903 -7.68767e-18)
(2.9263 -0.523121 -1.9845e-19)
(3.82321 -1.31664 -6.49248e-18)
(4.51411 -1.99574 1.25921e-17)
(4.98895 -2.54803 -6.24021e-18)
(5.22178 -2.9727 -5.89936e-18)
(5.18982 -3.26336 6.07782e-18)
(4.8784 -3.41074 -7.73244e-20)
(4.2859 -3.41083 -1.51513e-19)
(3.4316 -3.26914 1.96835e-19)
(2.36286 -3.00304 -5.5924e-18)
(1.15544 -2.64217 3.98442e-19)
(-0.103379 -2.23785 5.3806e-18)
(-1.31419 -1.83932 -5.10078e-18)
(-2.37643 -1.49258 4.80932e-18)
(-3.21659 -1.2412 0)
(-3.7837 -1.10199 4.13234e-18)
(-4.05715 -1.07787 -4.061e-18)
(-4.04503 -1.15518 3.18209e-18)
(-3.77654 -1.30372 -3.63526e-19)
(-3.29398 -1.48867 -1.81257e-19)
(-2.63804 -1.67157 -1.61088e-19)
(-1.84839 -1.82576 -1.3806e-19)
(-0.972902 -1.9483 -2.55935e-18)
(-0.0567715 -2.0428 7.8185e-20)
(0.861078 -2.11168 0)
(1.75455 -2.15879 -2.30271e-18)
(2.60454 -2.18617 1.83959e-18)
(3.39854 -2.19425 0)
(4.1291 -2.18445 -1.9975e-18)
(4.79346 -2.15809 1.49333e-18)
(5.39144 -2.11923 0)
(5.92467 -2.0742 -2.01244e-19)
(6.3977 -2.02736 0)
(6.81605 -1.98249 -2.37549e-18)
(7.18521 -1.94174 4.91135e-18)
(7.50944 -1.90486 -2.29385e-18)
(7.79089 -1.86939 2.31699e-19)
(8.02951 -1.8314 2.16784e-19)
(8.22385 -1.78675 -1.77208e-18)
(8.37256 -1.73228 1.53566e-18)
(8.47584 -1.66663 -2.12121e-19)
(8.53626 -1.59041 -1.97905e-19)
(8.55875 -1.5058 3.43602e-19)
(8.54986 -1.4159 1.49864e-19)
(8.5168 -1.32399 1.36606e-18)
(8.46656 -1.23288 -3.19673e-20)
(8.40537 -1.14534 -1.24235e-18)
(8.3359 -1.07398 -2.71889e-19)
(-3.39551 3.27942 0)
(-15.7416 20.338 -4.41529e-19)
(-34.2611 29.7805 -1.01117e-19)
(-36.1454 41.3373 -7.14693e-17)
(-24.9051 40.5831 1.37463e-16)
(-2.2332 33.1667 -1.22492e-16)
(22.2694 21.0374 5.79219e-17)
(37.7971 9.70385 0)
(40.8654 2.01162 5.95072e-19)
(35.5278 -3.67309 -3.40871e-17)
(27.5211 -10.1202 3.54446e-17)
(20.2524 -18.723 3.06757e-17)
(14.6334 -29.3761 -6.23004e-17)
(10.3167 -41.0658 -4.42031e-19)
(6.4723 -52.2594 -5.56739e-19)
(2.04661 -61.3119 3.36936e-17)
(-3.92388 -66.7917 1.39801e-19)
(-11.2381 -68.0287 -3.28604e-17)
(-17.9112 -65.6423 3.33065e-17)
(-21.7508 -61.1814 4.05655e-19)
(-22.0752 -56.0337 1.5018e-19)
(-19.6772 -50.9061 -2.94717e-19)
(-15.9005 -45.979 -1.72151e-17)
(-11.8649 -41.2965 4.25096e-18)
(-8.1509 -36.842 1.35144e-17)
(-5.01291 -32.6565 1.77486e-19)
(-2.50958 -28.7723 -6.31163e-18)
(-0.61744 -25.2096 1.13964e-17)
(0.72765 -21.9849 -8.57519e-18)
(1.61733 -19.1007 3.54867e-18)
(2.15039 -16.5399 0)
(2.41101 -14.2865 -3.57325e-18)
(2.46504 -12.3283 6.4037e-18)
(2.36093 -10.6486 -2.9197e-18)
(2.13468 -9.23241 2.74582e-18)
(1.81607 -8.06747 -2.96754e-18)
(1.43058 -7.1399 -1.43676e-19)
(1.00062 -6.4275 0)
(0.54391 -5.89448 -2.81984e-20)
(0.0726879 -5.4938 -3.60582e-18)
(-0.403719 -5.17565 3.89889e-18)
(-0.873871 -4.89468 -1.37727e-19)
(-1.31912 -4.61453 1.39638e-19)
(-1.71323 -4.31379 0)
(-2.0254 -3.98499 0)
(-2.22184 -3.62593 3.90314e-18)
(-2.27412 -3.24456 -4.42909e-18)
(-2.16822 -2.8642 -2.50362e-19)
(-1.90355 -2.50528 -3.77897e-18)
(-1.49365 -2.18071 7.62632e-18)
(-0.961545 -1.89507 -3.37652e-18)
(-0.333381 -1.64585 0)
(0.36396 -1.43403 3.39518e-18)
(1.10637 -1.26293 -3.15463e-18)
(1.87125 -1.12788 0)
(2.63971 -1.02168 2.91772e-18)
(3.39539 -0.938208 -2.7229e-18)
(4.1225 -0.872645 2.47722e-18)
(4.80673 -0.820786 -2.12931e-18)
(5.43631 -0.779259 0)
(6.00273 -0.746046 5.21699e-19)
(6.5011 -0.720616 2.2928e-19)
(6.93132 -0.704168 -1.81709e-18)
(7.29715 -0.698702 2.86545e-19)
(7.60638 -0.706563 1.66401e-18)
(7.86952 -0.729397 0)
(8.09736 -0.767108 1.62918e-19)
(8.29829 -0.817087 0)
(8.47618 -0.874144 0)
(8.62997 -0.931325 -2.2091e-18)
(8.75507 -0.981375 2.15389e-18)
(8.84618 -1.01829 1.6539e-18)
(8.89988 -1.0384 1.30707e-19)
(8.91617 -1.04067 -1.53106e-18)
(8.89846 -1.02632 -1.73001e-18)
(8.85261 -0.998056 1.50016e-18)
(8.7855 -0.959254 -1.62146e-19)
(8.70398 -0.913198 -1.26474e-18)
(8.61389 -0.863517 2.71145e-18)
(8.51725 -0.822414 -8.86893e-19)
(16.9932 -7.59604 -7.68859e-17)
(27.4142 -13.2107 5.73969e-17)
(14.7879 -7.74663 5.26429e-17)
(-9.25661 3.6242 -5.38571e-17)
(-39.4067 20.9476 8.65632e-20)
(-71.9342 39.6709 7.48004e-20)
(-97.596 54.1679 0)
(-114.305 62.8181 -3.34091e-17)
(-125.036 67.7098 3.44454e-17)
(-132.512 70.8333 0)
(-137.809 72.9232 2.68547e-17)
(-140.913 73.925 -5.20338e-17)
(-141.178 73.4836 2.72904e-18)
(-137.012 70.8853 4.34195e-17)
(-124.99 64.6774 -2.08516e-17)
(-101.63 53.3341 1.20385e-19)
(-68.3765 37.413 -4.36058e-19)
(-33.4749 20.4714 0)
(-5.6397 6.37013 -1.07897e-17)
(12.4505 -3.59952 1.11469e-17)
(23.0076 -10.3073 -2.46362e-19)
(29.089 -15.0142 -3.80388e-18)
(32.6277 -18.4878 3.55641e-18)
(34.4206 -21.0724 -9.39008e-20)
(34.8083 -22.8095 6.43686e-20)
(33.9945 -23.6811 -1.75801e-19)
(32.2202 -23.7032 2.5773e-18)
(29.8007 -22.9712 7.10277e-20)
(27.0781 -21.6539 -4.93725e-18)
(24.3346 -19.9475 1.87415e-19)
(21.7455 -18.0143 2.22608e-18)
(19.379 -15.9773 1.96325e-18)
(17.2338 -13.9309 -2.08439e-18)
(15.2783 -11.9496 0)
(13.4702 -10.0916 1.00397e-19)
(11.7686 -8.40071 1.02304e-19)
(10.1617 -6.92542 0)
(8.67474 -5.71068 4.08665e-18)
(7.3302 -4.7581 -4.2251e-18)
(6.11608 -4.01324 -1.27882e-19)
(5.00328 -3.39818 0)
(3.97828 -2.85244 1.37159e-19)
(3.04995 -2.35123 4.65751e-18)
(2.24207 -1.88738 -4.6441e-18)
(1.58365 -1.45751 0)
(1.09466 -1.06659 -3.97967e-18)
(0.789594 -0.718885 4.64583e-18)
(0.673407 -0.416529 0)
(0.739644 -0.160294 0)
(0.971661 0.050587 -2.37831e-19)
(1.3457 0.219412 -2.28781e-19)
(1.83446 0.351562 0)
(2.41059 0.452653 3.24224e-18)
(3.0452 0.527774 -3.42165e-18)
(3.71038 0.581587 -3.16089e-18)
(4.38077 0.61825 3.0912e-19)
(5.0337 0.640875 5.83646e-18)
(5.6494 0.651405 -5.53377e-18)
(6.2115 0.650765 -1.99823e-19)
(6.70772 0.639111 2.20842e-18)
(7.13071 0.616054 -2.77067e-19)
(7.47875 0.580843 0)
(7.75616 0.532553 0)
(7.97321 0.470284 1.85781e-18)
(8.1449 0.393463 -2.04809e-18)
(8.28842 0.302281 0)
(8.41946 0.198233 1.97293e-19)
(8.54814 0.0845663 0)
(8.67659 -0.0336804 1.30488e-18)
(8.79918 -0.150239 -1.27352e-18)
(8.90567 -0.258671 2.96705e-19)
(8.98557 -0.353515 2.35426e-18)
(9.03175 -0.431121 -2.04229e-18)
(9.04206 -0.489922 2.38735e-19)
(9.01891 -0.530223 0)
(8.96774 -0.553684 0)
(8.89528 -0.562723 0)
(8.8082 -0.559981 -1.55194e-18)
(8.71209 -0.548682 -1.10772e-19)
(8.60877 -0.539098 2.46309e-18)
(-2.68209 -0.998044 -3.77727e-17)
(14.6908 -10.4154 -5.56173e-17)
(48.4371 -25.6997 5.68914e-17)
(79.5345 -40.2313 -5.66647e-17)
(93.4197 -47.231 5.78363e-17)
(90.4614 -46.8802 -8.58279e-20)
(78.4299 -41.5505 -6.18444e-20)
(64.2839 -34.0012 0)
(51.1629 -25.7934 -3.40116e-19)
(40.0066 -17.5462 0)
(31.0174 -9.4727 1.33219e-20)
(24.187 -1.69201 4.39379e-17)
(19.3591 5.75046 -4.46911e-17)
(16.0004 12.9542 -3.47508e-17)
(13.5061 19.8789 3.5289e-17)
(11.5158 26.175 -2.39923e-17)
(9.85518 31.296 2.47167e-17)
(8.35732 34.7891 0)
(6.8193 36.5941 0)
(5.25615 37.0337 0)
(3.96122 36.4589 4.20627e-18)
(3.30592 35.0512 -6.17791e-18)
(3.54484 32.8695 1.5818e-18)
(4.71908 29.975 -1.20773e-19)
(6.71081 26.4612 7.67152e-19)
(9.25516 22.5339 0)
(12.0283 18.3816 1.50049e-19)
(14.7373 14.212 0)
(17.1418 10.1988 -2.9978e-18)
(19.0673 6.54104 2.90651e-18)
(20.3803 3.46023 -4.7655e-20)
(20.974 1.10027 0)
(20.7864 -0.522331 4.86329e-18)
(19.8322 -1.49985 -9.91604e-18)
(18.1566 -1.96524 5.15299e-18)
(15.7733 -1.99402 -4.71947e-18)
(12.7521 -1.66854 9.11752e-18)
(9.41915 -1.18873 -4.39036e-18)
(6.34397 -0.786267 0)
(3.99611 -0.575372 0)
(2.47168 -0.534046 0)
(1.57766 -0.578867 2.70607e-18)
(1.07208 -0.624389 -8.00034e-18)
(0.795729 -0.617231 5.13854e-18)
(0.677882 -0.541704 0)
(0.695854 -0.403774 -4.71438e-18)
(0.842322 -0.218214 4.562e-18)
(1.1099 -0.00235431 4.27963e-18)
(1.48648 0.227003 -4.00716e-19)
(1.95501 0.455332 -1.19991e-19)
(2.49571 0.671165 -1.18561e-19)
(3.0873 0.865424 -3.82519e-18)
(3.70789 1.03177 0)
(4.33577 1.16641 0)
(4.94995 1.26754 -3.04408e-18)
(5.53106 1.33481 3.22286e-18)
(6.06225 1.36903 0)
(6.53018 1.37192 0)
(6.92613 1.34598 1.6906e-19)
(7.2468 1.29434 3.12689e-19)
(7.49503 1.22071 0)
(7.67991 1.12923 0)
(7.81612 1.02424 -2.65202e-19)
(7.9224 0.910047 -2.48703e-19)
(8.01866 0.790535 2.03327e-18)
(8.12212 0.66897 -3.459e-18)
(8.24333 0.54797 -1.21871e-19)
(8.38345 0.42969 3.01508e-18)
(8.53442 0.316081 -2.98949e-18)
(8.6822 0.209075 2.62036e-18)
(8.81156 0.110581 -5.06964e-19)
(8.91051 0.0223393 -1.16165e-18)
(8.97267 -0.0542949 2.06732e-18)
(8.99723 -0.118523 -7.49457e-20)
(8.98761 -0.170182 -3.66275e-18)
(8.94948 -0.209709 1.95691e-18)
(8.88929 -0.238003 0)
(8.81316 -0.25625 3.67969e-19)
(8.72615 -0.26628 0)
(8.62995 -0.275703 -1.27829e-18)
(2.76253 2.19442 0)
(7.06086 7.83602 9.58717e-20)
(7.64429 11.8955 -9.69456e-20)
(7.85252 18.5684 -8.6225e-17)
(9.18929 22.4035 1.69991e-16)
(13.6364 24.9616 -8.36628e-17)
(19.2679 26.7783 6.21886e-20)
(23.5687 29.0789 0)
(25.3093 32.3772 0)
(24.5511 36.3866 0)
(22.0524 40.5037 -1.35319e-20)
(18.7163 44.0499 -2.09075e-19)
(15.2949 46.327 0)
(12.4217 46.6592 1.96952e-19)
(10.7025 44.5828 4.5457e-19)
(10.5787 40.1016 2.22249e-17)
(11.9475 33.8879 -2.26726e-17)
(13.8591 27.1438 -3.83562e-19)
(15.1752 21.1274 0)
(15.3465 16.5727 3.31041e-19)
(14.5131 13.5344 -6.63772e-20)
(13.1217 11.6354 1.21311e-17)
(11.5625 10.3815 -1.02271e-18)
(10.0298 9.40491 -1.11566e-17)
(8.58411 8.43568 -1.66592e-19)
(7.21578 7.35476 1.64911e-19)
(5.89011 6.11388 -7.90861e-18)
(4.61849 4.71085 7.31523e-18)
(3.4825 3.13984 2.18353e-19)
(2.59938 1.36855 1.42334e-19)
(2.03932 -0.602126 1.42431e-19)