/*--------------------------------*- C++ -*----------------------------------*\
| =========                 |                                                 |
| \\      /  F ield         | OpenFOAM: The Open Source CFD Toolbox           |
|  \\    /   O peration     | Version:  2012                                  |
|   \\  /    A nd           | Website:  www.openfoam.com                      |
|    \\/     M anipulation  |                                                 |
\*---------------------------------------------------------------------------*/
FoamFile
{
    version     2.0;
    format      ascii;
    class       volScalarField;
    location    "0.79";
    object      p;
}
// * * * * * * * * * * * * * * * * * * * * * * * * * * * * * * * * * * * * * //

dimensions      [0 2 -2 0 0 0 0];


internalField   nonuniform List<scalar> 
42400
(
-6001.26
-5823.22
-5613.65
-5367.79
-5066.63
-4705.27
-4286.63
-3831.75
-3371.49
-2938.52
-2564.24
-2273.63
-2076.67
-1960.84
-1894.63
-1843.94
-1787.66
-1720.63
-1646.55
-1569.18
-1485.49
-1385.99
-1262.29
-1116.03
-960.573
-811.88
-680.49
-569.288
-476.192
-397.609
-330.095
-270.789
-217.688
-169.677
-126.266
-87.4576
-53.436
-24.3656
-0.304067
18.841
33.3162
43.5065
49.9045
53.0752
53.6222
52.1519
49.2437
45.4257
41.1518
36.7835
32.5765
28.6796
25.1484
21.9683
19.0833
16.4257
13.9378
11.5853
9.35809
7.26315
5.31273
3.51474
1.86834
0.364596
-1.01001
-2.26977
-3.42741
-4.49401
-5.48123
-6.40634
-7.29617
-8.28318
-9.3218
-10.4955
-11.8816
-13.5203
-15.4043
-17.4797
-19.6623
-21.7376
6482.49
6249.67
5936.68
5552.75
5067.44
4595.61
4193.14
3874.25
3621.17
3402.05
3186.46
2952.74
2691.47
2401.85
2082.71
1731.39
1352.6
966.225
602.02
290.691
57.1632
-87.5604
-153.801
-167.004
-152.665
-128.989
-105.75
-86.4228
-71.1399
-58.9867
-48.9743
-40.2816
-32.2929
-24.5907
-16.965
-9.41153
-2.0878
4.77621
10.9013
16.0213
19.8967
22.4989
23.8853
24.168
23.5279
22.1887
20.3743
18.2769
16.0562
13.8336
11.6889
9.66206
7.76284
5.98464
4.31862
2.7648
1.33821
0.0669712
-1.01733
-1.89258
-2.55673
-3.03181
-3.36035
-3.59688
-3.79825
-4.01597
-4.29231
-4.66016
-5.14619
-5.77563
-6.57603
-7.57967
-8.81052
-10.2867
-12.0068
-13.9365
-16.0002
-18.1225
-20.2313
-22.1844
3856.03
3792.29
3692.95
3531.63
3315.33
3049.48
2744.87
2410.1
2055.77
1696.54
1346.61
1018.24
720.475
459.663
242.919
85.5118
14.0673
52.9128
200.495
409.467
602.093
722.094
764.68
754.277
712.682
651.956
580.731
506.723
435.117
368.97
309.744
257.808
212.877
174.299
141.275
113.01
88.8282
68.1799
50.6618
35.9566
23.8218
13.9638
6.06702
-0.143881
-4.93333
-8.5314
-11.0319
-12.7684
-13.8958
-14.5373
-14.8116
-14.8238
-14.6633
-14.4008
-14.0839
-13.736
-13.3596
-12.9438
-12.4748
-11.9456
-11.3628
-10.7477
-10.1347
-9.56579
-9.08507
-8.7347
-8.55226
-8.56973
-8.81268
-9.29905
-10.0369
-11.0219
-12.2362
-13.6493
-15.2213
-16.9031
-18.6522
-20.415
-22.1456
-23.7711
-6010.87
-5390.71
-4596.82
-3847.47
-3151.19
-2600.68
-2146.73
-1740.14
-1354.04
-978.517
-615.316
-277.084
15.2689
239.16
382.382
449.499
458.074
430.146
385.187
334.037
280.049
225.475
174.062
129.03
91.9504
62.337
39.1809
20.8625
6.56702
-4.20049
-11.843
-16.7865
-19.5217
-20.6116
-20.7399
-20.6282
-20.8484
-21.7005
-23.2048
-25.174
-27.328
-29.4032
-31.2109
-32.646
-33.6599
-34.2488
-34.5623
-34.6488
-34.4086
-33.8806
-33.1248
-32.1916
-31.1281
-29.9753
-28.7648
-27.5182
-26.249
-24.9659
-23.6772
-22.3946
-21.1357
-19.9248
-18.7915
-17.7688
-16.8903
-16.187
-15.685
-15.4038
-15.3551
-15.5425
-15.9621
-16.6023
-17.4444
-18.4616
-19.6203
-20.8807
-22.1969
-23.5259
-24.8386
-26.1045
1144.43
1066
981.917
911.536
811.21
705.596
596.233
475.315
335.538
181.749
33.4207
-89.7961
-176.475
-222.938
-230.428
-204.323
-154.878
-94.8731
-37.446
6.96903
32.7283
38.5473
25.8428
-3.30322
-46.1908
-97.4584
-151.151
-201.004
-241.307
-267.78
-278.286
-273.214
-255.215
-228.556
-198.159
-168.486
-142.622
-121.915
-106.25
-94.6719
-86.0372
-79.388
-74.0611
-69.651
-65.919
-62.7058
-59.7789
-56.9675
-54.3835
-51.9791
-49.6989
-47.5126
-45.4
-43.3483
-41.3498
-39.4002
-37.4981
-35.6452
-33.846
-32.1094
-30.4484
-28.8802
-27.4252
-26.1059
-24.9449
-23.9634
-23.1797
-22.6077
-22.2558
-22.1259
-22.2133
-22.5056
-22.983
-23.6184
-24.3788
-25.227
-26.1245
-27.035
-27.9363
-28.8273
2830.25
2738.66
2627.65
2470.87
2202.88
1800.64
1271.59
675.252
98.3613
-392.186
-778.52
-1077.37
-1310.76
-1493.71
-1636.66
-1748.73
-1837.95
-1910.16
-1968.04
-2010.92
-2035.96
-2039.62
-2018.69
-1971.62
-1898.04
-1799.88
-1680.92
-1545.69
-1398.68
-1244.09
-1085.98
-928.828
-778.062
-639.275
-516.675
-412.204
-325.874
-256.398
-201.841
-160.438
-130.024
-108.184
-92.938
-82.578
-75.6364
-70.9499
-67.7633
-65.3877
-63.3802
-61.5053
-59.6298
-57.6885
-55.6614
-53.5551
-51.3902
-49.193
-46.9914
-44.8124
-42.6813
-40.6217
-38.6562
-36.8068
-35.0945
-33.5394
-32.16
-30.972
-29.9877
-29.2144
-28.6556
-28.305
-28.1533
-28.1833
-28.3721
-28.6917
-29.1106
-29.5958
-30.1149
-30.6377
-31.1432
-31.6466
-6204
-5968.18
-5669.48
-5347.45
-5026.98
-4768.81
-4593
-4509.3
-4504.39
-4527.96
-4506.79
-4383.5
-4149.3
-3836.97
-3487.73
-3129.31
-2774.77
-2428.91
-2094.93
-1776.17
-1475.45
-1194.96
-936.573
-701.77
-492.176
-308.62
-151.489
-20.8551
82.2007
155.975
199.354
212.196
195.748
154.299
96.7861
35.4505
-19.1527
-61.0018
-89.0895
-105.037
-112.006
-113.476
-111.796
-108.382
-104.062
-99.3221
-94.4578
-89.6508
-85.0091
-80.5899
-76.4147
-72.4828
-68.7813
-65.2923
-61.9975
-58.8818
-55.9343
-53.1488
-50.5235
-48.061
-45.7673
-43.6506
-41.7207
-39.9875
-38.4593
-37.1423
-36.0387
-35.1468
-34.4592
-33.9635
-33.6421
-33.473
-33.4303
-33.4857
-33.6106
-33.777
-33.9594
-34.1363
-34.2908
-34.4414
5118.96
5082.44
5015.24
4905.75
4740.19
4535.04
4250.87
3818.64
3206.99
2478.39
1765.63
1183.56
769.125
494.744
316.523
208.486
164.013
177.743
233.657
310.133
386.589
446.428
477.879
474.132
433.908
362.018
268.368
165.349
65.9364
-19.3083
-84.6411
-129.165
-155.255
-166.899
-168.632
-164.125
-156.857
-148.808
-141.039
-134.051
-127.923
-122.47
-117.538
-112.97
-108.625
-104.398
-100.226
-96.08
-91.9598
-87.881
-83.8679
-79.9467
-76.1415
-72.4727
-68.9558
-65.6023
-62.4207
-59.4188
-56.6024
-53.977
-51.549
-49.3253
-47.3122
-45.5141
-43.9334
-42.569
-41.4157
-40.4637
-39.6984
-39.1011
-38.649
-38.3174
-38.0798
-37.91
-37.7834
-37.6783
-37.577
-37.4663
-37.3364
-37.2079
7043.74
6701.96
6254.45
5711.5
4978.32
4201.89
3425.54
2675.65
1974.55
1337.94
778.864
314.039
-41.1181
-289.108
-453.417
-559.614
-617.931
-629.345
-598.904
-536.523
-454.055
-365.209
-282.185
-212.001
-156.597
-115.497
-87.4585
-71.0316
-64.5142
-65.8886
-72.9483
-83.5276
-95.6756
-107.737
-118.397
-126.742
-132.307
-135.04
-135.228
-133.356
-129.977
-125.606
-120.676
-115.529
-110.407
-105.469
-100.8
-96.4301
-92.3526
-88.5393
-84.9515
-81.5496
-78.2966
-75.1644
-72.133
-69.1907
-66.3395
-63.6212
-61.025
-58.5579
-56.239
-54.0884
-52.1217
-50.3494
-48.7764
-47.4021
-46.2195
-45.2162
-44.3748
-43.6742
-43.091
-42.6011
-42.1806
-41.808
-41.4642
-41.1333
-40.8031
-40.4655
-40.1139
-39.7676
-11723.7
-11457
-11175
-10853.7
-10442.4
-9885.8
-9171.08
-8320.94
-7377.78
-6388.95
-5388.43
-4386.31
-3369.37
-2332.92
-1343.38
-550.741
-74.7077
106.127
112.296
51.3916
-24.4643
-99.3555
-168.546
-228.232
-275.135
-307.789
-326.669
-333.438
-330.123
-318.738
-301.299
-280.014
-257.09
-234.203
-212.473
-192.702
-175.291
-160.298
-147.596
-137.052
-128.59
-122.124
-117.415
-114.032
-111.333
-108.878
-106.345
-103.578
-100.553
-97.2997
-93.8496
-90.2832
-86.6381
-83.0028
-79.4397
-75.9923
-72.6941
-69.5374
-66.5692
-63.8137
-61.2758
-58.9563
-56.8545
-54.9674
-53.288
-51.8054
-50.5049
-49.3686
-48.3761
-47.5057
-46.7361
-46.0472
-45.421
-44.8425
-44.2989
-43.7791
-43.2734
-42.7731
-42.2705
-41.7706
1362.76
1301.61
1200.26
1038.05
802.837
487.897
95.5536
-359.03
-851.864
-1353.62
-1832.52
-2258.19
-2600.76
-2830.93
-2933.35
-2921.82
-2832.34
-2696.33
-2528.04
-2334.43
-2125.22
-1913.59
-1712.31
-1529.49
-1367.16
-1223.1
-1093.51
-974.647
-863.673
-758.997
-660.632
-569.566
-487.343
-415.748
-356.034
-308.127
-270.691
-241.352
-217.486
-196.988
-178.491
-161.954
-147.256
-134.309
-123.196
-113.836
-106.108
-99.8097
-94.6959
-90.5653
-87.1389
-84.2236
-81.7223
-79.3803
-77.1075
-74.8826
-72.6907
-70.5242
-68.3865
-66.2928
-64.2622
-62.3138
-60.464
-58.7242
-57.1005
-55.5937
-54.2003
-52.913
-51.7229
-50.6206
-49.5981
-48.6496
-47.7715
-46.9619
-46.2181
-45.5351
-44.9033
-44.3096
-43.74
-43.179
-3583.51
-3304.89
-2910.57
-2451.84
-1930.38
-1408.15
-897.838
-420.405
-7.36357
315.254
536.313
661.947
709.281
700.779
657.979
597.238
527.785
453.013
373.824
290.421
203.465
114.164
24.9311
-60.2229
-136.57
-200.081
-248.311
-280.626
-298.024
-302.851
-297.861
-285.039
-265.089
-239.269
-210.326
-182.009
-157.431
-137.865
-123.115
-112.996
-107.083
-103.807
-101.827
-100.2
-98.5035
-96.6971
-94.8757
-93.1061
-91.3964
-89.7363
-88.1138
-86.4636
-84.6944
-82.8683
-80.9756
-79.019
-77.0107
-74.9714
-72.926
-70.8975
-68.9048
-66.9618
-65.0773
-63.2564
-61.5007
-59.8103
-58.1841
-56.6216
-55.1241
-53.6955
-52.3435
-51.0786
-49.9126
-48.8552
-47.9108
-47.0751
-46.3347
-45.6685
-45.0531
-44.464
5260.07
5085.63
4877.51
4633.02
4327.94
3996.4
3656.82
3323.09
3006.03
2713.14
2449.33
2215.43
2008.26
1821.87
1648.85
1483.7
1324.58
1172.09
1027.26
891.585
766.673
653.962
555.413
472.38
405.766
355.946
322.647
304.731
299.819
303.724
310.157
311.882
302.196
276.861
235.52
182.462
125.387
71.5825
25.025
-12.8627
-42.329
-64.1545
-79.2862
-88.8587
-94.1846
-96.5937
-96.9619
-96.0508
-94.5512
-92.7495
-90.7951
-88.8037
-86.8216
-84.8735
-82.9767
-81.1414
-79.3691
-77.6549
-75.9881
-74.3531
-72.7317
-71.1049
-69.4558
-67.7722
-66.0487
-64.2879
-62.5006
-60.7055
-58.9273
-57.1946
-55.537
-53.9821
-52.5524
-51.2621
-50.1147
-49.1022
-48.2067
-47.4039
-46.6681
-45.9814
2618.65
2607.58
2603.74
2596.88
2579.43
2550.06
2506.52
2439.98
2336.16
2192.05
2028.13
1878.25
1766.03
1687.34
1616.24
1522.74
1387.73
1207.81
992.071
756.451
517.701
291.544
89.603
-80.031
-214.113
-313.472
-381.307
-421.648
-438.536
-435.969
-418.284
-390.481
-357.843
-324.511
-292.163
-260.618
-229.994
-201.657
-177.143
-157.04
-140.926
-127.901
-117.116
-108.03
-100.405
-94.0774
-89.124
-85.471
-82.8434
-81.1121
-80.0948
-79.6804
-79.6399
-79.7666
-79.947
-80.0936
-80.1346
-80.016
-79.6958
-79.1414
-78.3293
-77.2466
-75.8927
-74.2811
-72.4404
-70.414
-68.2576
-66.035
-63.8112
-61.646
-59.5884
-57.673
-55.9189
-54.3314
-52.9041
-51.6227
-50.4683
-49.421
-48.4629
-47.5827
-5905.6
-5884.43
-5872.77
-5835.81
-5751.31
-5589.65
-5354.44
-5086.66
-4843.39
-4654.78
-4502.95
-4347.48
-4160.04
-3927.86
-3644.72
-3308.31
-2926.66
-2522.94
-2131.75
-1784.44
-1494.57
-1258.63
-1065.3
-905.255
-772.789
-664.341
-577.468
-508.085
-452.49
-405.986
-364.143
-323.909
-284.106
-245.277
-208.824
-176.129
-148.104
-125.052
-106.817
-92.9882
-83.0314
-76.3593
-72.3675
-70.4639
-70.0953
-70.7701
-72.0881
-73.7519
-75.5666
-77.4287
-79.2847
-80.9953
-82.5071
-83.8825
-85.081
-86.0642
-86.8018
-87.2582
-87.3944
-87.1719
-86.5579
-85.5284
-84.0822
-82.2345
-80.0271
-77.5272
-74.8225
-72.0128
-69.197
-66.4614
-63.8705
-61.4641
-59.2598
-57.259
-55.4531
-53.8276
-52.3661
-51.0511
-49.8669
-48.7958
-5440.76
-5212.52
-4928.85
-4606.99
-4234.36
-3769.23
-3195.7
-2572.38
-1975.05
-1434.29
-946.859
-512.554
-144.728
131.337
295.189
343.583
294.316
179.088
33.0134
-112.468
-232.926
-313.93
-352.447
-354.369
-330.817
-293.808
-253.336
-215.232
-181.665
-152.636
-127.393
-105.381
-86.4797
-70.8195
-58.5233
-49.5382
-43.6112
-40.3464
-39.2797
-39.9374
-41.871
-44.6786
-48.0226
-51.6444
-55.3643
-59.0728
-62.715
-66.2651
-69.7065
-73.022
-76.1929
-79.1907
-82.0394
-84.6753
-87.0767
-89.2086
-91.0188
-92.4485
-93.4364
-93.9219
-93.8494
-93.1735
-91.8673
-89.9325
-87.4105
-84.3886
-80.9978
-77.3993
-73.7624
-70.2375
-66.9354
-63.9195
-61.2116
-58.8053
-56.6789
-54.805
-53.1547
-51.7003
-50.4172
-49.2758
9958.36
9562.06
8974.86
8168.58
7131.58
6130.09
5260.38
4482.96
3795.86
3265.26
2916.98
2714.4
2596.29
2506.85
2405.72
2270.19
2095.23
1891.92
1680.66
1480.39
1301.71
1146.89
1012.97
894.452
786.913
687.956
596.942
514.283
440.54
375.864
319.82
271.509
229.816
193.629
161.96
133.98
109.024
86.5772
66.2543
47.7784
30.9639
15.6913
1.87221
-10.5772
-21.7499
-31.7662
-40.7381
-48.7838
-56.0131
-62.5202
-68.3888
-73.6934
-78.4871
-82.7997
-86.6434
-90.0173
-92.909
-95.2946
-97.1354
-98.3742
-98.9342
-98.7272
-97.6698
-95.7113
-92.8668
-89.2358
-85.0069
-80.439
-75.8203
-71.4131
-67.4038
-63.881
-60.8494
-58.2643
-56.0631
-54.1841
-52.5736
-51.1864
-49.9855
-48.9315
4765.41
4782.64
4826.11
4876.47
4912.42
4927.5
4923.56
4893.87
4824.56
4703.27
4517.6
4252.94
3901.89
3474.9
2997.39
2497.94
2004.28
1545.95
1149.35
827.817
580.067
396.493
264.515
171.159
105.522
60.7303
33.55
21.887
22.3647
30.0039
39.5487
46.7489
49.3625
47.1353
41.1562
32.6471
22.7649
12.4718
2.46149
-6.84854
-15.2738
-22.8008
-29.5228
-35.6021
-41.243
-46.6114
-51.8271
-56.9588
-62.0434
-67.0827
-72.0392
-76.8458
-81.4193
-85.6715
-89.5166
-92.8787
-95.6942
-97.9079
-99.4693
-100.324
-100.397
-99.6074
-97.8873
-95.2168
-91.6253
-87.2303
-82.2528
-77.009
-71.8633
-67.1454
-63.067
-59.6905
-56.9607
-54.7674
-52.9953
-51.5467
-50.3462
-49.3366
-48.4745
-47.7208
-5787.64
-5660.59
-5511.06
-5321.21
-5062.91
-4762.38
-4452.26
-4151.65
-3841.22
-3475.46
-3027.74
-2519.5
-2007.9
-1545.96
-1153.63
-821.594
-531.379
-270.127
-38.179
153.011
288.922
362.963
378.944
348.391
286.238
206.712
121.878
40.9836
-30.2853
-89.5457
-136.298
-171.426
-196.033
-210.703
-216.749
-215.227
-207.484
-195.177
-180.04
-163.693
-147.522
-132.622
-119.773
-109.452
-101.859
-96.9571
-94.5147
-94.1603
-95.4395
-97.8612
-100.935
-104.204
-107.269
-109.808
-111.585
-112.451
-112.344
-111.278
-109.333
-106.605
-103.237
-99.3308
-94.6918
-89.6155
-84.1041
-78.2181
-72.1737
-66.3069
-61.028
-56.6762
-53.3786
-51.0423
-49.4578
-48.4029
-47.694
-47.1974
-46.8242
-46.5182
-46.2452
-45.9811
-4818.36
-4796.8
-4779.48
-4687.77
-4486.71
-4138.14
-3692.27
-3220.11
-2769.4
-2368.05
-2042.39
-1809.39
-1661.99
-1575.97
-1529.53
-1511.44
-1512.88
-1518.73
-1510.17
-1471.67
-1398.14
-1298.96
-1191.51
-1091.39
-1006.76
-937.874
-879.656
-824.933
-767.468
-704.218
-635.891
-564.791
-494.589
-427.727
-365.823
-310.133
-261.429
-220.131
-186.326
-159.798
-140.126
-126.764
-119.081
-116.345
-117.708
-122.243
-128.988
-137.01
-145.443
-153.517
-160.562
-166.025
-169.47
-170.597
-169.249
-165.409
-159.323
-151.208
-141.593
-130.326
-117.947
-105.406
-93.5963
-82.6339
-72.8714
-64.3915
-57.2477
-51.3358
-46.6787
-43.4164
-41.5631
-40.8763
-40.9639
-41.4593
-42.1064
-42.7557
-43.3307
-43.7989
-44.152
-44.393
-1921.66
-1597.32
-1119.19
-537.893
127.533
779.372
1372.93
1880.04
2280.26
2563.14
2733.32
2806.14
2794.1
2701.72
2535.57
2314.22
2066.98
1821.82
1594.72
1389.5
1204.02
1035.74
883.031
743.416
613.747
491.781
377.583
273.463
182.754
107.848
49.8253
8.09603
-19.4569
-35.7634
-43.9577
-46.9467
-47.1363
-45.8375
-44.0536
-42.6259
-41.7309
-41.2159
-40.5485
-39.0814
-36.5752
-33.0332
-28.7999
-24.5319
-20.9361
-18.4659
-17.1836
-16.8452
-17.0858
-17.5632
-18.0145
-18.2696
-18.2411
-17.9082
-17.2983
-16.4657
-15.4737
-14.3812
-13.2366
-12.0768
-10.9288
-9.81173
-8.73993
-7.7239
-6.77155
-5.88872
-5.07963
-4.34704
-3.69234
-3.11553
-2.61533
-2.18926
-1.83387
-1.54357
-1.31417
-1.13298
-1384.09
-1551.74
-1758.48
-1987.19
-2261.97
-2577.85
-2930.6
-3279.16
-3551.52
-3685.69
-3694.12
-3695.27
-3822.07
-4086.61
-4394.82
-4649.21
-4798.14
-4828.92
-4751.62
-4586.52
-4355.12
-4075.73
-3761.99
-3423.67
-3067.85
-2701.32
-2333.11
-1975.05
-1640.18
-1340.18
-1082.71
-870.028
-699.434
-565.151
-460.067
-377.653
-312.801
-261.544
-220.772
-187.934
-161.349
-139.737
-122.213
-108.054
-96.2939
-86.1785
-77.2711
-69.451
-62.8161
-57.4854
-53.4262
-50.4122
-48.1074
-46.1838
-44.3873
-42.5378
-40.5425
-38.3634
-36.0164
-33.5584
-31.0639
-28.6029
-26.228
-23.9732
-21.857
-19.8874
-18.0657
-16.3893
-14.8539
-13.4545
-12.1861
-11.0434
-10.0211
-9.11364
-8.31457
-7.61717
-7.01496
-6.49906
-6.06182
-5.66836
-14355.5
-14004.8
-13624.1
-13210.7
-12697.3
-12036.7
-11180.8
-10115.3
-8857.49
-7455.55
-6003.08
-4651.14
-3552.32
-2788.13
-2328.17
-2076.22
-1938.42
-1849.48
-1771.11
-1682.51
-1575.47
-1449.76
-1309.41
-1160.13
-1008
-859.622
-721.449
-599.108
-496.978
-416.854
-357.359
-314.543
-283.398
-259.472
-240.014
-223.002
-207.258
-192.109
-177.314
-162.666
-148.521
-135.464
-124.055
-114.728
-107.743
-103.128
-100.642
-99.7837
-99.8783
-100.229
-100.264
-99.5967
-97.9876
-95.2751
-91.3366
-86.1082
-79.6712
-72.3368
-64.6375
-57.1819
-50.4516
-44.6764
-39.8387
-35.7763
-32.303
-29.2736
-26.594
-24.2066
-22.0751
-20.1737
-18.4817
-16.9803
-15.6523
-14.4814
-13.4522
-12.5507
-11.7656
-11.0834
-10.4904
-9.92705
9151.74
8953.61
8692.3
8380.18
8030.24
7697.4
7376.58
7014.96
6532.25
5897.61
5210.57
4658.32
4347.75
4221.65
4170.8
4147.43
4147.98
4163.65
4169.22
4131.45
4021.65
3826.5
3551.61
3217.04
2847
2465.25
2091.26
1738.11
1415.89
1130.14
881.69
668.1
485.765
331.453
203.242
98.7084
15.1746
-49.7738
-98.7858
-134.155
-157.997
-172.501
-179.892
-182.273
-181.499
-179.008
-175.677
-171.759
-167.019
-161.055
-153.67
-145.032
-135.549
-125.609
-115.416
-105.021
-94.4679
-83.9411
-73.817
-64.5598
-56.5302
-49.847
-44.4003
-39.9641
-36.3027
-33.2233
-30.5846
-28.2825
-26.2478
-24.4321
-22.802
-21.3343
-20.0118
-18.8212
-17.7512
-16.792
-15.9378
-15.178
-14.4968
-13.8137
9765.72
9562.98
9306.26
8965.4
8529.12
8049.5
7548.85
7031.21
6495.57
5950.49
5419.5
4924.98
4465.26
4017.87
3562.52
3098
2634.86
2180.64
1738.53
1311.1
902.172
517.786
164.948
-150.979
-425.599
-656.778
-842.36
-978.359
-1061.99
-1092.94
-1075.63
-1019.83
-938.782
-845.806
-751.378
-662.253
-582.016
-511.884
-451.549
-400.492
-357.824
-322.366
-292.831
-268.006
-246.819
-228.355
-211.85
-196.701
-182.462
-168.847
-155.724
-143.077
-130.938
-119.317
-108.181
-97.4776
-87.1982
-77.462
-68.5367
-60.7416
-54.2685
-49.0707
-44.9099
-41.4941
-38.5859
-36.0322
-33.7487
-31.6799
-29.7989
-28.0847
-26.5209
-25.0944
-23.7932
-22.6065
-21.5244
-20.5387
-19.6462
-18.838
-18.0925
-17.3089
-13216.9
-12561.3
-11710.7
-10840.3
-9969.95
-9233.81
-8636.1
-8178.88
-7889.54
-7770.93
-7776.11
-7838.85
-7901.82
-7918.47
-7844.4
-7639.11
-7279.57
-6773.67
-6164.11
-5515.3
-4889.56
-4330.01
-3855.01
-3461.32
-3130.94
-2839.71
-2566.76
-2298.77
-2030.41
-1763.27
-1503.86
-1261.21
-1043.56
-856.219
-701.311
-577.774
-482.322
-410.585
-357.511
-318.463
-289.6
-267.839
-250.651
-236.59
-224.4
-213.182
-202.282
-191.281
-179.974
-168.302
-156.312
-144.125
-131.914
-119.887
-108.272
-97.3051
-87.2003
-78.1281
-70.1884
-63.394
-57.6673
-52.8623
-48.8051
-45.3344
-42.3219
-39.671
-37.3137
-35.2002
-33.2934
-31.5654
-29.994
-28.5612
-27.2514
-26.0504
-24.9454
-23.9265
-22.9912
-22.1311
-21.3172
-20.4291
-3766.34
-3896.61
-4053.04
-4181.99
-4268.15
-4284.98
-4245.16
-4169.1
-4074.2
-3972.17
-3863.74
-3744.26
-3612.81
-3476.81
-3352.79
-3253.93
-3180.55
-3112.88
-3016.87
-2857.38
-2611.56
-2280.8
-1887.64
-1464.6
-1043.99
-652.312
-308.192
-21.9323
203.708
369.866
480.242
539.816
554.667
531.906
479.668
407.121
323.848
238.495
157.628
85.2496
23.2744
-27.7391
-68.274
-98.7289
-120.604
-135.383
-144.31
-148.448
-148.699
-145.859
-140.63
-133.641
-125.461
-116.596
-107.496
-98.5368
-90.0137
-82.1292
-74.9954
-68.6453
-63.0522
-58.1509
-53.8599
-50.0977
-46.7901
-43.8727
-41.2902
-38.9959
-36.9496
-35.1169
-33.4678
-31.9755
-30.6162
-29.3678
-28.2103
-27.1292
-26.1215
-25.1815
-24.2749
-23.2629
6444.14
6467.06
6520.19
6579.11
6642.07
6675.25
6666.14
6618.09
6549.56
6485.64
6443.91
6426.89
6421.4
6397.88
6321.17
6158.64
5895.13
5540.8
5126.07
4686.65
4248.53
3823.09
3411.29
3006.08
2596.53
2173.93
1738.38
1300.74
880.582
503.469
193.764
-34.2608
-181.765
-263.555
-300.154
-309.633
-304.306
-291.585
-275.786
-259.261
-243.251
-228.448
-214.937
-203.009
-192.521
-183.067
-174.223
-165.659
-157.157
-148.598
-139.945
-131.23
-122.532
-113.96
-105.638
-97.6822
-90.1939
-83.245
-76.8763
-71.0986
-65.8976
-61.2414
-57.0878
-53.3906
-50.1038
-47.1838
-44.5903
-42.2863
-40.2372
-38.4104
-36.7741
-35.2968
-33.9476
-32.6959
-31.513
-30.3764
-29.2794
-28.2222
-27.18
-26.0142
9926.05
9818.35
9704.19
9517.55
9177.49
8634.53
7883.13
6968.52
5957.41
4907.74
3865.54
2866.79
1941.93
1117.18
412.365
-158.963
-590.301
-888.053
-1076.74
-1191.18
-1260.62
-1297.67
-1305.57
-1285.95
-1241.13
-1173.8
-1087.85
-987.875
-879.071
-766.823
-657.186
-556.41
-469.311
-397.893
-341.174
-296.342
-260.244
-230.436
-205.452
-184.544
-167.502
-154.146
-144.238
-137.103
-131.962
-128.148
-125.04
-122.138
-119.085
-115.669
-111.796
-107.466
-102.746
-97.7426
-92.5835
-87.3951
-82.2918
-77.3678
-72.6937
-68.317
-64.2651
-60.5488
-57.1673
-54.1118
-51.3684
-48.92
-46.7471
-44.8271
-43.1336
-41.6348
-40.2932
-39.0658
-37.9057
-36.7656
-35.6019
-34.3809
-33.0904
-31.7467
-30.3772
-28.923
-14873.4
-14515.3
-14067.6
-13584.1
-13059.2
-12568
-12089.5
-11581
-11026
-10436.9
-9823.33
-9165.78
-8440.15
-7644.77
-6817.75
-6022.79
-5314
-4713.83
-4212.23
-3784.48
-3407.67
-3066.8
-2752.04
-2459.02
-2185.09
-1928.43
-1688.71
-1466.67
-1263.41
-1079.93
-916.601
-773.119
-649.132
-543.794
-455.693
-383.152
-324.313
-277.179
-239.7
-210.009
-186.359
-167.265
-151.59
-138.548
-127.644
-118.544
-110.962
-104.631
-99.2854
-94.6732
-90.5754
-86.8178
-83.2752
-79.8688
-76.5585
-73.3336
-70.203
-67.1863
-64.3071
-61.5886
-59.0512
-56.7113
-54.5812
-52.6689
-50.9775
-49.5045
-48.2396
-47.1629
-46.2433
-45.4366
-44.687
-43.929
-43.0932
-42.114
-40.9379
-39.5322
-37.8928
-36.0559
-34.1178
-32.1999
-4866.73
-4434.47
-3901.57
-3379.04
-2807.66
-2207.98
-1579.33
-966.737
-449.574
-89.634
124.658
266.659
403.524
545.399
661.66
722.599
711.463
625.44
480.821
307.14
134.046
-18.3008
-140.258
-229.854
-290.301
-328.399
-350.583
-361.641
-364.446
-360.545
-350.792
-335.891
-316.553
-293.781
-268.899
-243.262
-218.083
-194.359
-172.812
-153.863
-137.636
-124.01
-112.737
-103.494
-95.9473
-89.7694
-84.6558
-80.3436
-76.6244
-73.3464
-70.4059
-67.7352
-65.2907
-63.0443
-60.9775
-59.0789
-57.3417
-55.763
-54.3432
-53.0853
-51.9941
-51.0754
-50.3347
-49.7749
-49.3943
-49.1827
-49.1187
-49.1664
-49.2737
-49.3727
-49.3826
-49.2158
-48.7869
-48.0234
-46.876
-45.3274
-43.4015
-41.1779
-38.8037
-36.4256
17026.1
16624.8
15959.8
14944.3
13613.1
12225.4
10896.1
9623.69
8374.56
7162.24
6065.48
5173.2
4502.91
3983.11
3526.12
3093.93
2701.41
2383.34
2154.36
1985.14
1826.75
1654.69
1472.68
1292.2
1121.43
964.049
820.165
688.594
568.354
459.217
361.607
275.97
202.152
140.037
89.1556
48.7227
17.709
-5.10767
-21.0649
-31.5415
-37.8744
-41.2735
-42.7581
-43.1214
-42.927
-42.5341
-42.1402
-41.8313
-41.6269
-41.514
-41.4698
-41.4731
-41.5096
-41.5727
-41.6633
-41.7879
-41.9574
-42.1854
-42.4878
-42.8811
-43.3818
-44.0048
-44.7616
-45.657
-46.6862
-47.831
-49.0564
-50.3088
-51.5154
-52.5874
-53.4261
-53.9316
-54.0144
-53.6065
-52.6701
-51.2051
-49.2568
-46.9204
-44.3045
-41.5634
-3952.08
-3850.99
-3732.78
-3563.06
-3280.89
-2834.09
-2259.2
-1657.21
-1136.09
-769.429
-579.212
-546.218
-645.684
-863.67
-1182
-1558.5
-1913.42
-2131.04
-2106.1
-1832.7
-1425.2
-1024.94
-704.446
-466.46
-289.428
-156.453
-60.2687
3.56461
42.0046
63.5893
75.6303
82.2951
85.6881
86.4409
84.1905
79.3845
72.5986
64.4103
55.4636
46.3476
37.5136
29.2566
21.7326
14.993
9.02233
3.76899
-0.835043
-4.86347
-8.39064
-11.4889
-14.2272
-16.6697
-18.8756
-20.8992
-22.7897
-24.5923
-26.3481
-28.0949
-29.867
-31.6953
-33.6059
-35.6193
-37.7475
-39.9914
-42.3373
-44.7542
-47.191
-49.5765
-51.8211
-53.8217
-55.47
-56.6631
-57.3142
-57.3634
-56.7814
-55.5751
-53.7999
-51.4997
-48.7603
-45.7653
-7537.23
-7355.59
-7141.58
-6889.66
-6557.19
-6158.47
-5725.47
-5306.68
-4941.66
-4647.19
-4419.84
-4251.3
-4139.66
-4082.75
-4065.23
-4053.4
-3996.94
-3824.57
-3451.99
-2835.31
-2046.17
-1246.05
-576.523
-96.5053
214.542
421.782
580.732
707.594
795.124
836.273
832.783
793.702
730.377
653.341
571.573
490.894
414.754
345.25
283.631
230.336
185.163
147.501
116.516
91.2875
70.9076
54.5321
41.4095
30.8897
22.422
15.5482
9.89243
5.15089
1.0808
-2.50969
-5.77106
-8.82071
-11.7501
-14.6304
-17.517
-20.4517
-23.465
-26.575
-29.7873
-33.0924
-36.4641
-39.8572
-43.2073
-46.4317
-49.433
-52.105
-54.3425
-56.0495
-57.1497
-57.5933
-57.3604
-56.4561
-54.8978
-52.7415
-50.0276
-46.9057
5018.81
4925.75
4804.12
4644.7
4417.83
4162.74
3865.94
3524.35
3139.41
2698.68
2197.55
1650.94
1079.53
499.752
-76.5326
-633.38
-1151.27
-1608.72
-1952.31
-2089.68
-1982.36
-1717.28
-1429.9
-1197.95
-1032.76
-917.308
-829.605
-751.379
-671.542
-586.697
-498.927
-413.876
-336.966
-271.76
-218.24
-174.208
-137.647
-107.328
-82.1991
-61.4628
-44.4602
-30.6419
-19.5403
-10.7515
-3.92611
1.23503
4.98593
7.54346
9.09206
9.78822
9.76312
9.12629
7.9684
6.36406
4.3741
2.04763
-0.575984
-3.4651
-6.5935
-9.93795
-13.4754
-17.1799
-21.0197
-24.954
-28.9305
-32.8846
-36.7391
-40.4064
-43.7924
-46.8019
-49.3453
-51.3447
-52.7392
-53.4886
-53.5736
-52.9825
-51.7462
-49.8994
-47.5224
-44.5692
-5126.96
-4785.87
-4331.17
-3829.83
-3233.25
-2594.47
-1977.69
-1475.84
-1151.69
-1006.14
-991.392
-1047.28
-1124.17
-1189.19
-1224.26
-1224.38
-1196.68
-1161.59
-1136.85
-1129.08
-1129.25
-1126.96
-1120.12
-1109.14
-1090.87
-1061.38
-1020.64
-973.011
-923.571
-873.233
-816.806
-747.995
-666.851
-578.968
-492.395
-412.442
-340.85
-277.701
-222.803
-175.687
-135.682
-102.022
-73.976
-50.8727
-32.1085
-17.1397
-5.47147
3.34909
9.7457
14.1024
16.756
17.9988
18.0811
17.2141
15.5745
13.3076
10.5321
7.34453
3.82473
0.0399942
-3.95016
-8.08999
-12.3241
-16.5947
-20.8397
-24.9925
-28.9821
-32.7354
-36.1792
-39.2436
-41.8634
-43.9809
-45.5467
-46.5231
-46.885
-46.6377
-45.7941
-44.4036
-42.5981
-40.2478
-2970.14
-3386.5
-3961.99
-4524.31
-4991
-5222.8
-5226.78
-5048.3
-4738.83
-4340.78
-3884.61
-3396.54
-2898.08
-2406.4
-1937.68
-1511.68
-1151.7
-875.254
-678.424
-540.565
-439.238
-358.789
-290.671
-231.989
-183.754
-147.738
-124.642
-114.011
-114.331
-122.864
-135.692
-148.59
-158.213
-162.63
-161.117
-153.824
-141.53
-125.352
-106.572
-86.4071
-65.9342
-46.0942
-27.8947
-11.836
1.82153
13.0169
21.6762
27.8477
31.986
34.3449
35.211
34.8393
33.4614
31.2833
28.4784
25.1871
21.5213
17.5701
13.4062
9.09083
4.6785
0.220133
-4.23453
-8.6355
-12.932
-17.0726
-21.0057
-24.6798
-28.0441
-31.0485
-33.6435
-35.7824
-37.4244
-38.5439
-39.1352
-39.2215
-38.8578
-38.1271
-37.1334
-35.8065
9018.19
8791.85
8509.59
8202.67
7804.97
7374.92
6903.17
6380.15
5805.9
5191.56
4558.96
3935.21
3344.9
2804.95
2325.3
1912.51
1572.81
1308.13
1106.96
952.718
833.326
743.024
677.85
632.486
600.951
577.194
555.774
532.265
504.09
470.478
431.935
389.337
343.572
295.634
246.855
198.978
153.998
113.853
80.0695
53.5545
34.7238
23.3646
18.8002
19.2848
23.2386
28.9749
34.9603
40.0133
43.1718
44.6076
44.7835
43.6204
41.3688
38.3498
34.8184
30.9477
26.8516
22.6073
18.2704
13.8862
9.49535
5.13692
0.849553
-3.32816
-7.35759
-11.1999
-14.8154
-18.1632
-21.201
-23.8858
-26.1782
-28.0492
-29.481
-30.5027
-31.1643
-31.5446
-31.7325
-31.8145
-31.7935
-31.6163
5566.64
5467.49
5333.32
5198.49
5066.35
5025.5
5062.62
5109.67
5105.59
5026.76
4877.45
4669.91
4415.78
4126.11
3812.34
3485.18
3154.63
2830.29
2521.84
2238.24
1985.53
1765.41
1574.71
1406.6
1252.94
1107.71
967.917
832.869
702.748
578.307
461.015
352.344
253.979
167.305
93.4045
33.2812
-12.2125
-42.7389
-58.8861
-62.31
-55.7006
-42.0436
-24.171
-4.40953
14.9512
32.0083
45.4677
54.7066
59.8666
61.4184
60.0056
56.7558
52.4299
47.5024
42.3272
37.1253
32.0124
27.0395
22.225
17.5745
13.0925
8.78609
4.66709
0.75132
-2.9414
-6.38738
-9.55923
-12.4266
-14.9585
-17.1277
-18.9202
-20.3401
-21.4547
-22.3384
-23.1031
-23.8734
-24.75
-25.7749
-26.8998
-28.0088
-5123.67
-5069.88
-5052.44
-5063.11
-5080.02
-5047.59
-4942
-4772.79
-4564.37
-4334.67
-4089.93
-3831.35
-3562.28
-3290.67
-3026.15
-2776.69
-2546.63
-2336.1
-2141.11
-1954.87
-1770.4
-1582.07
-1385.17
-1178.25
-964.928
-753.079
-551.839
-368.892
-210
-79.268
21.6178
94.2407
141.758
168.549
179.458
178.97
170.99
158.7
144.495
130.008
116.215
103.585
92.2345
82.0814
72.9754
64.7822
57.4281
50.903
45.229
40.4072
36.3803
33.0308
30.1925
27.6834
25.3288
22.9812
20.5357
17.9394
15.1894
12.3216
9.3951
6.4758
3.62553
0.896057
-1.67181
-4.04659
-6.2038
-8.12491
-9.79909
-11.2277
-12.4308
-13.3674
-14.2125
-15.0628
-16.0402
-17.2616
-18.7951
-20.631
-22.68
-24.7261
-0.864488
-0.755917
-0.850036
-1.04799
-1.27691
-1.48116
-1.61883
-1.66119
-1.59241
-1.40828
-1.11263
-0.718035
-0.258109
0.25474
0.797471
1.34951
1.89277
2.40289
2.86739
3.27833
3.62975
3.92099
4.15414
4.33315
4.46391
4.55407
4.6122
4.64715
4.66674
4.67759
4.68102
4.68096
4.67595
4.66303
4.63833
4.59797
4.53906
4.46049
4.36306
4.24915
4.12207
3.98556
3.84319
3.69806
3.55271
3.40928
3.26952
3.13455
3.00478
2.87975
2.75826
2.63848
2.51812
2.39476
2.266
2.12958
1.98333
1.82515
1.65296
1.4646
1.25771
1.02952
0.776595
0.494553
0.177752
-0.18081
-0.58926
-1.05615
-1.58934
-2.19483
-2.87565
-3.63137
-4.45847
-5.35124
-6.30302
-7.30682
-8.3551
-9.43867
-10.5455
-11.6595
-12.7605
-13.8244
-14.8233
-15.7273
-16.5059
-17.1295
-17.5726
-17.8151
-17.8456
-17.6608
-17.2666
-16.6779
-15.9174
-15.014
-14.0011
-12.9142
-11.7891
-10.6595
-9.55531
-8.50129
-7.51594
-6.61136
-5.79373
-5.06424
-4.4203
-3.85688
-3.36753
-2.94531
-2.5833
-2.27501
-2.01452
-1.79662
-1.61681
-1.47129
-1.35685
-1.27083
-1.21107
-1.17585
-1.16382
-1.17387
-1.20493
-1.25578
-1.32506
-1.41133
-1.51327
-1.6299
-1.76072
-1.90562
-2.06467
-2.23763
-2.42357
-2.62041
-2.82488
-3.03252
-3.238
-3.43542
-3.61863
-3.78154
-3.91841
-4.02417
-4.09465
-4.12678
-4.1188
-4.07046
-3.98252
-3.85702
-3.69702
-3.50651
-3.29013
-3.05287
-2.79991
-2.53636
-2.26716
-1.99688
-1.72966
-1.46901
-1.21779
-0.978244
-0.751995
-0.540153
-0.343365
-0.16187
0.00443674
0.15592
0.293118
0.416667
0.527256
0.625603
0.712435
0.788477
0.854423
0.910926
0.958591
0.997986
1.02965
1.0541