/*--------------------------------*- C++ -*----------------------------------*\
| =========                 |                                                 |
| \\      /  F ield         | OpenFOAM: The Open Source CFD Toolbox           |
|  \\    /   O peration     | Version:  2012                                  |
|   \\  /    A nd           | Website:  www.openfoam.com                      |
|    \\/     M anipulation  |                                                 |
\*---------------------------------------------------------------------------*/
FoamFile
{
    version     2.0;
    format      ascii;
    class       volScalarField;
    location    "0.16";
    object      p;
}
// * * * * * * * * * * * * * * * * * * * * * * * * * * * * * * * * * * * * * //

dimensions      [0 2 -2 0 0 0 0];


internalField   nonuniform List<scalar> 
42400
(
11475
11357.2
11113.4
10673.5
10057
9353.94
8540.32
7504.74
6094.65
4286.07
2362.92
765.758
-286.686
-906.74
-1274.29
-1464.01
-1506.06
-1438.05
-1299.5
-1122.58
-932.143
-747.665
-584.951
-456.651
-370.816
-328.054
-321.123
-337.387
-360.854
-380.087
-386.328
-377.368
-357.987
-335.338
-314.078
-295.05
-277.122
-258.98
-240.357
-221.416
-202.723
-184.791
-167.917
-152.272
-137.918
-124.832
-112.939
-102.137
-92.3185
-83.3819
-75.2395
-67.8159
-61.0439
-54.8611
-49.2084
-44.0289
-39.267
-34.868
-30.7769
-26.9404
-23.3102
-19.8465
-16.5297
-13.361
-10.365
-7.58578
-5.07674
-2.89105
-1.06697
0.38512
1.48125
2.26549
2.80355
3.17376
3.45465
3.71105
3.98257
4.27843
4.57332
4.85803
-4816.34
-4506.68
-4120.37
-3750
-3380.26
-3020.66
-2595.2
-2036.5
-1371.75
-744.398
-323.743
-183.067
-270.792
-470.7
-674.049
-824.276
-912.35
-947.231
-935.77
-881.516
-788.946
-666.855
-528.881
-390.893
-265.755
-159.074
-72.2945
-8.17245
29.8673
44.4064
41.9541
30.0067
14.5146
-1.29691
-16.3179
-30.2352
-43.0025
-54.6584
-64.9774
-74.1036
-81.7882
-87.7721
-92.0767
-94.7786
-95.9358
-95.6034
-93.8377
-90.7109
-86.3562
-81.0093
-74.997
-68.6725
-62.3365
-56.1957
-50.3652
-44.8929
-39.7858
-35.0294
-30.5984
-26.4646
-22.6005
-18.9851
-15.6069
-12.4658
-9.57321
-6.94864
-4.61504
-2.5922
-0.890551
0.494043
1.58276
2.41249
3.03154
3.49314
3.84755
4.13451
4.37807
4.58536
4.74871
4.88858
-7091.39
-7014.33
-6851.15
-6558.16
-6137.81
-5633.19
-5079.11
-4492.72
-3878.21
-3251.91
-2656.78
-2148.57
-1765.97
-1509.39
-1345.57
-1226.74
-1110.51
-975.948
-818.876
-643.303
-458.547
-278.364
-119.272
1.88734
74.1544
101.502
101.421
91.1083
77.892
61.6423
41.2025
17.978
-6.45889
-30.3455
-52.9527
-74.0456
-93.4193
-110.799
-125.969
-138.621
-148.575
-156.01
-160.956
-163.301
-162.729
-158.943
-151.733
-141.127
-127.684
-112.61
-97.3481
-83.1557
-70.7651
-60.3288
-51.6334
-44.346
-38.1539
-32.8057
-28.1121
-23.9339
-20.1706
-16.7517
-13.6309
-10.7808
-8.18919
-5.85407
-3.77895
-1.96789
-0.421088
0.868332
1.91596
2.74569
3.38739
3.87333
4.23434
4.49657
4.67964
4.79629
4.8561
4.87096
6157.71
6117.95
6066.81
5984.55
5867.09
5722.31
5552.71
5360.15
5145.72
4908.22
4644.75
4351.19
4023.78
3661.06
3272
2878.35
2508.48
2188.73
1930.28
1725.33
1554.48
1397.26
1239.04
1073.06
900.406
727.53
562.824
413.428
283.55
174.289
84.2947
10.5084
-49.6709
-98.3941
-136.937
-166.381
-187.735
-201.914
-209.788
-212.234
-210.057
-203.703
-193.736
-180.544
-164.804
-147.254
-128.717
-110.146
-92.5002
-76.5161
-63.0953
-52.5173
-44.4411
-38.2509
-33.3195
-29.1837
-25.5611
-22.298
-19.3027
-16.5197
-13.9161
-11.4732
-9.18297
-7.04532
-5.06613
-3.25509
-1.62317
-0.179937
1.06879
2.12265
2.98753
3.67541
4.20335
4.59184
4.86283
5.03761
5.13465
5.16859
5.15376
5.09622
1397.53
1288.74
1140.64
973.454
807.652
684.506
617.102
597.211
605.515
625.106
647.363
670.566
695.812
723.418
752.211
777.116
790.729
786.278
761.168
717.95
662.153
599.538
534.664
471.24
412.004
358.816
312.23
271.35
233.713
196.575
158.117
117.736
75.9968
33.9559
-7.09999
-45.8555
-81.1049
-111.824
-137.135
-156.385
-169.155
-175.393
-175.326
-169.575
-158.705
-143.565
-125.349
-105.419
-85.2417
-66.4045
-49.851
-36.2627
-25.8996
-18.4878
-13.411
-10.2557
-8.16868
-6.74421
-5.68493
-4.76892
-3.8708
-2.93437
-1.94805
-0.926827
0.100817
1.10196
2.04507
2.90362
3.65807
4.29662
4.81515
5.21629
5.50795
5.70152
5.80992
5.84597
5.82129
5.74721
5.63763
5.48948
-4148.8
-3967.36
-3720.92
-3416.44
-3010.94
-2557.16
-2104.47
-1715.18
-1436.65
-1278.49
-1217.43
-1217
-1244.79
-1278.55
-1305.47
-1321.09
-1328.17
-1333.38
-1341.97
-1354.25
-1366.03
-1371.37
-1364.51
-1340.58
-1296.11
-1229.9
-1143.6
-1041.63
-930.522
-817.651
-709.986
-613
-529.923
-462.031
-408.859
-368.835
-339.812
-319.149
-303.901
-291.45
-279.646
-266.739
-251.712
-234.047
-213.574
-190.48
-165.308
-138.95
-112.629
-87.8093
-65.9211
-47.9898
-34.3279
-24.5353
-17.6873
-12.5808
-8.86424
-6.05143
-3.8112
-1.95847
-0.384363
0.976238
2.16268
3.1987
4.09852
4.8707
5.52079
6.05319
6.47254
6.78452
6.99619
7.116
7.15349
7.11893
7.02285
6.87558
6.68699
6.46782
6.22943
5.96043
3569.8
3482.48
3373.91
3234.31
3048.45
2824.37
2541.71
2182.83
1744.75
1241.11
706.006
177.857
-317.333
-768.407
-1170.23
-1517.57
-1805.23
-2028.56
-2183.19
-2265.12
-2274.35
-2219.93
-2119.77
-1993.45
-1856.25
-1717.77
-1583.16
-1454.37
-1331.46
-1213.8
-1100.84
-992.433
-888.917
-790.92
-699.142
-614.156
-536.37
-466.055
-403.399
-348.127
-299.825
-258.024
-221.911
-190.557
-163.101
-138.785
-117.003
-97.3369
-79.5689
-63.652
-49.6379
-37.5822
-27.4697
-19.1881
-12.5288
-7.22978
-3.0624
0.185554
2.69999
4.6361
6.1193
7.24819
8.09846
8.7271
9.17641
9.47767
9.65432
9.72432
9.70219
9.60037
9.43015
9.20216
8.92653
8.61294
8.27048
7.90741
7.53139
7.15078
6.77183
6.37865
-13036.6
-12456.7
-11721.9
-10950.2
-10127.1
-9302.99
-8465.05
-7610.71
-6745.53
-5878.87
-5023.47
-4197.69
-3420.66
-2706.86
-2064.04
-1494.31
-994.738
-558.331
-177.925
146.213
398.655
555.179
604.551
563.82
469.421
354.044
238.098
131.381
38.5996
-38.3304
-99.3614
-145.605
-178.695
-200.388
-212.43
-216.5
-214.039
-206.405
-194.89
-180.671
-164.714
-147.816
-130.631
-113.686
-97.372
-81.9688
-67.7215
-54.711
-42.987
-32.5711
-23.4567
-15.6082
-8.96248
-3.43136
1.09201
4.7241
7.58405
9.78637
11.4373
12.6319
13.4525
13.9688
14.2387
14.3096
14.2198
14.0007
13.6776
13.2713
12.8003
12.2795
11.7226
11.1414
10.5466
9.9473
9.3516
8.76616
8.19681
7.64974
7.12754
6.61156
7911.31
7689.09
7388.24
6960.31
6382.54
5704.89
4980.84
4250.07
3528.77
2820.06
2126.14
1459.82
846.568
311.953
-134.997
-502.455
-799.857
-1026.71
-1175.64
-1240.66
-1225.34
-1146.96
-1030.04
-894.907
-753.861
-615.456
-486.23
-370.898
-272.158
-190.764
-126.12
-76.5879
-40.0453
-14.2585
2.89921
13.3653
18.8599
20.8616
20.6011
19.0602
16.9621
14.7752
12.8461
11.3519
10.4308
10.1608
10.535
11.4023
12.6088
14.0102
15.4763
16.8986
18.1947
19.3081
20.2055
20.8728
21.3108
21.5307
21.5507
21.3923
21.0783
20.6307
20.0701
19.4151
18.6822
17.8866
17.0418
16.1608
15.256
14.3394
13.4224
12.5157
11.629
10.7706
9.94757
9.16526
8.428
7.73987
7.10014
6.48565
1991.11
1872.56
1773.52
1719.18
1643.37
1566.84
1488.22
1403.97
1305.42
1186.43
1059.57
963.564
946.41
1021.01
1141.99
1243.02
1289.04
1280.02
1225.44
1133.59
1015.78
888.664
771.032
677.867
616.426
585.082
573.175
567.356
557.258
537.482
507.21
468.721
425.475
380.797
337.207
296.317
259.018
225.677
196.311
170.722
148.623
129.717
113.635
100.051
88.5804
78.8427
70.5748
63.5573
57.5993
52.5331
48.2124
44.5103
41.3183
38.5451
36.1148
33.9646
32.0431
30.3077
28.7232
27.2596
25.891
24.5947
23.3508
22.1421
20.9545
19.7776
18.6051
17.4348
16.2687
15.1126
13.9748
12.8647
11.7924
10.7669
9.79585
8.88505
8.03888
7.26066
6.54765
5.8729
-1340.17
-783.661
-137.821
324.012
672.412
968.105
1281.43
1588.23
1855.67
2074.33
2256.74
2427.05
2594.34
2735.43
2812.62
2806.53
2728.53
2604.49
2455.42
2293.05
2122.2
1945.19
1765.67
1590.37
1426.57
1277.75
1142.41
1013.42
885.739
762.339
650.605
556.295
480.597
420.846
373.156
334.033
300.936
272.178
246.627
223.527
202.393
182.9
164.894
148.297
133.06
119.141
106.492
95.0615
84.7873
75.6022
67.434
60.2076
53.8473
48.2775
43.4245
39.2167
35.5847
32.462
29.7842
27.4892
25.5165
23.8079
22.3074
20.9623
19.7249
18.5541
17.417
16.2907
15.1625
14.0297
12.8982
11.7791
10.6863
9.63394
8.63448
7.6979
6.83165
6.04075
5.32282
4.64953
-544.068
-452.407
-248.963
129.302
607.527
1013.4
1262.83
1381.07
1405.97
1344.65
1203.56
1021.07
857.62
741.882
654.016
577.919
521.419
488.351
467.73
447.589
423.284
396.951
374.652
365.38
377.978
415.335
469.087
521.523
555.776
563.898
550.317
523.496
490.042
453.809
416.905
380.751
346.325
314.181
284.504
257.215
232.202
209.162
187.881
168.209
150.043
133.312
117.964
103.961
91.2665
79.8403
69.6357
60.5971
52.6602
45.7526
39.7959
34.7077
30.4041
26.8013
23.8177
21.3741
19.3937
17.8012
16.5222
15.4832
14.613
13.8452
13.1207
12.392
11.6257
10.8076
9.93817
9.0312
8.1081
7.19237
6.30576
5.46616
4.68715
3.97785
3.33859
2.74196
8241.13
7945.63
7488.94
6818.01
5819.29
4547
3125.71
1767.17
633.519
-228.698
-837.21
-1211.97
-1375.42
-1378.03
-1291
-1161.32
-996.412
-800.48
-595.967
-409.714
-258.36
-147.261
-73.3643
-27.4688
2.39215
26.6509
52.4067
84.4112
122.695
163.46
201.731
233.618
257.042
271.48
277.516
276.337
269.203
257.472
242.501
225.375
206.889
187.862
168.891
150.444
132.864
116.393
101.189
87.3414
74.8832
63.8038
54.0599
45.5834
38.2881
32.0748
26.8363
22.4627
18.8457
15.8841
13.486
11.5716
10.0814
8.93832
8.09468
7.49586
7.08454
6.8005
6.58117
6.36503
6.09854
5.74512
5.291
4.74487
4.1313
3.48173
2.82719
2.19396
1.60221
1.06565
0.588059
0.144549
-7569.52
-7225.08
-6807.26
-6366.59
-5951.73
-5543.67
-5056.31
-4389.22
-3511.89
-2500.62
-1487.53
-579.449
184.996
805.444
1260.01
1497.29
1514
1395.6
1235.4
1069.39
903.444
748.55
619.752
524.769
461.086
420.72
395.572
378.003
363.429
349.255
334.259
318.028
300.648
282.107
262.602
242.454
222.155
202.047
182.304
163.173
144.849
127.474
111.155
95.9722
81.9882
69.2436
57.7589
47.5343
38.5497
30.7652
24.1229
18.5469
13.9447
10.2103
7.22919
4.88637
3.07348
1.69459
0.668554
-0.0716885
-0.581871
-0.909648
-1.09382
-1.16555
-1.14877
-1.06237
-0.927427
-0.77559
-0.650675
-0.598194
-0.648879
-0.808464
-1.05969
-1.37228
-1.71332
-2.05387
-2.37155
-2.65114
-2.8871
-3.10198
1620.87
1591.57
1616.76
1723.74
1874.79
2099.72
2401.77
2773.24
3181.17
3554.83
3797.73
3827.85
3624.12
3231.29
2734.94
2231.39
1803.71
1510.69
1371.16
1360.98
1431.5
1525.59
1591.7
1601.09
1552.26
1459.65
1339.57
1204.16
1062.03
920.31
784.539
658.51
544.755
444.85
358.933
286.265
225.582
175.449
134.386
100.96
73.8793
52.0253
34.4554
20.3872
9.18204
0.324992
-6.59613
-11.9099
-15.8795
-18.7204
-20.6168
-21.7363
-22.2389
-22.2771
-21.9877
-21.4796
-20.8234
-20.049
-19.1544
-18.1234
-16.9489
-15.653
-14.2956
-12.9652
-11.7511
-10.7106
-9.85164
-9.14707
-8.56679
-8.09833
-7.74194
-7.49414
-7.33886
-7.25025
-7.2002
-7.16399
-7.1226
-7.06315
-6.98054
-6.89557
10613.5
10434.2
10207.2
9889.11
9446.71
8929.46
8372.27
7811
7274.3
6776.08
6318.33
5898.36
5511.12
5152.66
4811.43
4468.33
4100.63
3690.54
3229.59
2722.12
2185.58
1647.64
1140.73
693.07
322.358
34.856
-171.983
-306.65
-381.479
-410.608
-408.059
-386.149
-354.665
-320.194
-286.83
-256.307
-229.629
-206.995
-188.033
-172.162
-158.729
-147.117
-136.814
-127.439
-118.731
-110.532
-102.764
-95.3957
-88.4306
-81.8923
-75.8207
-70.2682
-65.2889
-60.9205
-57.1607
-53.9493
-51.1624
-48.6228
-46.1264
-43.482
-40.556
-37.314
-33.8416
-30.3321
-27.0301
-24.1457
-21.7788
-19.9024
-18.4147
-17.2088
-16.2095
-15.369
-14.6516
-14.0263
-13.4659
-12.9481
-12.4564
-11.9788
-11.5094
-11.0653
-8122.81
-7933.7
-7674.83
-7355.88
-6957.52
-6546.57
-6153.75
-5787.85
-5436.74
-5086.7
-4738.66
-4407.2
-4102.57
-3822.06
-3549.89
-3274.6
-2999.13
-2737.7
-2504.23
-2303.73
-2130.25
-1970.61
-1811.56
-1645.81
-1473.36
-1299.4
-1131.02
-974.662
-836.065
-718.553
-622.612
-546.922
-488.18
-442.84
-407.274
-378.776
-354.773
-333.266
-312.925
-292.96
-273.001
-252.989
-233.07
-213.513
-194.63
-176.718
-160.024
-144.731
-130.959
-118.782
-108.23
-99.2878
-91.8905
-85.9173
-81.1808
-77.4238
-74.3271
-71.5338
-68.6872
-65.4817
-61.7176
-57.3508
-52.5158
-47.5017
-42.6706
-38.3387
-34.6732
-31.6673
-29.2011
-27.133
-25.3547
-23.7964
-22.4118
-21.1655
-20.0286
-18.9782
-17.9961
-17.0686
-16.1864
-15.3605
-11141.8
-10825.6
-10414.8
-9934.89
-9345.64
-8685.85
-7966.59
-7211.24
-6450.47
-5715.21
-5031.73
-4418.49
-3884.05
-3425.81
-3032.58
-2689.27
-2382.41
-2103.25
-1848.38
-1619.48
-1420.18
-1253.08
-1116.97
-1007.75
-920.402
-850.278
-793.345
-746.421
-706.212
-670.2
-636.389
-603.279
-569.313
-533.924
-497.156
-459.412
-421.34
-383.707
-347.277
-312.715
-280.521
-251.015
-224.349
-200.546
-179.549
-161.262
-145.567
-132.304
-121.257
-112.158
-104.716
-98.6586
-93.7503
-89.7914
-86.5938
-83.952
-81.6203
-79.3174
-76.7626
-73.7303
-70.1015
-65.8963
-61.2762
-56.5058
-51.8811
-47.6449
-43.9231
-40.715
-37.9384
-35.4922
-33.2952
-31.2931
-29.4504
-27.7423
-26.1495
-24.6572
-23.2532
-21.9272
-20.6711
-19.4919
13738
13529.7
13243.6
12797.9
12151.1
11360.8
10475.3
9535.46
8568.46
7589.25
6606.84
5626.67
4652.11
3688.19
2747.24
1853.36
1041.65
348.066
-205.89
-620.042
-912.715
-1109.52
-1234.41
-1305.48
-1335.64
-1333.84
-1305.89
-1256.58
-1190.33
-1111.26
-1023.3
-929.795
-834
-739.232
-648.739
-565.019
-490.243
-425.714
-371.583
-327.012
-290.552
-260.551
-235.455
-213.996
-195.258
-178.662
-163.886
-150.769
-139.216
-129.137
-120.434
-112.996
-106.698
-101.374
-96.8123
-92.768
-88.9883
-85.2728
-81.4826
-77.5519
-73.4846
-69.3424
-65.2225
-61.2317
-57.4576
-53.9501
-50.7161
-47.7313
-44.9588
-42.3653
-39.9267
-37.6278
-35.4576
-33.4072
-31.4688
-29.635
-27.899
-26.2537
-24.6924
-23.2182
-1520.29
-1565.39
-1629.29
-1691.13
-1743.8
-1737.05
-1643.55
-1464.53
-1219.83
-934.827
-631.939
-329.105
-40.891
221.127
448.401
635.274
779.744
882.658
947.638
979.697
983.987
965.15
927.248
873.867
808.756
735.887
658.192
578.217
498.158
419.848
344.537
272.792
204.884
141.043
81.7314
27.4187
-20.6763
-61.1063
-93.3594
-117.513
-134.179
-144.4
-149.356
-150.217
-148.088
-143.976
-138.73
-132.986
-127.154
-121.457
-116.011
-110.875
-106.081
-101.633
-97.5009
-93.6233
-89.9241
-86.3349
-82.8093
-79.3239
-75.8716
-72.4539
-69.0766
-65.7509
-62.4921
-59.3178
-56.243
-53.2781
-50.4287
-47.6973
-45.0844
-42.5887
-40.2077
-37.9377
-35.7742
-33.7127
-31.7485
-29.8766
-28.0913
-26.3932
3941.95
4039.91
4243.01
4559.8
4939.95
5289.47
5541.68
5681.86
5729.22
5710.85
5651.18
5567.06
5466.34
5348.72
5206.94
5028
4798.56
4511.39
4168.71
3780.8
3362.92
2933.19
2511.05
2115.35
1762.01
1460.43
1211.24
1007.32
837.894
692.799
564.919
450.154
346.161
251.628
166.687
92.6687
32.1364
-12.3796
-40.3515
-53.9032
-56.8916
-53.4002
-46.9936
-39.1542
-30.5189
-21.7307
-13.1616
-5.05684
2.38201
8.98657
14.614
19.1458
22.506
24.7053
25.8839
26.3034
26.268
26.0267
25.7124
25.3486
24.8908
24.2715
23.4463
22.4082
21.184
19.8152
18.3592
16.8699
15.3809
13.9169
12.4956
11.1289
9.82394
8.584
7.40975
6.30005
5.2522
4.26083
3.32205
2.431
11532.8
11177.9
10602.7
9721.33
8495.14
7202.16
6055.77
5122.89
4364.14
3744.39
3242.32
2825.18
2452.95
2097.95
1755.36
1437.06
1159.59
931.716
751.116
607.563
489.243
387.086
295.717
212.652
137.65
71.8419
16.8028
-26.1921
-56.3886
-73.6015
-78.5706
-73.3104
-60.8554
-44.5634
-27.6729
-12.0033
1.55517
12.4638
20.6731
26.5698
30.8743
34.231
37.0264
39.5994
42.1365
44.6817
47.1871
49.5627
51.7064
53.5144
54.8881
55.7383
55.9944
55.6224
54.6414
53.1301
51.2112
49.0217
46.6814
44.2749
41.8481
39.4211
37.0046
34.6119
32.2636
29.9825
27.7878
25.6911
23.6965
21.8031
20.0071
18.3042
16.6894
15.1579
13.7047
12.325
11.014
9.7649
8.57142
7.40844
-7441.17
-7218.17
-6979.02
-6704.51
-6322.08
-5813.36
-5249.59
-4716.9
-4226.96
-3740.79
-3241.54
-2754.79
-2326.99
-1996.25
-1777.48
-1655.5
-1590.77
-1540.67
-1478.93
-1398.54
-1304.47
-1206.44
-1114.45
-1035.88
-972.416
-918.282
-862.309
-793.497
-706.331
-602.56
-489.31
-375.627
-269.449
-175.989
-97.5439
-34.1867
15.2987
52.6845
79.8801
98.6958
110.68
117.314
120.05
120.007
118.056
114.978
111.235
107.09
102.786
98.4487
94.1313
89.8459
85.578
81.3088
77.0325
72.7651
68.5447
64.4213
60.4427
56.6478
53.0514
49.6522
46.4384
43.3962
40.5145
37.7856
35.2037
32.7626
30.4558
28.276
26.2156
24.2668
22.4216
20.6723
19.0112
17.4308
15.9248
14.4845
13.1025
11.7387
-5030.94
-4825.69
-4535.36
-4151.77
-3682.09
-3202.29
-2798.7
-2553.09
-2484.95
-2525.22
-2562.28
-2523.62
-2403
-2222.55
-1984.03
-1679.8
-1347.72
-1068.8
-890.599
-792.99
-730.658
-671.526
-598.523
-505.468
-390.087
-250.28
-86.1941
90.026
253.222
380.56
464.701
511.225
529.655
528.09
512.578
487.557
456.635
422.739
388.074
354.151
321.911
291.882
264.315
239.294
216.795
196.603
178.598
162.687
148.645
136.19
125.1
115.264
106.494
98.618
91.4983
85.0247
79.1123
73.6952
68.7206
64.1432
59.9223
56.0209
52.4054
49.0461
45.9167
42.994
40.2574
37.6884
35.2706
32.9893
30.8318
28.7866
26.8436
24.9939
23.229
21.5411
19.9234
18.3679
16.8679
15.3771
6642.59
6458.16
6304.34
6203.85
6085.08
5954.65
5769.76
5492.58
5095.86
4561.97
3898.99
3140.79
2323.25
1474.2
667.933
49.2715
-289.868
-400.493
-377.989
-269.152
-97.4593
108.432
320.952
520.245
690.32
819.173
899.518
930.407
919.052
878.34
821.164
757.357
692.954
630.949
572.36
517.641
466.993
420.477
378.051
339.608
304.995
274.019
246.455
222.056
200.554
181.672
165.13
150.646
137.957
126.88
117.209
108.652
101.033
94.2077
88.0523
82.471
77.3811
72.7081
68.398
64.4064
60.6962
57.2361
53.9993
50.9631
48.1076
45.4152
42.8702
40.4582
38.1661
35.9824
33.8968
31.9005
29.9859
28.1462
26.3754
24.6678
23.018
21.4205
19.8706
18.321
1780.85
2146.73
2635.72
3069.73
3423.65
3667.36
3855.12
3996.97
4073.76
4072.65
3997.87
3869.77
3728.88
3630.7
3604.85
3608
3553.68
3401.85
3182.99
2945.54
2718.52
2510.89
2321.81
2147.06
1982.18
1823.8
1669.41
1516.91
1364.46
1211.98
1061.39
916.089
780.318
658.12
552.441
464.158
392.044
333.699
286.384
247.671
215.707
189.162
167.079
148.751
133.625
121.22
111.088
102.814
96.0216
90.3866
85.637
81.549
77.9481
74.7026
71.7139
68.9047
66.2247
63.6491
61.1558
58.7305
56.3654
54.0551
51.797
49.5901
47.4341
45.3291
43.2747
41.2706
39.3157
37.4088
35.5485
33.7332
31.9614
30.2318
28.5428
26.8931
25.281
23.7048
22.1638
20.616
4657.54
4549.42
4397.56
4177.61
3870.66
3515.33
3139.42
2761.61
2390.14
2024.97
1663.26
1303.62
949.54
608.955
292.99
11.561
-229.654
-430.765
-593.944
-719.773
-809.611
-864.687
-887.7
-881.686
-849.564
-794.564
-721.035
-634.793
-542.575
-451.13
-365.924
-290.464
-227.323
-177.311
-139.59
-112.193
-92.9162
-79.145
-68.496
-59.1737
-50.1205
-40.8223
-31.1412
-21.0635
-10.596
-0.296869
9.39175
18.1291
25.7
32.0473
37.2303
41.3546
44.5418
46.9156
48.5948
49.6883
50.2914
50.4862
50.3413
49.9143
49.2525
48.3965
47.38
46.2313
44.9748
43.6312
42.2183
40.7516
39.2448
37.7095
36.156
34.5929
33.0276
31.4661
29.9133
28.3727
26.8469
25.3379
23.849
22.3485
-9731.53
-9066.61
-8201.74
-7318.5
-6455.98
-5714.36
-5091.41
-4576.62
-4158.42
-3822.74
-3554.58
-3341.19
-3173.86
-3045.44
-2951.16
-2886
-2843.41
-2815.15
-2791.78
-2763.78
-2722.82
-2664.07
-2585.35
-2486.59
-2369.41
-2236.49
-2090.79
-1935.09
-1772.21
-1605.22
-1437.3
-1271.98
-1111.92
-959.876
-818.387
-689.54
-574.398
-473.452
-386.534
-312.902
-251.39
-200.513
-158.574
-123.89
-95.1053
-70.8832
-50.454
-33.2418
-18.5428
-6.01872
4.60526
13.4864
20.7728
26.6416
31.2888
34.9064
37.6677
39.7198
41.1863
42.1687
42.7488
42.9914
42.9481
42.6601
42.161
41.4796
40.6413
39.6689
38.5847
37.4076
36.1561
34.8471
33.4954
32.1137
30.7128
29.3008
27.8838
26.4664
25.0541
23.6258
1351.76
933.907
424.467
-143.419
-820.852
-1552.11
-2313
-3053.62
-3710.39
-4231.56
-4590.76
-4787.9
-4842.79
-4786.59
-4653.39
-4472.13
-4261.07
-4026.46
-3766.12
-3474.78
-3151.23
-2801.1
-2435.46
-2068.79
-1716.25
-1391.62
-1105.74
-865.364
-672.925
-526.479
-420.122
-345.477
-294.159
-258.919
-233.898
-214.737
-198.336
-182.938
-167.65
-151.985
-135.647
-118.434
-100.222
-81.0616
-61.3314
-41.8045
-23.5422
-7.56505
5.38499
15.3764
22.6988
27.826
31.3179
33.7126
35.3751
36.4933
37.3698
38.1011
38.7237
39.2493
39.672
39.9765
40.1449
40.1614
40.015
39.7005
39.2196
38.5802
37.7948
36.8817
35.8605
34.7519
33.5756
32.3494
31.0882
29.8032
28.5022
27.1902
25.8709
24.5283
-4569.65
-4020.64
-3244.72
-2353.26
-1375.76
-493.754
239.848
823.117
1247.88
1496.2
1571.18
1506.51
1352.36
1163.97
987.097
846.77
745.887
675.599
628.746
605.236
607.729
629.707
651.749
653.084
624.639
570.105
498.944
420.519
341.953
268.003
201.414
143.39
94.0869
53.063
19.6651
-6.70429
-26.769
-41.1331
-50.3666
-54.9914
-55.534
-52.5609
-46.7208
-38.7381
-29.3909
-19.4899
-9.82667
-1.06666
6.37431
12.3877
17.1092
20.8103
23.7575
26.1517
28.1701
29.999
31.5934
32.9767
34.1835
35.233
36.1309
36.8739
37.4525
37.8539
38.0654
38.0778
37.8885
37.5029
36.9346
36.2042
35.3372
34.3612
33.3035
32.1886
31.0374
29.864
28.6773
27.4813
26.2753
25.042
13640.8
13524.3
13298.5
12847.4
12146.6
11319.1
10462.2
9633.23
8854.76
8128.97
7456.12
6839.55
6288.06
5810.07
5404.35
5049.43
4705.01
4326.06
3880.1
3364.15
2821.63
2328.75
1938.42
1645.62
1414.21
1216.1
1040.96
886.491
751.096
632.641
528.95
438.173
358.828
289.759
230.086
179.14
136.385
101.315
73.3806
51.9792
36.4242
25.9709
19.7981
17.0432
16.8363
18.338
20.7859
23.5461
26.1609
28.3658
30.0695
31.3019
32.1542
32.7345
33.1464
33.4792
33.782
34.1124
34.4959
34.9311
35.4005
35.8739
36.3118
36.6699
36.9041
36.9768
36.862
36.5487
36.0414
35.3594
34.5314
33.5916
32.5748
31.5126
30.4293
29.3437
28.2652
27.1956
26.1291
25.0438
2342.25
2221.16
2030.46
1758.18
1431.41
1134.75
909.996
755.348
654.624
595.497
573.904
587.69
630.865
691.969
756.219
808.659
837.055
833.41
794.831
725.074
636.368
546.167
468.242
405.45
352.501
305.114
261.682
222.43
188.14
159.179
135.338
115.951
100.126
87.0052
75.9314
66.5062
58.5066
51.8191
46.6768
42.9985
40.5176
39.0909
38.56
38.7345
39.3959
40.3074
41.2349
41.9755
42.3875
42.4071
42.0469
41.3762
40.4952
39.5115
38.522
37.6055
36.852
36.2733
35.8848
35.6835
35.6449
35.727
35.875
36.0259
36.1143
36.082
35.8842
35.4962
34.9161
34.1626
33.2696
32.2791
31.2337
30.1713
29.1219
28.1056
27.1312
26.1974
25.291
24.3856
-19902.7
-18970.2
-17820.8
-16695.1
-15521.5
-14398.5
-13320.8
-12290.4
-11308.1
-10372.3
-9482.61
-8638.17
-7836.37
-7073.64
-6348.26
-5661.79
-5018.52
-4423.01
-3877.7
-3381.62
-2930.66
-2519.35
-2143.33
-1801.12
-1494.19
-1225.05
-995.019
-802.834
-645.184
-517.148
-413.144
-328.003
-257.317
-197.541
-146.005
-100.926
-61.3874
-27.1575
1.36537
23.9873
41.2379
53.7221
62.1824
67.3857
70.0336
70.728
69.964
68.1391
65.5693
62.5095
59.1685
55.7215
52.3165
49.0781
46.1085
43.4788
41.2161
39.3734
37.9465
36.9065
36.2021
35.7625
35.5023
35.3294
35.1541
34.8987
34.5062
33.9467
33.2177
32.3402
31.3505
30.2921
29.2089
28.1407
27.1197
26.1677
25.2944
24.4957
23.7512
23.03
4418.82
4453.74
4491.11
4477.75
4401.08
4227.01
3958.52
3613.15
3218.78
2802.16
2380.53
1963.61
1560.44
1181.22
834.845
526.993
260.174
34.5337
-150.946
-297.761
-408.201
-485.483
-533.832
-557.718
-561.285
-548.415
-522.265
-485.217
-438.404
-382.569
-318.831
-248.729
-174.701
-100.135
-29.0186
34.603
87.3698
127.245
153.885
168.764
174.177
172.605
166.254
156.875
145.787
133.941
121.999
110.396
99.4053
89.1844
79.8206
71.3616
63.8274
57.2225
51.5436
46.7733
42.8768
39.808
37.4997
35.8612
34.7777
34.1147
33.727
33.4695
33.2109
32.8475
32.3148
31.5936
30.7058
29.6987
28.6254
27.5316
26.4525
25.4168
24.4501
23.5738
22.8012
22.1319
21.5448
21.0071
8446.16
8102.7
7715.91
7301.09
6752.17
6142.55
5529.25
4989.35
4583.01
4313.86
4138.64
4010.85
3906.5
3816.42
3733.48
3649.33
3557.38
3454.08
3337.54
3206.15
3058.27
2893.38
2713.12
2521.18
2322.02
2120.53
1921.24
1727.8
1542.93
1368.66
1206.42
1057.19
921.692
800.275
692.664
598.001
515.441
444.302
383.858
333.145
290.892
255.623
225.869
200.356
178.091
158.367
140.705
124.783
110.393
97.4005
85.7161
75.3681
66.23
58.2781
51.4799
45.797
41.1906
37.6061
34.9602
33.1373
31.9921
31.3528
31.0325
30.8448
30.6231
30.2396
29.6215
28.7596
27.7022
26.5306
25.3263
24.1477
23.0277
21.986
21.0412
20.2147
19.5254
18.9814
18.5711
18.2553
-168.115
130.892
567.879
1065.95
1581.34
1994.11
2275.71
2444.05
2531.66
2563.03
2552.15
2511.36
2456.75
2406.27
2374.09
2368.44
2389.26
2425.14
2451.5
2440.61
2379.5
2272.82
2134.77
1979.79
1818.53
1657.91
1502.28
1354.42
1215.99
1087.84
970.226
862.927
765.439
677.052
597.368
525.988
462.413
406.022
356.209
312.405
274.053
240.592
211.449
186.054
163.859
144.402
127.443
112.461
99.1605
87.3506
76.8692
67.5101
59.2636
52.0493
45.8078
40.5045
36.1102
32.5936
29.9123
28.0026
26.7701
26.0847
25.7827
25.6783
25.5859
25.3492
24.8703
24.1256
23.1573
22.0475
20.8812
19.7236
18.6186
17.5966
16.6874
15.9255
15.3432
14.9637
14.792
14.7823
3026.16
2987.25
2870.51
2622.05
2222.85
1675.05
1035.42
398.142
-136.674
-480.142
-575.762
-423.832
-94.9083
295.559
639.303
871.378
967.327
924.691
762.392
522.814
259.62
18.3809
-169.99
-291.531
-349.059
-356.717
-331.81
-288.697
-237.092
-183.097
-130.666
-82.4937
-40.0885
-4.05793
25.6237
49.1924
66.9891
79.6318
87.9775
92.7988
94.7552
94.4288
92.421
89.1111
84.8033
79.7803
74.1308
68.2493
62.327
56.4775
50.7975
45.3602
40.2279
35.4502
31.0696
27.1263
23.6611
20.7138
18.3193
16.4991
15.2515
14.5414
14.2927
14.3891
14.6854
15.0298
15.2925
15.3895
15.2556
14.9232
14.4161
13.7743
13.0508
12.3111
11.6188
11.0535
10.6785
10.5398
10.6584
10.9941
-4762.11
-4615.79
-4410.67
-4171.87
-3904.28
-3737.41
-3732.61
-3864.17
-4055.45
-4223.3
-4292.36
-4228.08
-4062.9
-3868.55
-3697.36
-3554.71
-3417.31
-3268.03
-3106.83
-2941.93
-2780.63
-2618.22
-2442.17
-2240.87
-2009.84
-1753.7
-1485.29
-1222.16
-981.359
-774.681
-606.066
-472.199
-365.996
-280.601
-211.527
-155.724
-111.06
-75.6107
-47.9395
-26.8043
-10.8412
0.96208
9.31897
14.9682
18.5564
20.5537
21.3133
21.1402
20.2729
18.8958
17.1591
15.1869
13.0845
10.9442
8.85032
6.88174
5.11298
3.61334
2.44414
1.65408
1.27244
1.30132
1.70871
2.42606
3.35281
4.3679
5.34989
6.24283
6.9591
7.43138
7.6542
7.64835
7.46229
7.16797
6.86012
6.62964
6.56564
6.72597
7.12499
7.73457
-3166.41
-3511.31
-3937.74
-4387.59
-4870.51
-5336.67
-5736.83
-6015.16
-6124.49
-6039.24
-5773.69
-5381.89
-4928.08
-4450.91
-3957.11
-3438.76
-2897.15
-2350.55
-1832.16
-1372.28
-982.811
-660.606
-394.472
-173.116
11.1118
160.894
274.714
348.932
381.127
373.316
334.332
278.752
220.759
168.261
122.672
83.7952
51.3901
25.2361
5.10293
-9.56189
-19.8639
-26.5962
-30.4518
-32.2151
-32.5308
-31.8866
-30.6403
-29.0466
-27.282
-25.4667
-23.6807
-21.9752
-20.3799
-18.9079
-17.5581
-16.3166
-15.1574
-14.0438
-12.9299
-11.7659
-10.5044
-9.10965
-7.56732
-5.89108
-4.12477
-2.33499
-0.607433
0.891848
2.15782
3.13063
3.78819
4.15276
4.28285
4.26456
4.20505
4.206
4.35005
4.68491
5.20473
5.88654
-4030.58
-3319.47
-2386.46
-1480.89
-623.326
126.332
797.053
1403.69
1958.09
2463.64
2901.71
3236.49
3438.93
3503.91
3449.35
3298.93
3066.74
2768.56
2421.41
2047.96
1673.6
1320.15
1001.37
725.904
498.41
317.723
174.869
54.6506
-59.1875
-173.933
-282.437
-363.672
-400.152
-394.224
-362.736
-322.713
-283.55
-248.648
-218.615
-193.064
-171.348
-152.87
-137.055
-123.386
-111.332
-100.555
-90.8253
-81.9928
-73.9594
-66.6606
-60.0498
-54.0886
-48.7392
-43.9593
-39.6994
-35.9007
-32.4946
-29.4028
-26.5404
-23.8202
-21.1613
-18.4997
-15.8001
-13.0644
-10.3349
-7.68687
-5.20965
-2.96544
-1.06096
0.45323
1.56934
2.3216
2.78203
3.04986
3.23297
3.4292
3.71096
4.11656
4.64062
5.28704
0.835658
-1.21886
-3.07703
-4.85641
-6.65489
-8.52441
-10.5008
-12.5921
-14.7751
-16.9911
-19.1514
-21.1517
-22.8866
-24.2943
-25.2805
-25.7717
-25.7238
-25.1031
-23.9172
-22.2287
-20.1229
-17.8466
-15.5222
-13.3046
-11.2855
-9.52403
-8.04354
-6.83634
-5.87574
-5.12617
-4.55094
-4.11725
-3.79837
-3.57368
-3.4275
-3.34725
-3.32184
-3.34048
-3.39219
-3.46569
-3.54951
-3.63197
-3.70096
-3.74297
-3.73723
-3.71613
-3.63163
-3.49162
-3.30097
-3.06792
-2.80427
-2.52382
-2.24062
-1.96761
-1.71568
-1.49316
-1.30561
-1.15587
-1.04433
-0.969398
-0.928149
-0.916961
-0.932138
-0.970362
-1.02894
-1.10588
-1.19993
-1.31047
-1.43753
-1.58158
-1.74326
-1.92267
-2.11858
-2.3277
-2.54452
-2.76203
-2.97303
-3.17189
-3.35589
-3.52592
-3.68599
-3.84185
-3.99924
-4.16242
-4.33321
-4.51056
-4.69053
-4.86661
-5.03154
-5.17768
-5.29831
-5.3865
-5.4376
-5.44909
-5.42051
-5.35329
-5.25045
-5.11619
-4.95543
-4.77341
-4.57524
-4.3656
-4.14855
-3.92752
-3.70536
-3.48436
-3.26631
-3.05257
-2.84417
-2.64187
-2.44631
-2.25796
-2.0772
-1.90432
-1.73958
-1.58321
-1.43539
-1.29625
-1.16585
-1.04422
-0.931349
-0.827203
-0.731686
-0.644639
-0.565849
-0.495073
-0.43203
-0.376382
-0.327723
-0.285583
-0.249415
-0.21866
-0.192738
-0.171123
-0.153151
-0.138236
-0.125832
-0.115425
-0.106547
-0.0987814
-0.0917752
-0.0852524
-0.0790218
-0.0729652
-0.0670123
-0.0611196
-0.0552675
-0.049467
-0.0437598
-0.0382024
-0.0328425
-0.0277059
-0.0228034
-0.0181479
-0.0137637
-0.00967869
-0.00590599
-0.00243508
0.000760013
0.00370169
0.00639641
0.00883876
0.0110264
0.0129697
0.0146874
0.0161915
0.0174788
0.0185376
0.0193648
0.0199786
0.0204126
0.0206964
0.0208381
0.0208239
0.0206383
0.0202872
0.019808
0.019257
0.0186842
0.0181128
0.0175396
0.016951
0.0163428
0.0157259
0.0151168
0.0145196
0.0139159
0.0132711
0.0125508
0.0117409
0.010846
0.0098928
0.00889157
0.00786717
0.00678581
0.00569804
0.00451
0.00341195
0.00209976
0.00110584
5.24488
2.39671
-0.164948
-2.57711
-4.94794
-7.34193
-9.80288
-12.3423
-14.9321
-17.5075
-19.9765
-22.2349
-24.1494
-25.7431
-26.8698
-27.4489
-27.4436
-26.8096
-25.5484
-23.719
-21.4437
-18.9277
-16.365
-13.9199
-11.7037
-9.77449
-8.15066
-6.82267
-5.76321
-4.93518
-4.29854
-3.81615
-3.45692
-3.19664
-3.01695
-2.90366
-2.845
-2.83021
-2.84881
-2.89021
-2.94385
-2.99934
-3.04639
-3.0746
-3.07405
-3.04684
-2.97753
-2.86413
-2.70901
-2.5181
-2.30061
-2.06792
-1.83216
-1.60492
-1.39629
-1.21415
-1.06384
-0.948138
-0.867476
-0.820439
-0.804352
-0.815938
-0.851897
-0.909315
-0.985884
-1.07998
-1.19065
-1.31761
-1.46117
-1.6221
-1.80131
-1.99912
-2.21444
-2.44397
-2.68204
-2.92132