/*--------------------------------*- C++ -*----------------------------------*\
| =========                 |                                                 |
| \\      /  F ield         | OpenFOAM: The Open Source CFD Toolbox           |
|  \\    /   O peration     | Version:  2012                                  |
|   \\  /    A nd           | Website:  www.openfoam.com                      |
|    \\/     M anipulation  |                                                 |
\*---------------------------------------------------------------------------*/
FoamFile
{
    version     2.0;
    format      ascii;
    class       surfaceScalarField;
    location    "0.16";
    object      phi;
}
// * * * * * * * * * * * * * * * * * * * * * * * * * * * * * * * * * * * * * //

dimensions      [0 3 -1 0 0 0 0];
oriented        oriented;


internalField   nonuniform List<scalar> 
84340
(
-2.54443e-06
0.000121124
-0.00011858
0.00063705
0.000104906
-0.000744501
0.0015654
0.000277958
-0.00120631
0.00192649
0.000797804
-0.00115889
0.00145307
0.00143192
-0.000958498
0.000379471
0.00197421
-0.000900619
-0.000927004
0.00228511
-0.000978633
-0.00212788
0.00223922
-0.00103833
-0.00298124
0.00169779
-0.000844435
-0.00339681
0.000672112
-0.000256533
-0.00343575
-0.000492373
0.000531313
-0.00325867
-0.00126338
0.00108629
-0.00302163
-0.00139921
0.00116217
-0.00277239
-0.00116598
0.000916733
-0.00250704
-0.000915579
0.000650231
-0.00221677
-0.000775531
0.000485261
-0.00194387
-0.000681639
0.000408739
-0.00172589
-0.00060648
0.000388495
-0.00159052
-0.000537144
0.000401781
-0.00155389
-0.000469735
0.000433099
-0.00162246
-0.000404356
0.000472927
-0.0017963
-0.00034335
0.000517193
-0.00207217
-0.000289761
0.000565628
-0.00244006
-0.000249713
0.000617603
-0.00287648
-0.000232341
0.000668758
-0.00334206
-0.000244861
0.000710438
-0.00379502
-0.000276275
0.000729237
-0.00421094
-0.000300855
0.00071678
-0.00451505
-0.000330439
0.000634548
-0.00466731
-0.000335592
0.00048785
-0.00461671
-0.000325948
0.00027535
-0.0043526
-0.000308621
4.45083e-05
-0.00393246
-0.000292264
-0.000127874
-0.00344837
-0.000285225
-0.000198871
-0.00297889
-0.000284326
-0.00018515
-0.00256559
-0.000284014
-0.000129286
-0.00222043
-0.000280608
-6.45514e-05
-0.00193455
-0.000278693
-7.18637e-06
-0.00169956
-0.000275411
4.04154e-05
-0.00150374
-0.000277223
8.14068e-05
-0.00134012
-0.000279741
0.000116116
-0.00120384
-0.000283466
0.00014719
-0.00108935
-0.00029059
0.000176098
-0.000991461
-0.000301439
0.000203551
-0.000905491
-0.000315674
0.000229703
-0.000827414
-0.000332541
0.000254465
-0.000754054
-0.000350962
0.000277602
-0.000683267
-0.0003696
0.000298812
-0.000614086
-0.000386972
0.000317792
-0.000546722
-0.000401674
0.000334309
-0.000482335
-0.000412639
0.000348252
-0.000422574
-0.00041938
0.000359619
-0.00036901
-0.000421999
0.000368434
-0.000322674
-0.000420947
0.000374611
-0.000283784
-0.000416708
0.000377818
-0.000251644
-0.000409554
0.000377414
-0.00022465
-0.000399476
0.000372482
-0.000200378
-0.000386245
0.000361974
-0.000175727
-0.000369596
0.000344945
-0.000147137
-0.000349409
0.000320819
-0.0001109
-0.000325897
0.000289659
-6.34833e-05
-0.00029979
0.000252373
-1.88298e-06
-0.000272432
0.000210832
7.62071e-05
-0.000245799
0.000167709
0.000172067
-0.000222336
0.000126476
0.000285941
-0.000204799
9.09252e-05
0.000416727
-0.000195965
6.5179e-05
0.000562926
-0.000198255
5.20568e-05
0.000721737
-0.00021361
5.47992e-05
0.00088902
-0.000243282
7.60004e-05
0.00106035
-0.000287519
0.000116188
0.0012305
-0.000345563
0.000175411
0.0013935
-0.000415606
0.000252612
0.00154299
-0.000494759
0.000345264
0.00167264
-0.000579136
0.000449491
0.00177662
-0.000664144
0.000560164
0.0018505
-0.000745045
0.000671159
0.00189237
-0.00081777
0.000775907
0.00190386
-0.000879769
0.000868274
-0.000932512
0.000943308
0.00189307
0.000271264
-0.00015014
0.000816644
-0.000440474
0.00165462
-0.000560015
0.00281869
-0.000366273
0.00424482
5.79947e-06
0.00588668
0.000332352
0.00771158
0.000460205
0.00958744
0.000363359
0.0111642
0.000120997
0.0119829
-0.000146579
0.0118278
-0.000337223
0.0109694
-0.000404972
0.00994767
-0.000377513
0.00911068
-0.00032899
0.00848719
-0.000292082
0.00798472
-0.000273069
0.00756191
-0.000258825
0.00720299
-0.000247559
0.00690396
-0.000238114
0.00665877
-0.000224548
0.00645078
-0.000196367
0.00624859
-0.000141156
0.00600757
-4.87453e-05
0.00568075
7.71159e-05
0.00524691
0.000201495
0.00473828
0.000263767
0.00423081
0.000231195
0.00379894
0.000131015
0.00344636
2.2138e-05
0.00316654
-5.57665e-05
0.00293623
-9.56369e-05
0.00272636
-9.87489e-05
0.00251836
-8.42627e-05
0.00229436
-6.12302e-05
0.00204826
-3.82249e-05
0.00178383
-1.95848e-05
0.00151224
-9.01904e-06
0.00124162
-8.07225e-06
0.00098558
-1.93683e-05
0.000743849
-3.54914e-05
0.000519732
-5.56247e-05
0.000318312
-8.20461e-05
0.000140389
-0.000112667
-1.4673e-05
-0.000146378
-0.000147067
-0.00018328
-0.000256035
-0.000223573
-0.000340031
-0.000266967
-0.000397342
-0.000312289
-0.000427343
-0.000356971
-0.000431924
-0.000397093
-0.000415877
-0.000428685
-0.00038595
-0.000449307
-0.000349024
-0.000458925
-0.000310509
-0.000459462
-0.000273642
-0.000453575
-0.000239556
-0.00044364
-0.000207675
-0.000431357
-0.000176157
-0.000417763
-0.000142322
-0.000403431
-0.000103024
-0.000388707
-5.49716e-05
-0.00037395
4.91416e-06
-0.000359675
7.91645e-05
-0.000346682
0.000169458
-0.000336092
0.000276424
-0.000329302
0.000399483
-0.000327859
0.00053681
-0.000333291
0.000685461
-0.000346906
0.000841444
-0.000369594
0.000999836
-0.000401674
0.00115509
-0.000442769
0.00130125
-0.000491731
0.0014323
-0.000546652
0.00154254
-0.000605005
0.00162732
-0.000663907
0.00168374
-0.000720573
0.00171159
-0.000772891
0.00171376
-0.000819937
0.00169616
-0.000862175
-0.00090066
0.00166431
1.84512e-06
-0.000151985
-0.000286426
-0.000152202
-0.000767243
-7.9198e-05
-0.00108224
-5.12722e-05
-0.00102026
-5.61857e-05
-0.000609308
-7.85975e-05
-1.63203e-05
-0.000132782
0.000576212
-0.000229173
0.00105623
-0.000359023
0.00141025
-0.000500599
0.00170591
-0.000632881
0.00204746
-0.00074652
0.0024918
-0.000821852
0.00303641
-0.0008736
0.00365076
-0.000906438
0.00428636
-0.000908668
0.00492777
-0.000900235
0.00556007
-0.000879853
0.0061664
-0.000844445
0.00672859
-0.000786738
0.00722814
-0.000695918
0.00764817
-0.000561188
0.00797605
-0.000376629
0.00820432
-0.00015115
0.00832681
7.901e-05
0.00833329
0.000257285
0.00821489
0.000349588
0.00797018
0.000375732
0.00761075
0.000381564
0.00715987
0.000395116
0.00663427
0.000429966
0.00606759
0.000467928
0.00547914
0.000504187
0.00489497
0.000522939
0.00433174
0.000525006
0.00380095
0.000511198
0.0033083
0.000483639
0.00285503
0.000445194
0.00243589
0.000399768
0.00204996
0.000350438
0.00169878
0.000295553
0.00137705
0.000239691
0.00108202
0.000182357
0.000814331
0.000121315
0.00057534
5.5711e-05
0.000368045
-1.62785e-05
0.000197504
-9.64259e-05
6.91312e-05
-0.000183916
-1.39721e-05
-0.000273868
-5.37535e-05
-0.000357311
-5.89513e-05
-0.000423487
-4.24377e-05
-0.000465821
-1.63298e-05
-0.000485033
1.13371e-05
-0.000487128
3.69647e-05
-0.000479202
6.00102e-05
-0.000466686
8.15532e-05
-0.0004529
0.00010355
-0.00043976
0.000128439
-0.00042832
0.000158879
-0.000419147
0.000197463
-0.000412533
0.00024645
-0.000408662
0.000307516
-0.000407747
0.000381533
-0.00041011
0.000468421
-0.000416189
0.000567056
-0.000426493
0.000675271
-0.000441505
0.000789934
-0.000461569
0.000907117
-0.000486777
0.00102233
-0.000516884
0.00113082
-0.000551262
0.00122801
-0.000588922
0.00130998
-0.000628619
0.00137402
-0.000669045
0.0014192
-0.000709087
0.00144672
-0.000748095
0.00145985
-0.000786023
0.00146329
-0.000823373
0.00146199
-0.000860876
-0.000898468
0.0014598
-0.000210203
5.82175e-05
-0.000401815
3.94097e-05
-0.000458172
-2.28409e-05
-0.000444829
-6.46148e-05
-0.000391138
-0.000109877
-0.000278312
-0.000191423
-9.92916e-05
-0.000311802
0.000128756
-0.00045722
0.000391901
-0.000622169
0.000686315
-0.000795012
0.00101825
-0.00096482
0.00139216
-0.00112043
0.00181397
-0.00124366
0.00224852
-0.00130815
0.00262685
-0.00128477
0.00287555
-0.00115736
0.00291698
-0.00094167
0.00272467
-0.000687541
0.00233338
-0.000453149
0.00182015
-0.000273511
0.00127513
-0.000150896
0.00078325
-6.93115e-05
0.000424105
-1.74837e-05
0.000255076
1.78793e-05
0.000290567
4.3519e-05
0.000478405
6.94474e-05
0.000724118
0.000103875
0.000948535
0.000151316
0.00112389
0.000206208
0.00126191
0.000257101
0.00139822
0.000293657
0.00155574
0.000310409
0.00174928
0.00031064
0.00197576
0.000296464
0.00222883
0.000271936
0.00249813
0.000241894
0.00277119
0.000210586
0.00303514
0.000181242
0.00327868
0.000156224
0.00349151
0.000137613
0.00366104
0.000126025
0.00377975
0.000120978
0.00383833
0.000123779
0.00383443
0.000125213
0.00376508
0.00012506
0.00362749
0.000121311
0.00342153
0.000109535
0.00315008
8.75324e-05
0.00281863
5.75852e-05
0.00245067
1.06468e-05
0.00207071
-4.35263e-05
0.00170504
-0.000100148
0.00137756
-0.000157559
0.00110296
-0.000212528
0.000884992
-0.000261232
0.000719163
-0.000300856
0.000597473
-0.000331211
0.000511567
-0.000353854
0.000454612
-0.000371365
0.000421688
-0.000386223
0.000409389
-0.000400235
0.00041527
-0.000414543
0.000437359
-0.000429836
0.000473792
-0.000446543
0.000522564
-0.000464961
0.000581376
-0.000485306
0.000647591
-0.000507721
0.000718278
-0.000532256
0.00079035
-0.000558849
0.000860788
-0.000587322
0.000926921
-0.000617395
0.000986739
-0.00064874
0.00103916
-0.000681045
0.00108421
-0.000714092
0.00112292
-0.000747796
0.00115702
-0.000782197
0.00118839
-0.000817387
0.00121843
-0.000853419
0.00124779
-0.000890238
-0.00092749
0.00127681
-6.16181e-05
0.000119836
-0.000150477
0.000128268
-0.00014547
-2.78473e-05
-8.80189e-06
-0.000201283
0.000216222
-0.000334901
0.000467058
-0.000442259
0.000700495
-0.00054524
0.000901168
-0.000657893
0.00106417
-0.000785167
0.00118998
-0.000920821
0.00127638
-0.00105123
0.001318
-0.00116204
0.00131071
-0.00123638
0.00125365
-0.00125109
0.001149
-0.00118011
0.0010005
-0.00100886
0.00081229
-0.000753464
0.000589169
-0.00046442
0.000339589
-0.00020357
7.84189e-05
-1.23411e-05
-0.000172879
0.000100401
-0.000388873
0.000146683
-0.000551328
0.000144971
-0.000647248
0.000113799
-0.00067282
6.90908e-05
-0.000626868
2.34961e-05
-0.000509353
-1.36403e-05
-0.000321043
-3.69945e-05
-6.90568e-05
-4.57782e-05
0.000231035
-4.29909e-05
0.000558256
-3.35646e-05
0.000891281
-2.26165e-05
0.00121605
-1.41275e-05
0.0015225
-9.99224e-06
0.00180453
-1.00913e-05
0.00205921
-1.27793e-05
0.00228544
-1.56454e-05
0.00248305
-1.63677e-05
0.00265197
-1.26979e-05
0.00279284
-3.25942e-06
0.00290653
1.23346e-05
0.00299297
3.45415e-05
0.00305483
6.1915e-05
0.00308678
9.32621e-05
0.00308471
0.000127138
0.00304431
0.000161706
0.00295931
0.000194533
0.0028243
0.000222547
0.00264064
0.000241248
0.00240688
0.000244407
0.0021371
0.000226252
0.0018531
0.000183848
0.00157494
0.000120608
0.00131884
4.35649e-05
0.00109201
-3.44026e-05
0.000890548
-9.93906e-05
0.000721761
-0.000162424
0.00058622
-0.000218313
0.000482666
-0.00026781
0.000408667
-0.000312223
0.000361142
-0.000352709
0.000336751
-0.000390152
0.000332144
-0.000425229
0.000344102
-0.000458501
0.000369591
-0.00049045
0.000405784
-0.0005215
0.000450081
-0.000552017
0.000500132
-0.000582307
0.000553896
-0.000612613
0.000609695
-0.00064312
0.000666262
-0.000673962
0.00072275
-0.000705227
0.000778673
-0.000736969
0.000833777
-0.000769197
0.000887863
-0.000801882
0.000940617
-0.00083495
0.000991535
-0.000868305
0.00103999
-0.000901869
0.00108541
-0.000935666
-0.000970075
0.001128
0.000187054
-6.72184e-05
0.000336485
-2.11621e-05
0.000294091
1.45465e-05
9.91409e-05
-6.33346e-06
-0.000221434
-1.43263e-05
-0.000659294
-4.39886e-06
-0.0012175
1.29637e-05
-0.00189321
1.78198e-05
-0.00267959
1.20947e-06
-0.00354348
-5.6929e-05
-0.0044475
-0.000147204
-0.0053497
-0.000259843
-0.00620101
-0.000385066
-0.00694036
-0.000511746
-0.00749478
-0.000625686
-0.00779394
-0.000709706
-0.00780142
-0.000745981
-0.00754206
-0.00072378
-0.00709517
-0.000650463
-0.00655359
-0.00055392
-0.00598368
-0.000469509
-0.00541613
-0.00042087
-0.00486019
-0.000410964
-0.00431871
-0.000427685
-0.00379541
-0.000454208
-0.00329659
-0.000475327
-0.00283071
-0.00047952
-0.00240757
-0.000460127
-0.00203729
-0.000416066
-0.00172875
-0.000351523
-0.00148789
-0.000274425
-0.00131622
-0.000194295
-0.0012105
-0.000119845
-0.00116327
-5.72174e-05
-0.00116398
-9.3814e-06
-0.00120062
2.38578e-05
-0.00126407
4.77984e-05
-0.00134558
6.51494e-05
-0.00143175
7.34725e-05
-0.0015133
7.82902e-05
-0.00158299
8.20197e-05
-0.00163109
8.26465e-05
-0.00165296
8.37798e-05
-0.00164721
8.7511e-05
-0.00161301
9.29424e-05
-0.00155012
9.88171e-05
-0.00145897
0.000103385
-0.00134083
0.000104401
-0.00119888
9.92997e-05
-0.00103993
8.54524e-05
-0.000875138
6.14639e-05
-0.000718439
2.71496e-05
-0.000581755
-1.60764e-05
-0.000473533
-6.46566e-05
-0.000392293
-0.000115643
-0.000325244
-0.00016644
-0.000271289
-0.000216379
-0.000224893
-0.000264709
-0.000181693
-0.00031101
-0.000138786
-0.00035513
-9.4416e-05
-0.00039708
-4.75917e-05
-0.000436976
2.17917e-06
-0.000475
5.50468e-05
-0.000511368
0.00011091
-0.000546312
0.000169474
-0.000580064
0.000230309
-0.000612851
0.000292891
-0.000644889
0.000356651
-0.000676373
0.000421007
-0.000707476
0.000485387
-0.000738342
0.00054924
-0.000769081
0.000612042
-0.000799771
0.000673305
-0.000830461
0.000732602
-0.00086118
0.000789604
-0.000891952
0.000844116
-0.000922817
0.000896105
-0.000953859
0.000945744
-0.000985305
-0.001018
0.000993664
-0.000267315
0.000200097
-0.00048357
0.000195092
-0.000685264
0.000216241
-0.00101293
0.000321337
-0.0014403
0.000413039
-0.00191409
0.000469388
-0.00240401
0.000502887
-0.00290884
0.00052265
-0.00343276
0.00052513
-0.00399203
0.000502339
-0.00458867
0.000449433
-0.0052135
0.000364993
-0.00584834
0.000249777
-0.00646799
0.000107895
-0.00704331
-5.03657e-05
-0.00754514
-0.000207876
-0.00794824
-0.000342878
-0.00823155
-0.000440472
-0.00838583
-0.000496178
-0.0084118
-0.000527956
-0.00831528
-0.00056603
-0.00811054
-0.000625606
-0.00783441
-0.000687097
-0.00753115
-0.000730938
-0.00723721
-0.000748154
-0.00697049
-0.000742043
-0.00673236
-0.000717654
-0.00651112
-0.000681363
-0.00628954
-0.000637648
-0.00605248
-0.00058858
-0.00579053
-0.000536382
-0.00550175
-0.000483072
-0.00519125
-0.000430339
-0.00486898
-0.00037949
-0.00454689
-0.00033147
-0.00423488
-0.000288159
-0.00393987
-0.000247205
-0.00366543
-0.000209292
-0.0034181
-0.000173861
-0.00319691
-0.000142899
-0.00299917
-0.000115718
-0.00282385
-9.26772e-05
-0.00266603
-7.4034e-05
-0.00251861
-5.99108e-05
-0.00237519
-5.04828e-05
-0.0022304
-4.59668e-05
-0.00208045
-4.65705e-05
-0.00192342
-5.26278e-05
-0.00176017
-6.39447e-05
-0.00159368
-8.10384e-05
-0.00142871
-0.000103504
-0.0012707
-0.000130859
-0.00112438
-0.000162405
-0.000991774
-0.000197258
-0.000872856
-0.000234561
-0.000765731
-0.000273565
-0.000668514
-0.000313595
-0.00057913
-0.000354093
-0.000495563
-0.000394576
-0.000416043
-0.00043465
-0.000339122
-0.000474001
-0.000263708
-0.000512389
-0.000189066
-0.000549642
-0.000114782
-0.000585652
-4.07181e-05
-0.000620377
3.30495e-05
-0.000653832
0.000106287
-0.000686089
0.000178664
-0.000717264
0.000249808
-0.000747517
0.000319355
-0.000777024
0.000386991
-0.000805977
0.00045248
-0.00083457
0.00051569
-0.000862981
0.000576595
-0.000891365
0.000635262
-0.000919846
0.000691816
-0.000948506
0.000746394
-0.000977396
0.000799106
-0.00100657
0.00085004
-0.00103624
-0.00106724
0.000899279
0.000721932
-0.000521835
0.00172133
-0.000804306
0.00255344
-0.00061587
0.00330473
-0.000429954
0.00411761
-0.000399842
0.00505842
-0.000471419
0.00612668
-0.000565375
0.0072722
-0.00062287
0.00841088
-0.000613549
0.00944137
-0.000528146
0.0102634
-0.000372637
0.0107969
-0.000168439
0.0109994
4.72833e-05
0.0108762
0.000231078
0.0104729
0.000352879
0.00985532
0.000409735
0.00909196
0.000420484
0.00824443
0.000407055
0.00735949
0.000388764
0.00646741
0.000364127
0.00557429
0.000327091
0.00467253
0.000276148
0.00376189
0.000223547
0.00285433
0.000176622
0.00197953
0.000126644
0.00116994
6.7549e-05
0.000445257
7.02764e-06
-0.000191313
-4.47927e-05
-0.000744093
-8.48682e-05
-0.00121817
-0.000114507
-0.00161851
-0.000136035
-0.00195017
-0.00015141
-0.0022182
-0.000162311
-0.00242801
-0.000169678
-0.00258536
-0.000174129
-0.00269736
-0.000176153
-0.00276847
-0.000176098
-0.00280342
-0.000174342
-0.0028059
-0.000171376
-0.00278102
-0.000167783
-0.00273269
-0.000164044
-0.00266471
-0.000160657
-0.00258057
-0.000158176
-0.0024833
-0.000157182
-0.00237567
-0.000158112
-0.00225942
-0.000162219
-0.00213789
-0.0001681
-0.00201272
-0.000177798
-0.00188529
-0.000191372
-0.00175754
-0.000208793
-0.00163104
-0.000230005
-0.00150707
-0.000254829
-0.00138651
-0.000282961
-0.00126976
-0.000314006
-0.00115681
-0.000347513
-0.00104738
-0.000382998
-0.000941016
-0.000419956
-0.000837232
-0.000457878
-0.000735546
-0.000496262
-0.000635565
-0.000534631
-0.000537028
-0.000572539
-0.000439823
-0.000609594
-0.000343999
-0.000645466
-0.000249745
-0.000679905
-0.000157372
-0.000712749
-6.72683e-05
-0.000743934
2.01396e-05
-0.000773496
0.000104443
-0.000801568
0.000185283
-0.000828357
0.000262399
-0.000854141
0.000335647
-0.000879226
0.000405005
-0.000903928
0.000470565
-0.00092854
0.000532506
-0.000953307
0.000591068
-0.000978409
0.000646516
-0.00100395
0.000699108
-0.00102999
0.000749074
-0.00105654
0.000796596
-0.00108376
-0.00111233
0.000841688
-0.000764121
0.000242286
-0.00207816
0.000509734
-0.00337141
0.000677381
-0.00445222
0.000650851
-0.00528236
0.0004303
-0.00587995
0.000126168
-0.0062735
-0.000171824
-0.00649571
-0.000400653
-0.00659389
-0.000515377
-0.00664208
-0.000479958
-0.00674168
-0.000273037
-0.00698967
7.95559e-05
-0.00740876
0.000466378
-0.00789749
0.000719808
-0.00828174
0.000737122
-0.00843462
0.000562623
-0.00833422
0.000320075
-0.0080234
9.62425e-05
-0.00756296
-7.16786e-05
-0.0070195
-0.000179331
-0.00645389
-0.000238519
-0.0059117
-0.000266043
-0.0054081
-0.000280059
-0.00493278
-0.000298691
-0.00447265
-0.000333488
-0.00402775
-0.000377348
-0.00361148
-0.000409242
-0.00324599
-0.000410292
-0.002945
-0.000385853
-0.00271198
-0.000347525
-0.00254052
-0.000307494
-0.00241909
-0.000272847
-0.00233561
-0.000245784
-0.00227999
-0.000225301
-0.00224445
-0.000209665
-0.00222306
-0.000197549
-0.00221091
-0.000188246
-0.00220376
-0.000181492
-0.00219788
-0.000177254
-0.00218998
-0.000175683
-0.00217727
-0.000176759
-0.00215903
-0.000178898
-0.0021337
-0.000183502
-0.00210164
-0.000189244
-0.00206234
-0.000197409
-0.00201493
-0.000209636
-0.0019582
-0.000224826
-0.00189317
-0.000242827
-0.0018209
-0.000263641
-0.00174242
-0.000287278
-0.00165871
-0.000313716
-0.00157066
-0.000342872
-0.00147903
-0.000374593
-0.00138438
-0.000408654
-0.00128714
-0.000444755
-0.00118761
-0.000482532
-0.001086
-0.000521563
-0.000982505
-0.000561372
-0.000877318
-0.000601449
-0.000770689
-0.00064126
-0.00066296
-0.000680268
-0.000554596
-0.000717958
-0.000446201
-0.000753861
-0.000338515
-0.000787591
-0.000232395
-0.00081887
-0.000128771
-0.000847559
-2.85897e-05
-0.000873678
6.72521e-05
-0.00089741
0.000157985
-0.000919089
0.000243019
-0.000939175
0.000321994
-0.000958199
0.000394787
-0.000976722
0.00046152
-0.000995273
0.000522526
-0.00101431
0.000578313
-0.0010342
0.000629508
-0.00105515
0.000676785
-0.00107726
0.000720794
-0.00110055
0.000762069
-0.00112504
-0.00115114
0.000800883
-3.42971e-05
0.000276583
-0.000179604
0.000655042
-0.000298493
0.00079627
-0.000356929
0.000709286
-0.00040576
0.000479131
-0.000491883
0.000212291
-0.000635256
-2.84509e-05
-0.000825489
-0.00021042
-0.00103031
-0.000310557
-0.00120795
-0.000302318
-0.00132545
-0.000155535
-0.00137594
0.000130044
-0.00138436
0.000474797
-0.00139861
0.000734063
-0.00146354
0.000802046
-0.00160043
0.000699518
-0.001808
0.000527639
-0.0020764
0.000364645
-0.00238187
0.000233789
-0.0026894
0.000128206
-0.00295724
2.93217e-05
-0.00314028
-8.30013e-05
-0.00319948
-0.000220858
-0.00311579
-0.000382387
-0.00289887
-0.000550409
-0.00256956
-0.000706659
-0.00219385
-0.000784944
-0.00183457
-0.000769578
-0.00153422
-0.000686201
-0.00132462
-0.000557125
-0.00121668
-0.000415431
-0.00119983
-0.000289704
-0.00124928
-0.000196334
-0.0013359
-0.000138678
-0.00143547
-0.000110098
-0.00153256
-0.000100455
-0.00161911
-0.000101692
-0.00169184
-0.000108769
-0.00175009
-0.000119004
-0.00179469
-0.000131081
-0.00182704
-0.000144408
-0.00184721
-0.000158722
-0.00185657
-0.000174147
-0.0018549
-0.000190914
-0.00184294
-0.000209374
-0.00182269
-0.000229882
-0.00179482
-0.000252696
-0.00175966
-0.000277993
-0.00171742
-0.000305878
-0.00166831
-0.000336386
-0.00161254
-0.000369483
-0.00155035
-0.000405064
-0.00148199
-0.00044296
-0.00140771
-0.00048293
-0.00132779
-0.000524673
-0.00124251
-0.000567819
-0.00115213
-0.000611941
-0.00105695
-0.00065655
-0.000957301
-0.0007011
-0.000853566
-0.000744995
-0.000746235
-0.0007876
-0.000635935
-0.000828257
-0.000523473
-0.000866323
-0.000409861
-0.000901203
-0.000296314
-0.000932417
-0.000184222
-0.000959651
-7.50759e-05
-0.000982825
2.96427e-05
-0.00100213
0.000128589
-0.00101804
0.000220677
-0.00103126
0.000305179
-0.0010427
0.000381765
-0.00105331
0.000450497
-0.00106401
0.000511789
-0.00107561
0.000566329
-0.00108874
0.000614989
-0.00110381
0.000658726
-0.001121
0.000698476
-0.0011403
0.000735037
-0.0011616
-0.00118502
0.000768916
4.86649e-05
0.000227918
-1.78358e-05
0.000721542
-0.000380054
0.00115849
-0.000959771
0.001289
-0.00153326
0.00105262
-0.00199704
0.000676073
-0.00240521
0.000379723
-0.00283101
0.000215374
-0.0032828
0.00014123
-0.00370132
0.000116204
-0.00397488
0.000118031
-0.00399059
0.000145748
-0.00371075
0.000194954
-0.00322942
0.000252739
-0.00271313
0.00028575
-0.00228833
0.000274719
-0.00198164
0.00022095
-0.00175667
0.000139681
-0.00157381
5.09246e-05
-0.00139925
-4.63517e-05
-0.00121551
-0.000154416
-0.00102498
-0.000273536
-0.000838773
-0.000407065
-0.000660045
-0.000561116
-0.000489173
-0.000721281
-0.000341835
-0.000853997
-0.000219866
-0.000906914
-0.000148937
-0.000840507
-0.000164176
-0.000670962
-0.000256875
-0.000464427
-0.000389431
-0.000282875
-0.00052898
-0.000150155
-0.000657911
-6.74022e-05
-0.000774261
-2.23286e-05
-0.000879074
-5.28442e-06
-0.000973575
-5.95479e-06
-0.00105911
-1.61584e-05
-0.00113681
-3.10633e-05
-0.00120746
-4.83541e-05
-0.00127121
-6.73332e-05
-0.00132736
-8.82637e-05
-0.00137582
-0.000110258
-0.001416
-0.000133966
-0.00144681
-0.000160102
-0.00146769
-0.00018849
-0.00147842
-0.000219154
-0.00147901
-0.000252109
-0.00146966
-0.000287338
-0.00145075
-0.00032479
-0.00142276
-0.000364378
-0.00138626
-0.000405977
-0.00134191
-0.000449422
-0.00129035
-0.00049451
-0.00123228
-0.000541002
-0.00116833
-0.000588622
-0.00109909
-0.000637068
-0.00102502
-0.000686007
-0.000946499
-0.000735072
-0.000863751
-0.000783848
-0.000776892
-0.000831854
-0.000685974
-0.000878518
-0.000591064
-0.000923167
-0.000492359
-0.000965028
-0.000390305
-0.00100326
-0.000285706
-0.00103702
-0.000179786
-0.00106557
-7.41699e-05
-0.00108844
2.92334e-05
-0.00110553
0.000128438
-0.00111724
0.000221636
-0.00112446
0.000307413
-0.00112848
0.000384889
-0.00113078
0.000453741
-0.00113286
0.000514155
-0.00113602
0.000566732
-0.00114131
0.000612367
-0.00114944
0.000652133
-0.00116077
0.000687148
-0.00117531
0.000718436
-0.00119288
-0.00121332
0.000746734
0.000368081
-0.000140162
0.00108761
2.0129e-06
0.00182744
0.00041866
0.00235369
0.00076275
0.00261999
0.000786321
0.00270522
0.000590848
0.00265837
0.00042657
0.00248483
0.000388911
0.00220102
0.000425045
0.00185587
0.000461352
0.00150891
0.000464986
0.00121282
0.000441846
0.00102758
0.000380194
0.000985876
0.000294439
0.0010369
0.000234729
0.00113089
0.000180721
0.00126309
8.87547e-05
0.00145682
-5.40525e-05
0.00172844
-0.000220691
0.00206433
-0.000382245
0.00242989
-0.000519975
0.0027772
-0.00062084
0.00304892
-0.000678789
0.0031839
-0.000696097
0.00313892
-0.000676294
0.00290293
-0.000618009
0.00250085
-0.000504836
0.00198589
-0.000325552
0.00143049
-0.00011556
0.000904235
6.18304e-05
0.000452929
0.000168432
9.39975e-05
0.000208776
-0.000180458
0.000207053
-0.000386732
0.000183946
-0.000543392
0.000151376
-0.000664863
0.000115516
-0.000760517
7.94955e-05
-0.00083619
4.46097e-05
-0.00089554
1.0996e-05
-0.000942111
-2.07615e-05
-0.000976719
-5.36556e-05
-0.00100232
-8.46573e-05
-0.0010188
-0.000117491
-0.00102687
-0.000152033
-0.0010268
-0.000188557
-0.00101872
-0.000227238
-0.00100272
-0.000268103
-0.000979013
-0.000311049
-0.000947931
-0.000355872
-0.000910012
-0.000402298
-0.000865988
-0.00045
-0.00081679
-0.000498621
-0.000763515
-0.000547785
-0.000707391
-0.000597126
-0.000649695
-0.000646318
-0.000591655
-0.000695108
-0.000534318
-0.000743344
-0.000478405
-0.000790984
-0.000424187
-0.000838066
-0.000371393
-0.000884647
-0.000319187
-0.000930724
-0.000266295
-0.00097606
-0.000211167
-0.00102016
-0.000152288
-0.00106214
-8.85262e-05
-0.00110078
-1.94811e-05
-0.00113462
5.42918e-05
-0.00116221
0.000131251
-0.00118249
0.000209111
-0.0011951
0.000285293
-0.00120064
0.000357431
-0.00120062
0.000423741
-0.00119709
0.000483165
-0.00119228
0.000535339
-0.00118819
0.000580463
-0.00118644
0.000619143
-0.00118812
0.00065225
-0.00119387
0.000680784
-0.00120384
0.000705721
-0.00121782
-0.00123543
0.000727834
-0.00034046
0.000200297
-0.000563147
0.0002247
-0.000389055
0.000244568
-4.32895e-05
0.000416985
0.000239133
0.000503898
0.000430098
0.000399884
0.000653149
0.000203518
0.00101824
2.38185e-05
0.00155111
-0.000107828
0.00222124
-0.000208774
0.00297381
-0.000287588
0.00374661
-0.000330949
0.00442914
-0.000302332
0.00486932
-0.000145749
0.00492937
0.000174682
0.00456026
0.000549836
0.00390219
0.000746818
0.00318114
0.000667002
0.00254145
0.000418997
0.00202167
0.000137534
0.00161017
-0.000108474
0.00127204
-0.000282712
0.000954261
-0.000361008
0.000605371
-0.000347207
0.000203451
-0.000274374
-0.000232831
-0.000181726
-0.000658397
-7.92697e-05
-0.000988474
4.52532e-06
-0.00117082
6.67905e-05
-0.00121476
0.000105766
-0.00117025
0.00012392
-0.00108736
0.000125892
-0.00099663
0.000116319
-0.000911562
9.88782e-05
-0.000836315
7.61281e-05
-0.000769904
4.91056e-05
-0.000712902
2.24937e-05
-0.000664817
-3.47546e-06
-0.000622616
-3.12048e-05
-0.000583979
-5.93998e-05
-0.000549131
-8.85031e-05
-0.000514429
-0.000119359
-0.000478979
-0.000152941
-0.000441117
-0.000189894
-0.000399231
-0.000230443
-0.00035206
-0.00027441
-0.000298841
-0.000321322
-0.00023937
-0.000370519
-0.000173969
-0.000421273
-0.000103431
-0.000472837
-2.89678e-05
-0.000524464
4.78116e-05
-0.000575401
0.000124912
-0.000624886
0.00019997
-0.000672184
0.000270319
-0.000716667
0.000333141
-0.000757929
0.000385706
-0.000795909
0.000425705
-0.000830983
0.000451628
-0.000863989
0.000463135
-0.000896155
0.000461297
-0.000928885
0.000448773
-0.000963537
0.000429583
-0.00100097
0.000408669
-0.00104122
0.000391167
-0.00108328
0.000381547
-0.001125
0.000382716
-0.00116338
0.000395445
-0.00119522
0.000418367
-0.00121802
0.000448616
-0.00123089
0.00048282
-0.00123482
0.000517958
-0.00123223
0.000551823
-0.00122615
0.00058308
-0.00121945
0.000611104
-0.00121446
0.000635782
-0.0012128
0.000657339
-0.00121543
0.000676208
-0.00122271
0.000692898
-0.00123451
-0.00125037
0.000707836
0.00045602
-0.000255723
0.00122874
-0.000548023
0.00218168
-0.000708368
0.00339826
-0.000799597
0.00483515
-0.000932986
0.00637088
-0.00113585
0.00795309
-0.00137868
0.00958137
-0.00160446
0.0112338
-0.00176022
0.0128335
-0.00180855
0.0142671
-0.00172112
0.0154112
-0.00147514
0.0161512
-0.00104229
0.0163797
-0.000374199
0.0160612
0.000493156
0.0152354
0.00137558
0.0139993
0.00198298
0.0124596
0.00220671
0.010702
0.00217652
0.00879631
0.00204327
0.00684136
0.00184648
0.00500103
0.00155761
0.00345479
0.00118523
0.00229816
0.000809428
0.00150961
0.000514173
0.00100122
0.000326664
0.000693128
0.000228823
0.000507424
0.000190228
0.000397395
0.000176819
0.000330291
0.00017287
0.000285733
0.000168479
0.000252149
0.000159476
0.000227678
0.00014079
0.00020861
0.000117946
0.000193418
9.13206e-05
0.000180818
6.17054e-05
0.000173395
2.99164e-05
0.000173445
-3.52455e-06
0.000180679
-3.84392e-05
0.000196357
-7.50777e-05
0.000221484
-0.000113631
0.000256729
-0.000154604
0.000302156
-0.000198368
0.0003574
-0.000245138
0.000421743
-0.000294787
0.000494238
-0.000346905
0.000573816
-0.000400899
0.00065941
-0.000456114
0.000750018
-0.000511881
0.000844688
-0.000567507
0.000942413
-0.000622188
0.00104191
-0.0006749
0.00114137
-0.000724343
0.00123819
-0.000769001
0.00132886
-0.000807339
0.00140903
-0.000838101
0.00147376
-0.00086064
0.00151798
-0.000875202
0.0015371
-0.000883111
0.00152776
-0.000886815
0.00148863
-0.000889754
0.00142106
-0.000895964
0.00132951
-0.000909423
0.00122145
-0.000933163
0.00110653
-0.00096835
0.000995048
-0.00101352
0.000896047
-0.00106438
0.000815423
-0.0011146
0.00075507
-0.00115767
0.000713379
-0.0011892
0.000686751
-0.00120819
0.00067119
-0.00121667
0.000663299
-0.00121826
0.000660565
-0.00121672
0.000661254
-0.00121515
0.000664186
-0.00121573
0.000668559
-0.00121981
0.000673846
-0.001228
0.000679708
-0.00124037
-0.00125653
0.000685868
-9.86018e-05
-0.000157121
-0.000347652
-0.000298974
-0.00060132
-0.0004547
-0.000696261
-0.000704656
-0.000629739
-0.000999508
-0.000482514
-0.00128308
-0.000330648
-0.00153055
-0.00019623
-0.00173888
-5.22842e-05
-0.00190417
0.000144379
-0.00200521
0.000431026
-0.00200776
0.000826792
-0.0018709
0.00136622
-0.00158171
0.00212857
-0.00113655
0.00320339
-0.000581671
0.00460216
-2.31824e-05
0.00615414
0.000431
0.00761097
0.000749892
0.00881271
0.000974775
0.00969372
0.00116225
0.0102319
0.0013083
0.0104355
0.00135396
0.010343
0.00127778
0.0100158
0.0011366
0.00950753
0.00102247
0.00885368
0.000980514
0.00808693
0.000995576
0.00724835
0.00102881
0.00637829
0.00104687
0.00551964
0.00103152
0.00470889
0.000979233
0.00397215
0.000896217
0.00331735
0.000795589
0.00275226
0.00068303
0.00227624
0.000567342
0.00188466
0.000453292
0.00157141
0.000343159
0.00132931
0.000238576
0.00115137