/*--------------------------------*- C++ -*----------------------------------*\
| =========                 |                                                 |
| \\      /  F ield         | OpenFOAM: The Open Source CFD Toolbox           |
|  \\    /   O peration     | Version:  2012                                  |
|   \\  /    A nd           | Website:  www.openfoam.com                      |
|    \\/     M anipulation  |                                                 |
\*---------------------------------------------------------------------------*/
FoamFile
{
    version     2.0;
    format      ascii;
    class       volVectorField;
    location    "0.16";
    object      U;
}
// * * * * * * * * * * * * * * * * * * * * * * * * * * * * * * * * * * * * * //

dimensions      [0 1 -1 0 0 0 0];


internalField   nonuniform List<vector> 
42400
(
(-4.78092 3.6495 1.0273e-16)
(-19.2176 18.8199 1.50977e-16)
(-36.6849 43.6057 -1.53838e-16)
(-55.9149 65.3854 0)
(-72.937 82.2498 0)
(-90.4734 93.979 -3.61426e-19)
(-106.913 101.689 0)
(-113.211 98.7408 3.27035e-19)
(-95.4455 71.823 0)
(-47.8514 18.2667 2.22065e-19)
(13.5423 -41.4359 1.30898e-19)
(57.3139 -77.7617 -3.8289e-20)
(65.6135 -81.1915 1.01905e-17)
(51.0879 -66.7412 -1.04207e-17)
(35.3782 -51.0326 1.36847e-19)
(25.7682 -39.714 0)
(19.9823 -32.0043 0)
(15.6797 -26.2105 0)
(11.8513 -21.4053 0)
(8.0938 -17.2953 0)
(4.33087 -13.847 0)
(0.642884 -11.1354 2.24558e-19)
(-2.89687 -9.21963 1.09456e-17)
(-6.23686 -8.14085 -2.11032e-18)
(-9.21607 -7.94609 -8.80407e-18)
(-11.572 -8.60168 8.19894e-20)
(-13.1564 -9.95772 6.71054e-20)
(-14.0932 -11.6811 -1.1937e-19)
(-14.6068 -13.2834 0)
(-14.8063 -14.3263 0)
(-14.5511 -14.624 -8.72016e-18)
(-13.5333 -14.3254 8.8013e-18)
(-11.6455 -13.7753 -1.24758e-19)
(-9.19299 -13.194 7.61426e-18)
(-6.68022 -12.5924 -7.55097e-18)
(-4.50591 -11.9275 0)
(-2.83109 -11.1873 0)
(-1.63518 -10.4005 0)
(-0.809231 -9.61039 0)
(-0.23356 -8.86142 5.15874e-18)
(0.191024 -8.18977 -5.17662e-18)
(0.531101 -7.61938 4.31624e-18)
(0.826792 -7.15589 -5.97592e-19)
(1.10151 -6.78857 -7.29883e-18)
(1.36677 -6.49819 3.38033e-18)
(1.62664 -6.26288 -2.74459e-18)
(1.88051 -6.06118 5.379e-18)
(2.12436 -5.87415 -2.47486e-18)
(2.35161 -5.68695 -1.35463e-19)
(2.55422 -5.49014 1.9161e-18)
(2.72422 -5.28018 -3.62237e-18)
(2.85516 -5.05864 -3.40153e-20)
(2.94285 -4.82989 1.70665e-18)
(2.98512 -4.59808 -1.62621e-19)
(2.98104 -4.3646 0)
(2.93036 -4.1269 0)
(2.83372 -3.87869 0)
(2.69345 -3.61131 9.77922e-20)
(2.51481 -3.31564 8.46853e-20)
(2.30698 -2.98412 0)
(2.08351 -2.61282 9.25079e-19)
(1.86236 -2.20309 -9.60619e-19)
(1.66507 -1.76223 -6.19002e-19)
(1.5151 -1.30323 6.07355e-19)
(1.43546 -0.843354 0)
(1.44624 -0.401957 0)
(1.56255 0.00159004 -1.52439e-19)
(1.79345 0.350103 1.48977e-19)
(2.14108 0.629355 4.44642e-21)
(2.5998 0.828878 0)
(3.15554 0.94314 0)
(3.78696 0.971528 -9.8368e-21)
(4.46633 0.918304 -1.19381e-20)
(5.16028 0.792252 0)
(5.83124 0.606299 -1.41091e-20)
(6.43991 0.377038 -1.1537e-19)
(6.94906 0.123646 1.1191e-19)
(7.32976 -0.133288 3.12633e-20)
(7.56177 -0.378573 1.28824e-19)
(7.68536 -0.587548 1.37108e-19)
(16.4654 -14.076 0)
(47.934 -36.5035 -5.84738e-17)
(55.3146 -41.8587 6.00436e-17)
(35.8343 -16.2646 0)
(4.2074 19.3995 0)
(-17.8018 48.792 -4.14937e-17)
(-20.9681 63.6067 4.2911e-17)
(-6.66585 64.6792 -3.34223e-19)
(16.539 57.0143 0)
(37.8403 45.8454 -2.27259e-19)
(49.2921 35.8267 -1.33954e-19)
(49.0815 30.214 3.77435e-18)
(41.8568 28.9667 2.37265e-18)
(34.577 29.338 -6.62258e-18)
(30.3541 29.0725 -1.38178e-17)
(28.1668 27.7188 1.36345e-17)
(26.7915 25.8365 0)
(25.9295 23.8441 -2.89736e-19)
(25.5581 21.8578 0)
(25.5973 19.9483 0)
(25.857 18.1899 0)
(26.0953 16.5963 1.20552e-17)
(26.1061 15.0613 -3.04907e-18)
(25.8472 13.2856 -9.91014e-18)
(25.5043 10.9151 0)
(25.2953 7.92401 -7.23932e-20)
(25.0284 4.8035 -6.70583e-20)
(24.2922 2.36133 1.19098e-19)
(22.9498 0.970783 -8.25352e-19)
(21.1684 0.526948 8.3387e-19)
(19.1743 0.721253 -2.9557e-20)
(17.1087 1.23794 -1.722e-20)
(15.0441 1.82226 -2.87572e-20)
(13.0307 2.29511 1.57441e-19)
(11.1238 2.55436 -6.67832e-19)
(9.37559 2.55223 5.88947e-19)
(7.82993 2.31465 0)
(6.50967 1.88364 -6.21972e-20)
(5.42706 1.31263 0)
(4.57276 0.643114 -1.6148e-19)
(3.91813 -0.0892779 1.89012e-18)
(3.43999 -0.846918 -2.0712e-18)
(3.11748 -1.59875 1.98963e-19)
(2.92701 -2.32602 -1.89231e-19)
(2.84615 -3.01512 -1.90042e-20)
(2.85547 -3.65015 -1.68676e-19)
(2.93627 -4.21056 1.57915e-19)
(3.06791 -4.67177 2.01124e-18)
(3.22563 -5.00882 -2.014e-18)
(3.38106 -5.20411 0)
(3.5072 -5.25569 1.29279e-19)
(3.58494 -5.18021 2.03335e-19)
(3.60671 -5.00822 1.22027e-18)
(3.57545 -4.7743 -1.22741e-18)
(3.50011 -4.50773 -1.47916e-19)
(3.39125 -4.22775 1.81733e-18)
(3.25864 -3.94329 -2.03273e-18)
(3.11079 -3.65563 -9.7799e-20)
(2.95581 -3.36133 -8.46868e-20)
(2.80288 -3.05462 1.06853e-18)
(2.66258 -2.73044 -1.05161e-18)
(2.54706 -2.3865 5.10739e-20)
(2.47004 -2.02431 3.77686e-20)
(2.44586 -1.64962 0)
(2.48807 -1.27215 -2.85129e-19)
(2.60772 -0.904522 9.65882e-20)
(2.81173 -0.560764 2.40866e-19)
(3.10152 -0.254578 0)
(3.47242 0.00191163 -7.42316e-21)
(3.91336 0.199174 -3.01766e-21)
(4.40686 0.33121 -6.87573e-20)
(4.92988 0.396104 7.67917e-20)
(5.45494 0.39613 1.18583e-19)
(5.95181 0.337643 -1.1834e-19)
(6.39007 0.230712 2.97261e-20)
(6.74304 0.0882224 -1.27686e-19)
(6.99276 -0.0757433 9.09033e-20)
(7.13496 -0.248116 -3.12745e-20)
(7.17968 -0.421613 1.64558e-19)
(7.1794 -0.563144 -1.2851e-19)
(-1.07851 1.34549 3.17684e-17)
(-2.75026 1.99049 -2.35882e-20)
(-0.361218 -3.03838 -2.95272e-19)
(4.90482 -9.72845 -1.5769e-20)
(8.3637 -13.5182 0)
(9.71946 -12.9641 7.84063e-17)
(11.3584 -10.9635 -1.51106e-16)
(15.1024 -9.9944 7.25313e-17)
(20.6295 -10.7799 -5.49676e-17)
(26.393 -12.6931 9.56791e-18)
(31.0158 -14.6752 4.72631e-17)
(33.9809 -15.672 1.47646e-19)
(35.5079 -14.9914 1.31274e-19)
(36.1039 -12.6883 -2.40055e-17)
(36.1496 -9.1751 2.44592e-17)
(35.8089 -4.87182 3.92256e-19)
(35.1492 -0.249334 1.83934e-17)
(34.2617 4.37428 -2.54379e-18)
(33.1464 8.9825 -1.66477e-17)
(31.5603 13.7211 1.59791e-19)
(29.0886 18.8118 -1.65148e-19)
(25.2744 24.501 -1.7204e-19)
(19.7847 30.9687 0)
(12.8183 37.9066 2.34116e-19)
(5.95511 44.02 1.827e-18)
(1.97773 47.2757 -3.88408e-18)
(2.47924 46.3786 2.18787e-18)
(6.14354 42.1779 -1.85146e-18)
(10.2777 36.7679 1.87655e-18)
(13.1085 31.761 1.24105e-18)
(14.2293 27.7083 -1.81793e-18)
(13.9942 24.5013 5.53528e-19)
(12.9361 21.8477 1.14619e-19)
(11.5084 19.4995 0)
(10.0322 17.3081 0)
(8.70076 15.1909 -3.86504e-20)
(7.60111 13.1278 0)
(6.75043 11.1187 -5.52512e-20)
(6.12048 9.16796 3.19042e-18)
(5.66155 7.28977 -6.78736e-18)
(5.33475 5.51522 3.66596e-18)
(5.10636 3.85868 0)
(4.94422 2.31831 0)
(4.83248 0.904903 3.98793e-18)
(4.77976 -0.388861 -3.79078e-18)
(4.79697 -1.56438 -2.33927e-19)
(4.88867 -2.60658 0)
(5.04684 -3.48815 0)
(5.24459 -4.17181 2.91532e-18)
(5.43323 -4.62387 -2.90094e-18)
(5.55498 -4.83142 -1.29133e-19)
(5.5711 -4.81723 0)
(5.47676 -4.63725 -1.72036e-18)
(5.29443 -4.35953 1.53648e-18)
(5.05832 -4.04132 -2.07974e-18)
(4.80041 -3.71925 2.22585e-18)
(4.54478 -3.41159 -1.49934e-18)
(4.3071 -3.12397 2.95333e-18)
(4.09741 -2.85448 -2.49494e-18)
(3.92248 -2.59744 1.72724e-19)
(3.78763 -2.34617 9.44612e-19)
(3.69767 -2.09505 6.39969e-19)
(3.65728 -1.84091 -6.66307e-19)
(3.67085 -1.58379 0)
(3.74187 -1.32694 2.35622e-19)
(3.87201 -1.07635 -8.58677e-20)
(4.06017 -0.83985 -2.16785e-19)
(4.30169 -0.626005 0)
(4.58787 -0.442972 1.5072e-21)
(4.90595 -0.297456 -4.60004e-20)
(5.23958 -0.193878 3.71947e-20)
(5.56981 -0.133814 0)
(5.87692 -0.115741 0)
(6.14279 -0.135188 1.46564e-20)
(6.354 -0.185392 -1.56236e-20)
(6.50498 -0.258451 -1.01945e-19)
(6.59998 -0.346706 1.66609e-19)
(6.65203 -0.443997 0)
(6.67895 -0.545306 -3.28469e-20)
(6.70289 -0.629517 -1.28503e-19)
(-1.80187 0.211636 -5.49382e-17)
(-11.1815 5.9364 8.2333e-17)
(-24.1867 15.1166 -4.19268e-17)
(-34.645 22.741 -4.14893e-17)
(-38.6432 26.0461 4.26051e-17)
(-37.125 25.3945 0)
(-31.9821 22.4364 -8.17009e-17)
(-25.1085 18.56 8.28923e-17)
(-17.73 14.5502 -7.80941e-17)
(-10.4066 10.7586 7.94641e-17)
(-3.37254 7.37458 -7.21204e-17)
(3.31369 4.47126 1.42017e-16)
(9.63962 2.06193 -1.33193e-16)
(15.5479 0.122914 1.23551e-16)
(20.8545 -1.46142 -1.12719e-16)
(25.2753 -2.8803 5.38987e-17)
(28.4931 -4.30951 4.19663e-17)
(30.2337 -5.9264 -7.96115e-17)
(30.3906 -7.74864 3.79446e-17)
(29.0401 -9.53251 -1.58446e-19)
(26.411 -10.8831 -1.67154e-19)
(22.8405 -11.4625 2.6132e-17)
(18.7809 -11.0852 -2.61348e-17)
(14.7817 -9.72998 -1.69387e-19)
(11.2379 -7.42994 0)
(8.02674 -4.21466 -1.35191e-19)
(4.64271 -0.22935 0)
(0.812154 4.11723 -7.40656e-18)
(-3.20762 8.31249 2.61227e-18)
(-6.85828 11.9159 4.99564e-18)
(-9.64434 14.7089 1.07258e-18)
(-11.3214 16.7081 -1.07402e-18)
(-11.9083 18.043 2.93946e-20)
(-11.5765 18.8712 -2.3176e-20)
(-10.5569 19.3319 -3.51367e-18)
(-9.0742 19.5375 3.61659e-18)
(-7.32363 19.5727 0)
(-5.46375 19.4869 4.98354e-18)
(-3.62061 19.3072 -4.89171e-18)
(-1.89217 19.0547 2.617e-19)
(-0.338129 18.7268 -2.83807e-19)
(1.01577 18.2927 0)
(2.17608 17.7031 0)
(3.17273 16.9204 0)
(4.06667 15.8939 -2.4367e-19)
(4.92552 14.565 3.55957e-18)
(5.80448 12.8888 -3.32611e-18)
(6.71091 10.8738 0)
(7.56512 8.60679 0)
(8.21737 6.2749 1.67102e-18)
(8.52174 4.11832 -1.57974e-18)
(8.42331 2.31677 1.14889e-18)
(7.99849 0.935812 -8.68628e-19)
(7.40024 -0.0549691 8.27134e-20)
(6.76657 -0.731346 -6.55618e-19)
(6.17855 -1.17288 8.20874e-19)
(5.67137 -1.44653 -1.08369e-18)
(5.25405 -1.60307 1.02964e-18)
(4.92442 -1.67982 0)
(4.67727 -1.70194 -2.88887e-20)
(4.50604 -1.68498 -5.43491e-19)
(4.4036 -1.63832 1.18446e-19)
(4.36297 -1.56819 7.77324e-19)
(4.37756 -1.47968 -5.65405e-19)
(4.44111 -1.378 2.28857e-19)
(4.54725 -1.26882 9.54122e-20)
(4.68899 -1.15825 -8.15063e-20)
(4.85838 -1.05241 6.33307e-21)
(5.04631 -0.956879 4.83904e-20)
(5.24281 -0.876169 -5.62535e-20)
(5.43768 -0.813231 2.74448e-20)
(5.62159 -0.769229 1.51164e-19)
(5.7874 -0.743572 -1.2891e-19)
(5.93147 -0.734253 0)
(6.05432 -0.738408 1.53182e-19)
(6.16013 -0.752896 -3.17109e-20)
(6.25481 -0.774788 -3.38358e-19)
(6.34333 -0.801784 1.45575e-19)
(6.42875 -0.830662 -1.40299e-19)
(6.51524 -0.8487 1.3717e-19)
(4.6958 -3.46827 -6.3932e-18)
(20.7159 -15.6001 0)
(40.9961 -29.5818 0)
(56.3947 -40.3861 -1.24532e-19)
(66.5328 -45.9802 0)
(74.0714 -49.4775 0)
(80.5218 -52.2999 0)
(86.3752 -55.0246 4.2644e-19)
(91.7951 -57.7912 0)
(96.7419 -60.4774 -4.10572e-20)
(100.83 -62.7633 -1.11923e-17)
(103.357 -64.186 2.24808e-17)
(103.165 -63.9777 -1.19911e-17)
(98.6378 -61.0396 0)
(88.2209 -54.2829 2.79715e-19)
(71.5122 -43.4226 -2.97763e-19)
(50.357 -29.7425 0)
(28.6027 -15.8854 -1.46084e-17)
(10.1791 -4.50616 2.90327e-17)
(-2.8742 3.06659 -1.06534e-18)
(-10.7444 7.05877 -1.34191e-17)
(-14.7456 8.50587 -3.16139e-19)
(-16.2086 8.4578 0)
(-16.0651 7.65252 9.37341e-18)
(-14.9053 6.54053 -9.2115e-18)
(-13.1193 5.39544 7.20065e-18)
(-10.9768 4.39391 -7.14579e-18)
(-8.64173 3.64066 -5.66342e-18)
(-6.19951 3.16974 5.60397e-18)
(-3.70378 2.94805 0)
(-1.21192 2.91086 3.12223e-18)
(1.20363 2.99511 -3.14869e-18)
(3.46002 3.15603 -9.44282e-21)
(5.48784 3.37829 3.41273e-19)
(7.23202 3.65955 -3.20137e-19)
(8.65561 4.00435 7.40988e-20)
(9.74163 4.41921 -1.54924e-19)
(10.4882 4.89893 -2.94232e-18)
(10.9151 5.44254 2.95551e-18)
(11.0328 6.04465 3.71646e-18)
(10.8712 6.68828 5.12718e-19)
(10.4682 7.34995 -4.46742e-18)
(9.86902 8.01122 0)
(9.1093 8.64953 3.03797e-19)
(8.20959 9.22859 -3.12067e-18)
(7.18993 9.71144 7.13697e-18)
(6.07821 10.0589 -6.01869e-18)
(4.91475 10.2196 2.59146e-18)
(3.7808 10.1275 0)
(2.80535 9.6983 1.15018e-19)
(2.13602 8.86705 -1.02356e-18)
(1.87454 7.6561 1.02003e-18)
(2.00058 6.19308 -1.48375e-20)
(2.3759 4.66062 -3.92452e-19)
(2.82732 3.22688 2.56889e-19)
(3.21572 1.97861 -2.10963e-19)
(3.48793 0.955868 -1.53068e-19)
(3.66198 0.158953 3.74031e-19)
(3.77666 -0.443544 -2.30636e-19)
(3.86586 -0.890125 2.56196e-19)
(3.95251 -1.2129 0)
(4.04858 -1.43733 -1.89292e-20)
(4.15875 -1.58361 -7.43651e-20)
(4.28368 -1.66821 5.13889e-20)
(4.42203 -1.70489 1.90242e-21)
(4.57139 -1.70537 0)
(4.72883 -1.6796 -1.1096e-19)
(4.89112 -1.63596 8.55091e-20)
(5.05507 -1.58134 1.07413e-20)
(5.21777 -1.52116 2.45702e-20)
(5.37693 -1.45948 -4.23979e-20)
(5.53107 -1.39913 7.24411e-21)
(5.67956 -1.3419 2.09641e-19)
(5.82226 -1.28875 -1.78624e-19)
(5.95897 -1.24005 2.48424e-20)
(6.08886 -1.19586 0)
(6.21021 -1.15627 2.08681e-19)
(6.32087 -1.12159 -1.63553e-19)
(6.4205 -1.09016 0)
(6.51191 -1.05811 1.43471e-19)
(-9.47665 6.32489 -4.00319e-19)
(-21.9899 17.5449 -2.73732e-17)
(-28.3725 19.4357 2.46381e-17)
(-27.826 20.0348 -4.79481e-17)
(-27.568 18.0356 2.32015e-17)
(-27.8972 16.1606 -1.53941e-20)
(-28.6391 13.6891 1.44469e-17)
(-28.8781 9.8991 -1.48094e-17)
(-28.1495 4.74538 1.89583e-20)
(-26.7827 -1.19597 3.87171e-20)
(-25.3592 -7.27166 -9.96e-18)
(-24.1972 -13.1365 -1.04244e-17)
(-23.2201 -18.685 2.10287e-17)
(-22.1341 -23.8207 -2.26352e-17)
(-20.667 -28.3213 4.60417e-17)
(-18.7396 -31.8167 -2.38856e-17)
(-16.5001 -33.9097 0)
(-14.1724 -34.4337 0)
(-11.8328 -33.6573 2.62845e-17)
(-9.36173 -32.1859 3.29441e-19)
(-6.59551 -30.6107 -2.67902e-17)
(-3.49748 -29.2376 2.73892e-17)
(-0.208797 -28.0679 -5.53448e-17)
(2.99455 -26.9368 2.78053e-17)
(5.78052 -25.6441 2.63526e-17)
(7.83666 -24.0235 -1.61926e-18)
(8.93512 -21.9789 -2.57649e-17)
(8.98477 -19.5094 4.2656e-19)
(8.05568 -16.7157 -3.91632e-19)
(6.35916 -13.7802 7.12245e-19)
(4.19328 -10.9231 0)
(1.87847 -8.35623 1.25605e-17)
(-0.312636 -6.237 -2.42815e-17)
(-2.20065 -4.63247 1.16339e-17)
(-3.71308 -3.53428 0)
(-4.85613 -2.87599 -8.60645e-18)
(-5.68591 -2.56646 8.67254e-18)
(-6.27789 -2.5133 0)
(-6.68639 -2.61286 0)
(-6.97699 -2.77965 -6.80468e-18)
(-7.18914 -2.94737 7.00117e-18)
(-7.3394 -3.06464 -6.34599e-20)
(-7.42677 -3.10162 0)
(-7.44357 -3.05242 5.20624e-18)
(-7.37721 -2.92409 -8.22276e-19)
(-7.20869 -2.73051 -5.22829e-18)
(-6.91523 -2.4911 -2.16365e-19)
(-6.47404 -2.22878 3.67079e-19)
(-5.8672 -1.96991 0)
(-5.09073 -1.74268 -1.98049e-18)
(-4.16955 -1.57117 3.22421e-18)
(-3.15979 -1.47493 -1.42622e-18)
(-2.13539 -1.45892 -8.90734e-20)
(-1.16826 -1.5214 -5.59376e-19)
(-0.299063 -1.64634 1.84197e-19)
(0.466598 -1.80638 5.95297e-19)
(1.13942 -1.97036 -2.02877e-19)
(1.72779 -2.12695 0)
(2.24366 -2.26424 0)
(2.6983 -2.3731 -3.64069e-21)
(3.10086 -2.44992 -7.6741e-21)
(3.45927 -2.49462 0)
(3.7806 -2.50925 -1.10214e-19)
(4.07104 -2.49702 1.05537e-19)
(4.33587 -2.46175 1.88556e-19)
(4.57945 -2.40747 6.26719e-20)
(4.80524 -2.33822 -1.7979e-19)
(5.01589 -2.25785 2.33186e-19)
(5.21332 -2.16989 -2.27729e-19)
(5.39883 -2.07743 1.17673e-20)
(5.5731 -1.98307 -2.186e-19)
(5.73624 -1.88884 2.11819e-19)
(5.8879 -1.79632 2.08131e-19)
(6.02737 -1.70661 -2.58976e-19)
(6.15387 -1.62055 1.90524e-19)
(6.26688 -1.5388 -2.09082e-19)
(6.36641 -1.46203 1.91981e-19)
(6.45349 -1.39056 -3.65694e-19)
(6.53161 -1.32283 6.942e-21)
(6.60537 -1.26188 8.57262e-21)
(-5.37028 1.74332 -1.59838e-17)
(-7.64432 1.28628 1.27247e-20)
(-5.78087 -0.00284047 2.26509e-17)
(-4.20945 -3.05539 -4.50951e-17)
(-4.201 -4.97997 2.24167e-17)
(-5.22643 -6.89298 -1.95192e-17)
(-6.57597 -8.95506 2.69449e-18)
(-7.38632 -11.3533 1.82362e-17)
(-6.8682 -14.7214 -1.12935e-17)
(-4.33357 -19.3318 1.21142e-17)
(0.316121 -25.1581 -3.60007e-18)
(6.52325 -31.9435 3.9379e-18)
(13.3598 -39.2483 4.54711e-18)
(19.8245 -46.4019 -4.50823e-18)
(24.9331 -52.5768 1.70165e-19)
(27.761 -57.0313 1.99234e-19)
(27.5788 -59.2058 3.51223e-17)
(24.1709 -58.8575 -3.58291e-17)
(18.2222 -56.2824 -5.25274e-19)
(11.2963 -52.3476 3.2167e-19)
(5.1261 -48.1298 4.47525e-17)
(0.736653 -44.3839 -4.49713e-17)
(-1.82265 -41.3274 0)
(-3.07078 -38.8411 -2.32193e-19)
(-3.59048 -36.7615 0)
(-3.81379 -34.9734 0)
(-4.00795 -33.368 -2.28374e-19)
(-4.30286 -31.829 -3.09075e-17)
(-4.71641 -30.2613 3.1497e-17)
(-5.19116 -28.6134 2.54427e-17)
(-5.6393 -26.8783 -2.64599e-17)
(-5.98321 -25.0786 5.79237e-19)
(-6.18021 -23.2544 -5.17037e-19)
(-6.22725 -21.4516 0)
(-6.15239 -19.7149 -3.38113e-19)
(-5.99648 -18.0767 0)
(-5.79651 -16.5531 0)
(-5.58049 -15.1528 -2.5465e-19)
(-5.37872 -13.8829 0)
(-5.20691 -12.7411 0)
(-5.06945 -11.7137 6.85748e-18)
(-4.96375 -10.7895 -6.47136e-18)
(-4.87721 -9.9583 0)
(-4.78797 -9.20186 0)
(-4.67154 -8.5018 0)
(-4.50452 -7.84445 -1.69919e-19)
(-4.26635 -7.22186 2.16778e-19)
(-3.94098 -6.63235 1.9887e-18)
(-3.5201 -6.08049 -2.15988e-18)
(-3.0044 -5.57628 1.3762e-18)
(-2.40656 -5.1307 -1.50943e-18)
(-1.74877 -4.7547 1.03701e-19)
(-1.06013 -4.4523 2.70012e-20)
(-0.369999 -4.21833 0)
(0.297437 -4.04108 0)
(0.927894 -3.90574 -1.15544e-19)
(1.51598 -3.79955 6.74777e-20)
(2.05871 -3.71123 3.28561e-20)
(2.55598 -3.63141 8.0749e-20)
(3.00997 -3.55305 -9.93983e-20)
(3.42377 -3.47113 -2.78399e-19)
(3.80071 -3.38239 -4.17943e-20)
(4.14396 -3.28506 6.36287e-19)
(4.45642 -3.17863 -3.41366e-19)
(4.74061 -3.0636 -2.90981e-20)
(4.99881 -2.94125 -3.49507e-20)
(5.23299 -2.81335 -3.69434e-19)
(5.44494 -2.68195 7.23129e-19)
(5.63628 -2.54919 -3.53539e-19)
(5.8085 -2.4171 -3.63661e-20)
(5.96301 -2.28747 -3.22572e-19)
(6.10122 -2.16182 3.57049e-19)
(6.22456 -2.04131 0)
(6.33451 -1.9267 3.13696e-20)
(6.43253 -1.81841 0)
(6.51993 -1.71658 -2.32375e-19)
(6.59782 -1.62114 1.10408e-20)
(6.66747 -1.53156 2.07772e-19)
(6.73151 -1.44643 -1.32646e-19)
(6.79211 -1.37287 -3.21066e-20)
(20.2128 -8.31354 -5.71439e-17)
(44.0413 -12.6943 8.60726e-17)
(40.9717 -9.57177 1.17098e-19)
(30.4234 2.1491 7.468e-17)
(21.4692 10.1455 -7.63853e-17)
(17.4191 17.2134 6.59221e-17)
(15.7246 23.8147 -1.28402e-16)
(14.3452 30.7499 6.1772e-17)
(12.31 38.2077 -5.00912e-17)
(9.34063 45.7981 5.05071e-17)
(5.58385 52.8235 0)
(1.52114 58.49 -8.37841e-20)
(-2.14407 62.0886 -1.71547e-19)
(-4.72586 63.2168 0)
(-5.83634 61.875 0)
(-5.51113 58.4175 0)
(-4.12647 53.4739 0)
(-2.16065 47.7061 1.15834e-19)
(0.0948616 41.6352 0)
(2.71617 35.3977 2.30013e-18)
(5.93996 28.741 -2.95652e-18)
(9.57016 21.6113 -1.18914e-17)
(12.7386 14.6436 1.18288e-17)
(14.597 8.65293 1.09648e-17)
(14.969 3.84892 -1.08536e-17)
(14.192 0.0104168 6.35057e-18)
(12.7235 -3.07861 -6.21355e-18)
(10.9424 -5.54196 1.69854e-18)
(9.07673 -7.49716 -1.89291e-18)
(7.24699 -9.0374 -1.66e-20)
(5.516 -10.2267 0)
(3.91823 -11.1124 8.00996e-20)
(2.47632 -11.7344 7.96737e-20)
(1.20448 -12.1296 0)
(0.10809 -12.3336 3.38185e-19)
(-0.817173 -12.3821 0)
(-1.57743 -12.3045 0)
(-2.17632 -12.124 5.12369e-18)
(-2.62516 -11.8596 -9.41018e-18)
(-2.93584 -11.5279 4.60198e-18)
(-3.12432 -11.145 3.78724e-18)
(-3.20424 -10.7242 -3.85371e-18)
(-3.18957 -10.2769 -4.54182e-20)
(-3.09294 -9.8131 0)
(-2.92414 -9.34158 2.28352e-18)
(-2.69042 -8.86992 -2.04338e-18)
(-2.39875 -8.40698 0)
(-2.0556 -7.96046 0)
(-1.66581 -7.53542 -9.00873e-19)
(-1.23437 -7.13702 9.33229e-19)
(-0.768017 -6.76947 5.3384e-19)
(-0.274497 -6.43498 -5.09098e-19)
(0.237381 -6.1332 -1.75294e-19)
(0.758348 -5.86142 1.75283e-19)
(1.27966 -5.61529 -2.81056e-20)
(1.79366 -5.38966 3.32389e-20)
(2.29406 -5.17929 0)
(2.77566 -4.97917 -4.39459e-20)
(3.23429 -4.78488 2.2053e-19)
(3.66668 -4.59279 -5.22798e-19)
(4.07043 -4.40018 2.79612e-19)
(4.44386 -4.20537 0)
(4.78599 -4.00763 2.89061e-20)
(5.09652 -3.80715 0)
(5.37576 -3.6049 2.91129e-20)
(5.62461 -3.40247 3.88535e-20)
(5.84451 -3.20182 7.32361e-20)
(6.03733 -3.0052 4.86155e-19)
(6.20532 -2.81476 -4.10898e-19)
(6.35102 -2.63242 5.90949e-20)
(6.47702 -2.45976 3.96006e-19)
(6.58585 -2.29787 -4.78435e-19)
(6.6798 -2.14729 3.36447e-19)
(6.76081 -2.00804 -3.27137e-19)
(6.83041 -1.87971 3.18385e-19)
(6.88964 -1.76159 -2.39047e-19)
(6.9393 -1.65282 -2.3143e-19)
(6.98046 -1.55215 2.24314e-19)
(7.01547 -1.45818 -4.76111e-20)
(7.04573 -1.37916 4.362e-20)
(-0.633321 -1.97539 -3.54429e-17)
(-14.2412 -1.58601 -5.10673e-17)
(-35.6797 1.76508 1.01387e-16)
(-45.9243 -0.987728 -9.77377e-17)
(-40.2626 -9.00423 4.81679e-17)
(-27.3997 -19.012 -1.03677e-19)
(-13.5636 -28.0538 -3.48326e-17)
(-2.60491 -34.6856 6.55636e-17)
(3.79354 -38.3322 -5.32349e-18)
(5.24719 -39.1636 -2.55017e-17)
(2.18906 -37.8565 2.036e-19)
(-4.14593 -35.4969 9.48058e-18)
(-11.6283 -33.4112 -9.67638e-18)
(-17.7375 -32.6662 7.9668e-19)
(-20.7531 -33.4217 -8.11911e-19)
(-20.5584 -34.8571 5.84109e-18)
(-18.2448 -35.9148 -5.95068e-18)
(-15.1451 -36.0191 -1.15677e-19)
(-12.2302 -35.0126 0)
(-10.0027 -32.9786 -1.19584e-17)
(-8.68988 -30.2495 1.21727e-17)
(-8.47444 -27.2334 4.0582e-20)
(-9.23351 -24.1728 9.86691e-18)
(-10.0525 -21.2826 -1.00784e-17)
(-9.80223 -18.9318 -2.43482e-20)
(-8.26483 -17.2613 0)
(-6.13877 -16.0048 1.48435e-20)
(-4.21981 -14.8922 -7.45062e-21)
(-2.7953 -13.8473 -5.25533e-18)
(-1.84507 -12.9325 5.26672e-18)
(-1.23681 -12.1854 2.33425e-18)
(-0.861453 -11.6032 -2.50993e-18)
(-0.643651 -11.1569 -2.20941e-19)
(-0.534829 -10.8142 -2.07083e-21)
(-0.502055 -10.5471 -5.3205e-20)
(-0.522042 -10.3336 1.93072e-19)
(-0.576845 -10.1558 3.74323e-19)
(-0.650616 -9.99971 -4.81969e-19)
(-0.728678 -9.85373 -1.49202e-19)
(-0.797331 -9.70807 7.26853e-20)
(-0.844805 -9.55551 5.6776e-20)
(-0.86214 -9.39317 3.4085e-19)
(-0.842616 -9.22009 3.09258e-21)
(-0.782024 -9.03714 -2.99197e-19)
(-0.678339 -8.84576 1.87222e-19)
(-0.528844 -8.64472 -2.53985e-19)
(-0.330926 -8.43187 0)
(-0.0854401 -8.20814 -3.51678e-19)
(0.204305 -7.97742 2.6979e-19)
(0.534177 -7.74318 -3.71998e-19)
(0.899128 -7.50808 -4.08981e-20)
(1.29334 -7.27393 -3.26044e-20)
(1.71043 -7.04163 -2.86755e-20)
(2.14375 -6.81115 -2.37224e-20)
(2.58655 -6.58166 4.60438e-19)
(3.03219 -6.35179 2.62485e-21)
(3.47431 -6.11983 0)
(3.90688 -5.88401 5.28021e-19)
(4.32437 -5.64268 -4.315e-19)
(4.72178 -5.3946 0)
(5.09473 -5.13903 5.10713e-19)
(5.43959 -4.87595 -3.80412e-19)
(5.75349 -4.60615 0)
(6.03445 -4.33123 5.2783e-20)
(6.28148 -4.05359 0)
(6.49454 -3.77631 6.42565e-19)
(6.67462 -3.50293 -1.33104e-18)
(6.82362 -3.23719 6.19338e-19)
(6.94416 -2.98273 -6.38502e-20)
(7.03948 -2.74276 -5.9102e-20)
(7.11315 -2.51983 4.49366e-19)
(7.16878 -2.31564 -3.87789e-19)
(7.20981 -2.131 4.80427e-20)
(7.23932 -1.96579 4.29557e-20)
(7.25988 -1.8191 -7.56523e-20)
(7.27347 -1.68937 -3.37296e-20)
(7.28149 -1.57457 -2.66218e-19)
(7.28524 -1.47207 1.87982e-20)
(7.2866 -1.37934 2.26878e-19)
(7.28564 -1.30401 4.1505e-20)
(-9.86627 4.58078 0)
(-18.6539 6.26637 2.51089e-19)
(-14.0412 6.00524 4.38823e-20)
(-1.92286 -1.14917 1.17472e-17)
(14.324 -8.19848 -2.35185e-17)
(29.9658 -15.3507 2.30561e-17)
(42.2417 -21.3058 -1.14587e-17)
(49.2172 -25.2339 0)
(49.0821 -26.3871 -2.96008e-19)
(39.9902 -23.6939 9.00553e-18)
(20.7819 -16.3217 -9.40995e-18)
(-6.4465 -4.75324 -7.99786e-18)
(-33.9556 7.73876 1.68314e-17)
(-51.1282 15.7652 1.10986e-18)
(-52.6991 16.1544 9.94881e-19)
(-42.994 10.9096 -1.06139e-17)
(-30.3272 4.2626 -2.93437e-19)
(-20.0035 -1.44891 1.19642e-17)
(-13.2753 -5.86595 -1.19272e-17)
(-9.45475 -9.14543 8.30476e-21)
(-7.20875 -11.6265 -2.47752e-19)
(-5.15915 -13.639 -4.96468e-19)
(-2.354 -15.3785 7.57035e-18)
(1.26899 -16.7127 -1.16158e-18)
(5.0157 -17.3453 -6.64341e-18)
(7.96567 -17.0192 -3.17242e-19)
(9.43543 -15.7316 6.57589e-18)
(9.25693 -13.7909 -1.26843e-17)
(7.9347 -11.5781 1.25822e-17)
(6.15852 -9.55986 -6.01449e-18)
(4.48496 -8.05724 0)
(3.16333 -7.16868 1.04783e-17)
(2.21457 -6.81161 -1.98284e-17)
(1.55242 -6.81357 9.4136e-18)
(1.08319 -7.00472 -7.29834e-18)
(0.741419 -7.26351 7.8538e-18)
(0.489615 -7.52131 1.04972e-19)
(0.308317 -7.74623 0)
(0.186994 -7.92687 -8.62844e-20)
(0.11877 -8.06277 3.69729e-18)
(0.0989844 -8.15798 -3.93366e-18)
(0.125178 -8.21655 1.20484e-19)
(0.196104 -8.2421 -1.07501e-19)
(0.311188 -8.2372 0)
(0.469419 -8.20441 0)
(0.66794 -8.14981 -1.69229e-18)
(0.904238 -8.07865 1.97698e-18)
(1.1769 -7.99327 5.74798e-20)
(1.48404 -7.89488 1.34654e-18)
(1.82301 -7.7841 -2.66221e-18)
(2.19044 -7.66122 1.13044e-18)
(2.58218 -7.52623 0)
(2.99345 -7.37888 -1.02119e-18)
(3.41888 -7.21874 9.41711e-19)
(3.85266 -7.04514 0)
(4.28871 -6.85729 -8.01226e-19)
(4.72078 -6.65431 7.52395e-19)
(5.14263 -6.43529 -6.63958e-19)
(5.54811 -6.19943 5.7347e-19)
(5.93136 -5.94615 0)
(6.28694 -5.67532 -1.32045e-19)
(6.60999 -5.3874 -5.9662e-20)
(6.89645 -5.08368 4.71632e-19)
(7.14325 -4.76645 -7.71655e-20)
(7.34858 -4.43911 -4.29521e-19)
(7.51204 -4.10614 0)
(7.63478 -3.77295 -4.25127e-20)
(7.71954 -3.44554 0)
(7.77043 -3.13003 0)
(7.79271 -2.8321 5.17068e-19)
(7.79227 -2.55637 -5.04009e-19)
(7.77511 -2.30618 -3.64184e-19)
(7.74685 -2.08332 -1.3606e-20)
(7.71234 -1.88802 3.17289e-19)
(7.67535 -1.71915 3.28097e-19)
(7.63842 -1.57447 -2.81364e-19)
(7.60293 -1.4509 3.00472e-20)
(7.56954 -1.34456 1.95547e-19)
(7.5388 -1.25175 -4.03474e-19)
(7.50907 -1.17916 1.2551e-19)
(-21.7129 7.94109 1.0785e-17)
(-55.2421 26.8721 -7.20235e-18)
(-77.3599 28.5122 5.76949e-19)
(-80.1565 27.9627 -5.81053e-19)
(-72.5339 20.4126 -6.6143e-20)
(-60.852 14.1872 -7.43663e-20)
(-50.2573 8.20522 0)
(-41.7347 2.52768 -1.36122e-17)
(-34.8218 -2.69508 1.40625e-17)
(-29.1732 -7.48406 0)
(-25.0302 -11.0478 1.99171e-17)
(-22.9747 -12.3637 -4.21858e-17)
(-23.015 -11.2178 -1.61661e-18)
(-24.1073 -8.54087 4.89645e-17)
(-24.5967 -5.80388 -2.55744e-17)
(-23.3961 -3.98391 -2.96806e-19)
(-20.6716 -3.17087 5.71903e-20)
(-17.2013 -3.06005 0)
(-13.4282 -3.39173 -2.36345e-17)
(-9.37562 -3.98824 2.36811e-17)
(-4.91112 -4.79315 4.67613e-20)
(0.0504655 -5.77789 -1.85434e-17)
(5.56508 -7.00336 1.90567e-17)
(11.5617 -8.40744 -1.54524e-17)
(17.637 -9.82697 1.56748e-17)
(22.961 -10.9912 3.12427e-19)
(26.3905 -11.5767 -1.20116e-17)
(26.9471 -11.335 1.41098e-18)
(24.4764 -10.2969 1.95021e-17)
(19.833 -8.78572 -1.31952e-18)
(14.3708 -7.17978 -7.8375e-18)
(9.29516 -5.80536 -5.97223e-18)
(5.35698 -4.85936 6.21058e-18)
(2.76379 -4.3893 0)
(1.30159 -4.30809 -2.6295e-19)
(0.592773 -4.46612 -2.35251e-19)
(0.303745 -4.73538 0)
(0.22207 -5.03988 -6.28693e-18)
(0.240472 -5.34403 6.4905e-18)
(0.314163 -5.63244 1.50711e-19)
(0.427549 -5.89831 0)
(0.575635 -6.13902 -1.20279e-19)
(0.757729 -6.3533 -3.89487e-18)
(0.974233 -6.53824 3.86949e-18)
(1.22641 -6.69218 0)
(1.51445 -6.81487 2.53453e-18)
(1.83706 -6.90667 -2.91463e-18)
(2.19198 -6.96847 0)
(2.57617 -7.0015 0)
(2.98586 -7.00725 9.73167e-20)
(3.4167 -6.98732 8.72932e-20)
(3.86376 -6.94336 0)
(4.32171 -6.87692 -1.14494e-18)
(4.78489 -6.78939 1.20454e-18)
(5.24744 -6.68197 9.64769e-19)
(5.70339 -6.55552 -1.43823e-19)
(6.14683 -6.4105 -1.6288e-18)
(6.57192 -6.24694 1.46598e-18)
(6.97302 -6.06438 2.58736e-20)
(7.34465 -5.8619 -5.58911e-19)
(7.68161 -5.63833 6.90089e-20)
(7.97898 -5.39247 0)
(8.23233 -5.12358 0)
(8.43794 -4.83179 -4.13859e-19)
(8.5932 -4.5187 4.48349e-19)
(8.69708 -4.18775 0)
(8.75052 -3.84443 -3.64238e-20)
(8.75684 -3.49606 0)
(8.72172 -3.15125 -2.65978e-19)
(8.65287 -2.81889 2.59479e-19)
(8.55933 -2.50701 -4.94313e-20)
(8.45039 -2.22197 -4.3114e-19)
(8.3347 -1.96793 3.68989e-19)
(8.21956 -1.74673 -3.35617e-20)
(8.11042 -1.55812 0)
(8.01077 -1.40007 0)
(7.92212 -1.26919 0)
(7.84447 -1.16087 1.78682e-19)
(7.77698 -1.07047 1.25861e-21)
(7.71614 -1.00323 -2.50142e-19)
(-2.72755 1.31933 2.43694e-18)
(-19.6376 10.1211 2.372e-18)
(-43.1861 22.949 -2.42925e-18)
(-49.3394 30.191 -2.57918e-18)
(-29.6299 25.1148 2.82741e-18)
(-1.77721 15.0279 1.61549e-19)
(16.7895 8.09955 1.30736e-19)
(22.9917 5.56641 0)
(21.5994 4.91106 -1.02041e-19)
(17.2294 4.43464 0)
(12.6147 3.74013 1.20136e-20)
(9.10863 3.1599 8.06825e-18)
(7.23695 3.10334 -8.24665e-18)
(6.75182 3.06362 -6.24457e-18)
(7.4439 2.64681 6.39819e-18)
(9.35823 2.21403 -5.12156e-18)
(12.3405 1.84581 5.35444e-18)
(15.8656 1.43377 0)
(19.535 1.2209 0)
(23.1464 1.40796 0)
(26.5457 1.92276 4.24181e-18)
(29.622 2.57931 -7.96604e-18)
(32.3097 3.14235 3.31663e-19)
(34.5515 3.37589 7.65339e-18)
(36.0003 3.14262 -3.95356e-18)
(35.6599 2.63063 0)
(31.931 2.30903 -8.79464e-20)
(24.1886 2.54108 0)
(14.2495 3.10945 6.47302e-18)
(5.38346 3.40392 -6.41419e-18)
(-0.384508 3.04506 -8.00592e-20)
(-3.20176 2.16351 0)
(-4.17377 1.08636 -5.68839e-18)
(-4.218 0.0458941 1.08312e-17)
(-3.84441 -0.865383 -5.30661e-18)
(-3.30743 -1.63829 4.3572e-18)
(-2.72768 -2.28782 -8.37231e-18)
(-2.15422 -2.83111 4.00911e-18)
(-1.60101 -3.28517 0)
(-1.069 -3.66597 0)
(-0.551139 -3.98629 0)
(-0.0385788 -4.25775 -2.4466e-18)
(0.473732 -4.48797 6.98155e-18)
(0.989926 -4.68092 -4.3979e-18)
(1.51309 -4.84034 0)
(2.04476 -4.96836 3.1958e-18)
(2.58486 -5.06625 -3.09162e-18)
(3.13195 -5.135 -2.39442e-18)
(3.68348 -5.17574 4.21218e-19)
(4.23604 -5.19 2.62766e-19)
(4.78558 -5.17981 2.32331e-19)
(5.32763 -5.14777 1.56131e-18)
(5.85746 -5.09697 0)
(6.37033 -5.03094 0)
(6.86168 -4.95344 8.20329e-19)
(7.32738 -4.86818 -8.47091e-19)
(7.76385 -4.77844 0)
(8.16814 -4.68659 0)
(8.5378 -4.59354 -2.58128e-20)
(8.87064 -4.49841 -6.66036e-20)
(9.1644 -4.39823 0)
(9.41622 -4.28806 0)
(9.62271 -4.16172 3.18703e-20)
(9.77982 -4.01248 2.91864e-20)
(9.88327 -3.83453 -3.26289e-19)
(9.92942 -3.62444 5.40714e-19)
(9.91644 -3.3824 2.25519e-20)
(9.84561 -3.11301 -4.62021e-19)
(9.72222 -2.82509 4.43297e-19)
(9.55582 -2.53029 -3.83758e-19)
(9.3591 -2.24091 8.12808e-20)
(9.14602 -1.96797 1.60075e-19)
(8.92982 -1.71974 -2.5134e-19)
(8.72156 -1.50128 4.10363e-20)
(8.52933 -1.31459 3.92194e-19)
(8.35805 -1.15916 -1.91782e-19)
(8.2096 -1.03249 0)
(8.08339 -0.930403 -2.66402e-20)
(7.97708 -0.848265 0)
(7.8852 -0.790312 6.58928e-20)
(-1.43763 0.0292752 0)
(-12.9353 -0.811663 -9.48041e-21)
(-34.1589 8.81853 9.18257e-21)
(-61.6522 16.6519 4.46827e-17)
(-77.2224 23.3226 -8.35128e-17)
(-78.0045 23.6132 3.829e-17)
(-72.8128 22.8345 -1.30135e-19)
(-67.8061 23.7688 0)
(-62.6802 25.5118 0)
(-55.3519 26.6546 0)
(-45.5699 27.3457 -1.19408e-20)
(-34.5275 28.1257 -5.33385e-20)
(-23.7861 29.0574 0)
(-15.2512 29.3965 1.99051e-20)
(-10.4288 28.7358 -4.2983e-20)
(-8.22619 26.8627 1.00127e-17)
(-5.19372 23.1778 -1.01023e-17)
(0.0541853 17.95 4.45411e-20)
(6.14859 12.455 0)
(11.5361 7.73581 -5.09219e-20)
(15.2825 4.16524 1.29178e-20)
(16.826 1.78427 1.10791e-18)
(16.0257 0.410799 -6.64216e-19)
(13.3249 -0.341499 -5.31383e-19)
(9.47622 -0.933238 6.31018e-20)
(5.18196 -1.62882 -3.76402e-20)
(0.985578 -2.44518 9.09782e-19)
(-2.5192 -3.18701 -6.74511e-19)
(-4.89826 -3.63581 -8.51759e-20)
(-6.0691 -3.73436 -1.29012e-19)