/*--------------------------------*- C++ -*----------------------------------*\
| =========                 |                                                 |
| \\      /  F ield         | OpenFOAM: The Open Source CFD Toolbox           |
|  \\    /   O peration     | Version:  2012                                  |
|   \\  /    A nd           | Website:  www.openfoam.com                      |
|    \\/     M anipulation  |                                                 |
\*---------------------------------------------------------------------------*/
FoamFile
{
    version     2.0;
    format      ascii;
    class       surfaceScalarField;
    location    "0.34";
    object      phi;
}
// * * * * * * * * * * * * * * * * * * * * * * * * * * * * * * * * * * * * * //

dimensions      [0 3 -1 0 0 0 0];
oriented        oriented;


internalField   nonuniform List<scalar> 
84340
(
-0.000431916
0.000296908
0.000135008
-0.00105529
0.000347075
0.000276303
-0.00169936
0.000165827
0.00047824
-0.00232658
-1.12592e-05
0.000638475
-0.00283574
-0.000150526
0.00065969
-0.00316976
-0.000256967
0.000590984
-0.00331254
-0.000325627
0.000468408
-0.00328031
-0.00033974
0.000307512
-0.00310989
-0.000287608
0.000117184
-0.00284291
-0.000170852
-9.61235e-05
-0.00252056
-3.29859e-06
-0.000319057
-0.00218268
0.000189701
-0.000527578
-0.00188252
0.000389592
-0.000689746
-0.00166524
0.000567268
-0.000784556
-0.00156068
0.000699182
-0.000803735
-0.0015897
0.00077631
-0.000747298
-0.00175616
0.000796082
-0.000629621
-0.00204308
0.00076043
-0.000473505
-0.00240926
0.000670227
-0.000304046
-0.00277915
0.000514998
-0.000145115
-0.003048
0.000283316
-1.44602e-05
-0.00311822
-1.00364e-05
8.02531e-05
-0.00295215
-0.000309
0.000142934
-0.0025923
-0.000543843
0.000183993
-0.00212618
-0.000678855
0.00021273
-0.00162981
-0.000729627
0.000233258
-0.00114064
-0.000733087
0.000243923
-0.0006958
-0.000723726
0.000278883
-0.000285661
-0.000720686
0.000310548
9.12471e-05
-0.000729431
0.000352523
0.000432412
-0.000747312
0.000406147
0.000737772
-0.000768322
0.000462962
0.00100869
-0.000785275
0.000514357
0.00124508
-0.000790897
0.000554503
0.0014594
-0.000780262
0.000565946
0.00165928
-0.00075129
0.000551407
0.00184876
-0.000703886
0.000514405
0.00202958
-0.000639477
0.000458662
0.00220156
-0.000560559
0.00038858
0.00236336
-0.000470187
0.000308378
0.00251796
-0.000371922
0.000217328
0.00266551
-0.000272659
0.000125103
0.00278993
-0.000156561
3.21448e-05
0.002886
-3.22202e-05
-6.38517e-05
0.00294918
9.45079e-05
-0.000157684
0.0029855
0.000212394
-0.000248714
0.00299543
0.000325175
-0.000335109
0.00297894
0.000430654
-0.000414159
0.00293574
0.000525823
-0.000482624
0.00286557
0.000607232
-0.000537064
0.00276862
0.00067129
-0.000574345
0.00264628
0.000714599
-0.000592257
0.00250186
0.000734434
-0.00059001
0.00234105
0.000729267
-0.000568459
0.0021717
0.000699421
-0.000530069
0.00200283
0.000647606
-0.000478741
0.00184323
0.000579119
-0.000419515
0.00169987
0.000501401
-0.000358044
0.00157678
0.000422784
-0.000299695
0.00147457
0.000350622
-0.000248411
0.00139091
0.000289458
-0.000205796
0.00132177
0.000240045
-0.000170907
0.00126294
0.0001997
-0.000140875
0.00121123
0.00016378
-0.000112065
0.00116505
0.000127481
-8.12973e-05
0.00112447
8.71597e-05
-4.65836e-05
0.00109058
4.08383e-05
-6.94832e-06
0.00106425
-1.20419e-05
3.83694e-05
0.00104856
-7.18246e-05
8.75127e-05
0.00104555
-0.000136812
0.000139829
0.00105663
-0.000206173
0.000195091
0.00108227
-0.000278648
0.000253003
0.0011219
-0.000352872
0.00031324
0.0011741
-0.000427486
0.000375295
0.00123688
-0.000501223
0.000438434
0.00130813
-0.000572987
0.000501744
0.0013858
-0.000641905
0.00056423
0.00146828
-0.000707362
0.00062488
0.00155468
-0.000769241
0.000682849
-0.000824291
0.000736283
0.00164268
0.000933176
-0.000636268
0.00246487
-0.00118462
0.00387807
-0.00124738
0.00493826
-0.00107145
0.00562285
-0.000835115
0.00598425
-0.000618367
0.00614487
-0.00048625
0.00624206
-0.000436928
0.00637145
-0.000416993
0.00657965
-0.000379052
0.00687748
-0.000301127
0.00724644
-0.000179266
0.00765704
-2.10047e-05
0.0080633
0.000161008
0.00840736
0.000355117
0.00863311
0.000550561
0.00869411
0.000735088
0.00855523
0.000899308
0.00820638
0.00101908
0.00766555
0.00105583
0.00698024
0.000968627
0.0062193
0.000750904
0.00545555
0.00045475
0.00474531
0.000166393
0.00411882
-5.23672e-05
0.00358515
-0.000195949
0.00314314
-0.000291083
0.00278356
-0.000364143
0.00249448
-0.000431606
0.00226482
-0.000499773
0.00208684
-0.000569331
0.00195459
-0.000636075
0.00186276
-0.000693442
0.00180764
-0.000735782
0.00178572
-0.00075834
0.00179184
-0.000757412
0.00181936
-0.000731402
0.00186111
-0.000681228
0.00191081
-0.000610262
0.00196423
-0.000523599
0.00201878
-0.00042648
0.00206921
-0.000323083
0.00212552
-0.000212872
0.00219024
-9.69464e-05
0.00227237
1.23811e-05
0.00235468
0.000130082
0.00243267
0.00024719
0.00250224
0.000361086
0.00255955
0.000468509
0.00260094
0.000565841
0.00262295
0.000649281
0.00262247
0.000715083
0.00259698
0.000759919
0.00254486
0.00078139
0.00246568
0.000778601
0.00236059
0.000752692
0.0022326
0.000707115
0.00208658
0.000647416
0.00192902
0.000580343
0.00176728
0.000512365
0.00160868
0.000448056
0.00145966
0.000389067
0.00132516
0.0003342
0.00120845
0.000280489
0.00111127
0.000224662
0.00103417
0.00016426
0.000976884
9.81244e-05
0.000938616
2.62255e-05
0.00091761
-5.08188e-05
0.000912258
-0.000131461
0.000920438
-0.000214352
0.000939926
-0.000298137
0.00096866
-0.000381605
0.00100492
-0.000463747
0.00104742
-0.000543726
0.00109528
-0.000620841
0.00114788
-0.000694502
0.00120478
-0.000764268
0.00126535
-0.000829815
-0.000890154
0.00133122
-0.000197985
-0.000438283
-0.000409938
-0.000972664
-0.000500223
-0.00115709
-0.000677467
-0.000894202
-0.00111343
-0.000399148
-0.00173785
6.05297e-06
-0.00243215
0.000208044
-0.00318351
0.000314433
-0.00402212
0.000421614
-0.00492565
0.00052448
-0.00582228
0.000595509
-0.00663119
0.000629634
-0.00727891
0.000626718
-0.00770235
0.00058445
-0.00785342
0.000506188
-0.00770088
0.000398018
-0.00723402
0.000268232
-0.00646086
0.000126148
-0.00542361
-1.81744e-05
-0.00421118
-0.000156602
-0.00295758
-0.000284969
-0.00180439
-0.00040229
-0.000841362
-0.000508278
-7.37729e-05
-0.000601196
0.000548196
-0.000674336
0.00107977
-0.000727522
0.00155016
-0.00076147
0.00196682
-0.000780803
0.00232413
-0.00078892
0.00261219
-0.000787834
0.00282075
-0.000777887
0.00294416
-0.000759488
0.00298364
-0.000732923
0.00294559
-0.000697727
0.00284027
-0.000653021
0.00268085
-0.000597992
0.00248236
-0.000532914
0.00225983
-0.000458702
0.00202752
-0.000377953
0.00179836
-0.000294434
0.00157578
-0.000203896
0.00137134
-0.00011865
0.00119749
-3.90165e-05
0.00106197
3.85702e-05
0.000957908
0.000116443
0.00089142
0.00019657
0.000859444
0.000279166
0.000857442
0.000363088
0.000879907
0.000446044
0.000920833
0.000524915
0.00097399
0.000596124
0.00103305
0.000656019
0.00109168
0.000701289
0.00114364
0.000729439
0.00118301
0.000739226
0.00120469
0.000731014
0.00120495
0.000706849
0.00118226
0.000670107
0.00113788
0.000624727
0.00107604
0.000574203
0.00100336
0.000520741
0.000927463
0.000464962
0.00085543
0.000406233
0.000792528
0.000343391
0.000741716
0.000275473
0.000703815
0.000202161
0.00067815
0.000123789
0.000663112
4.12626e-05
0.000656564
-4.42716e-05
0.00065706
-0.000131957
0.000663639
-0.000220932
0.000676052
-0.000310549
0.000694695
-0.000400248
0.000720368
-0.00048942
0.000753958
-0.000577317
0.000796154
-0.000663037
0.000847263
-0.00074561
0.000907152
-0.000824156
0.000975428
-0.000898091
-0.000968282
0.00105356
-0.000720694
0.000282411
-0.00187928
0.000185922
-0.00271715
-0.000319227
-0.00301844
-0.000592912
-0.0029463
-0.000471285
-0.00273321
-0.000207037
-0.00255972
3.4557e-05
-0.00250428
0.000258993
-0.00254759
0.00046492
-0.00263708
0.000613965
-0.00273856
0.000696996
-0.00283919
0.000730265
-0.00294097
0.000728495
-0.00305336
0.000696836
-0.00318193
0.000634763
-0.00332316
0.000539245
-0.00346989
0.000414967
-0.00360597
0.000262228
-0.00371085
8.66979e-05
-0.0037636
-0.000103851
-0.00374888
-0.000299682
-0.00366111
-0.000490062
-0.00350482
-0.000664571
-0.00328967
-0.00081635
-0.0030227
-0.000941297
-0.00271133
-0.0010389
-0.00236454
-0.00110825
-0.00199695
-0.0011484
-0.00162806
-0.00115781
-0.00128012
-0.00113577
-0.000974206
-0.0010838
-0.000727199
-0.00100649
-0.000548863
-0.000911259
-0.000440072
-0.000806518
-0.000393982
-0.000699111
-0.000398388
-0.000593586
-0.000437865
-0.000493437
-0.00049466
-0.000401908
-0.000552739
-0.000319874
-0.000600579
-0.000246594
-0.000625453
-0.000179022
-0.00063239
-0.000111713
-0.00063105
-4.03568e-05
-0.000615164
2.2684e-05
-0.000587621
8.88994e-05
-0.000551676
0.000160625
-0.000506975
0.000234465
-0.00045253
0.000308643
-0.000387608
0.000381122
-0.000312263
0.00044957
-0.000227649
0.00051151
-0.000136174
0.000564544
-4.14799e-05
0.000606595
5.18019e-05
0.000636157
0.00013851
0.000652518
0.000213693
0.000655831
0.000273513
0.000647028
0.000316079
0.000627542
0.000341909
0.000598897
0.000353766
0.000562346
0.000355846
0.000518661
0.000352615
0.000468193
0.000347744
0.000411103
0.00034351
0.000347625
0.000340777
0.000278206
0.000339405
0.000203532
0.000338925
0.000124269
0.000339864
4.0324e-05
0.00034136
-4.57666e-05
0.000345421
-0.000136017
0.00035402
-0.000229531
0.000369468
-0.000325998
0.000393947
-0.000424727
0.000429153
-0.000524625
0.000476054
-0.000624217
0.0005348
-0.000721784
0.00060477
-0.000815581
0.000684731
-0.000904117
0.000773294
-0.000986654
-0.00106493
0.000869946
0.000102022
0.000180389
-4.3683e-05
0.000331627
-0.000473111
0.000110201
-0.000834256
-0.000231766
-0.000922609
-0.000382932
-0.000878486
-0.00025116
-0.000908725
6.47968e-05
-0.00105951
0.000409777
-0.00127111
0.000676522
-0.00150542
0.000848275
-0.00176319
0.000954767
-0.00204918
0.00101626
-0.00236025
0.00103956
-0.00269133
0.00102792
-0.00304237
0.000985806
-0.00341932
0.000916197
-0.00382019
0.000815837
-0.00423283
0.000674863
-0.00462898
0.000482852
-0.004968
0.000235165
-0.00520523
-6.24479e-05
-0.00530143
-0.00039386
-0.0052305
-0.000735503
-0.00498786
-0.00105898
-0.00459106
-0.0013381
-0.00407457
-0.00155539
-0.00347894
-0.00170388
-0.00284333
-0.00178402
-0.00220191
-0.00179922
-0.00158464
-0.00175304
-0.00101953
-0.00164891
-0.000533836
-0.00149219
-0.000150889
-0.00129421
0.000118171
-0.00107558
0.00027842
-0.000859359
0.000340741
-0.000655907
0.000312751
-0.000465447
0.000205646
-0.000294802
4.18062e-05
-0.000156034
-0.000149199
-5.55889e-05
-0.000343957
1.57363e-05
-0.000520117
6.44471e-05
-0.000666142
0.000105668
-0.000787876
0.000144418
-0.000881652
0.000182675
-0.000944341
0.000223314
-0.000976604
0.000266727
-0.000980243
0.000312282
-0.000957836
0.000358715
-0.000912652
0.000404385
-0.000848612
0.00044747
-0.00077021
0.000486142
-0.000682328
0.000518713
-0.000589966
0.000543795
-0.000497848
0.0005604
-0.000409996
0.000567978
-0.000329337
0.000566369
-0.000257492
0.000555696
-0.000194837
0.000536241
-0.000140841
0.00050835
-9.45861e-05
0.000472406
-5.52359e-05
0.000428843
-2.22976e-05
0.000378165
4.43069e-06
0.000320897
2.51386e-05
0.000257498
4.04313e-05
0.000188239
5.15866e-05
0.000113114
6.00973e-05
3.1813e-05
6.96595e-05
-5.53292e-05
8.26915e-05
-0.000149049
0.00010217
-0.000249009
0.000130582
-0.00035441
0.000169829
-0.000463974
0.000221093
-0.00057589
0.000284809
-0.000687933
0.000360665
-0.000797639
0.000447623
-0.000902538
0.000543997
-0.00100049
0.000647678
-0.00109033
-0.00117385
0.000756593
0.000255175
-7.47852e-05
0.000583673
3.12768e-06
0.000636554
5.73196e-05
0.000419782
-1.49934e-05
0.000175419
-0.00013857
0.000143585
-0.000219326
0.000428341
-0.000219959
0.000996532
-0.000158414
0.0017404
-6.7345e-05
0.00256336
2.5318e-05
0.00342148
9.66422e-05
0.00430712
0.000130612
0.00522259
0.000124096
0.00616308
8.74224e-05
0.00711497
3.39137e-05
0.00805295
-2.17805e-05
0.00893924
-7.04519e-05
0.00973583
-0.000121731
0.0104058
-0.000187133
0.0109074
-0.00026644
0.0112058
-0.000360836
0.0112802
-0.00046822
0.0111236
-0.000578934
0.0107439
-0.000679245
0.0101641
-0.000758387
0.00942327
-0.000814505
0.00857271
-0.000853332
0.00766898
-0.000880283
0.00676212
-0.000892367
0.00588594
-0.000876855
0.00505313
-0.000816098
0.00425401
-0.000693075
0.00346027
-0.000500467
0.00264568
-0.000260986
0.00182222
-3.59001e-05
0.00104681
0.000119499
0.000383674
0.000197689
-0.000139387
0.000228259
-0.000526518
0.000231096
-0.000803638
0.000221532
-0.000994618
0.000206716
-0.00112226
0.000192091
-0.00119929
0.000182697
-0.0012364
0.00018153
-0.00124339
0.000189666
-0.00122697
0.000206888
-0.00119227
0.000232025
-0.00114329
0.000263302
-0.00108316
0.000298594
-0.00101446
0.000335677
-0.000939382
0.000372395
-0.000860015
0.000406775
-0.000778393
0.00043709
-0.000696513
0.000461914
-0.000616234
0.000480122
-0.000539154
0.000490897
-0.000466512
0.000493727
-0.000399196
0.000488381
-0.00033783
0.000474876
-0.000282907
0.000453426
-0.000234878
0.000424376
-0.00019414
0.000388106
-0.000160899
0.000344923
-0.000134955
0.000294952
-0.000115529
0.000238072
-0.000101151
0.00017386
-8.97805e-05
0.000101744
-7.76281e-05
1.96612e-05
-6.4953e-05
-6.80036e-05
-4.77237e-05
-0.000166279
-2.37639e-05
-0.000272969
8.90529e-06
-0.000387079
5.19776e-05
-0.000507046
0.000106813
-0.000630725
0.000174302
-0.000755421
0.000254657
-0.000877994
0.000347215
-0.000995096
0.000450314
-0.00110359
0.000561358
-0.00120138
-0.0012897
0.000677211
-0.000253892
0.000179107
-0.000511078
0.000260313
-0.000759889
0.000306131
-0.00115728
0.000382395
-0.00172743
0.000431581
-0.00238857
0.000441815
-0.00302517
0.000416645
-0.00354832
0.000364731
-0.00392608
0.000310419
-0.00418941
0.000288647
-0.00440892
0.000316151
-0.00464625
0.000367946
-0.0049146
0.00039244
-0.00518303
0.000355855
-0.00541059
0.000261478
-0.00556499
0.000132612
-0.00562522
-1.02168e-05
-0.00559209
-0.000154863
-0.00547395
-0.000305273
-0.0053014
-0.000438988
-0.00511264
-0.000549596
-0.00494284
-0.000638018
-0.00481629
-0.000705486
-0.00473968
-0.000755852
-0.00470543
-0.000792637
-0.00469877
-0.000821171
-0.00470323
-0.000848867
-0.00470047
-0.000883048
-0.00467048
-0.000922354
-0.00459598
-0.000951355
-0.00446613
-0.000945948
-0.00429121
-0.000867998
-0.00408045
-0.000711228
-0.00384969
-0.000491739
-0.00361854
-0.000267053
-0.00339454
-0.000104505
-0.00315491
-4.19403e-05
-0.00288697
-3.96788e-05
-0.00260246
-5.34124e-05
-0.00232011
-6.08229e-05
-0.00205695
-5.64421e-05
-0.00182393
-4.09284e-05
-0.00162491
-1.63236e-05
-0.00145855
1.51673e-05
-0.00132046
5.15787e-05
-0.00120464
9.10744e-05
-0.00110487
0.000132254
-0.00101569
0.000174118
-0.00093306
0.000215965
-0.000854503
0.000257121
-0.000778841
0.000296733
-0.000705727
0.000333661
-0.000635175
0.000366538
-0.000567246
0.000393986
-0.000502
0.000414876
-0.000439569
0.000428466
-0.000380256
0.000434414
-0.000324573
0.000432698
-0.000273195
0.000423498
-0.000226855
0.000407086
-0.000186189
0.00038371
-0.00015158
0.000353496
-0.000123033
0.000316376
-0.000100118
0.000272038
-8.19778e-05
0.000219933
-6.74875e-05
0.00015937
-5.52418e-05
8.94977e-05
-4.53226e-05
9.74138e-06
-3.31013e-05
-8.02252e-05
-1.85667e-05
-0.000180813
2.53323e-07
-0.000291788
2.55933e-05
-0.000412419
5.98807e-05
-0.000541333
0.000105513
-0.000676357
0.000164515
-0.000814423
0.000238128
-0.000951608
0.000326415
-0.00108338
0.000427978
-0.00120515
0.000539911
-0.00131331
-0.00140756
0.000657772
0.000388189
-0.000209082
0.000888238
-0.000239736
0.00128777
-9.34037e-05
0.00169616
-2.59903e-05
0.00217993
-5.21909e-05
0.00270843
-8.66844e-05
0.00323664
-0.000111563
0.00375284
-0.000151467
0.00425495
-0.000191696
0.00472498
-0.000181384
0.00513542
-9.42855e-05
0.00544596
5.7399e-05
0.00562395
0.000214456
0.00565776
0.000322038
0.00555732
0.000361924
0.00533236
0.000357572
0.00499099
0.000331149
0.00454363
0.000292502
0.00398239
0.000255968
0.0032938
0.000249594
0.00248011
0.000264095
0.00153497
0.000307124
0.000451879
0.000377606
-0.000763884
0.000459911
-0.00207192
0.000515401
-0.00336881
0.000475714
-0.00450507
0.000287394
-0.00536255
-2.55675e-05
-0.005908
-0.0003769
-0.00617409
-0.000685266
-0.00621427
-0.000905773
-0.00606003
-0.00102224
-0.00573437
-0.00103688
-0.00525645
-0.000969666
-0.00466649
-0.000857008
-0.00403401
-0.000736988
-0.00344103
-0.000634917
-0.00292477
-0.000555944
-0.00248459
-0.000493587
-0.00210618
-0.000439234
-0.00177735
-0.000385273
-0.00149138
-0.000326901
-0.00124492
-0.000262787
-0.00103551
-0.000194238
-0.000861565
-0.000122366
-0.000715089
-5.54018e-05
-0.00059029
7.45434e-06
-0.00048366
6.74879e-05
-0.00039256
0.000124864
-0.000314437
0.000178998
-0.000247298
0.000229594
-0.000189558
0.000275921
-0.000139793
0.000316773
-9.65918e-05
0.000350784
-5.85361e-05
0.000376821
-2.43348e-05
0.000394265
7.0346e-06
0.000403044
3.62314e-05
0.0004035
6.35523e-05
0.000396177
8.90193e-05
0.000381619
0.000112497
0.000360232
0.000133794
0.000332199
0.000152729
0.00029744
0.00016915
0.000255616
0.000182914
0.000206168
0.000194105
0.000148179
0.000202743
8.08603e-05
0.000208637
3.84726e-06
0.000212223
-8.38109e-05
0.000215104
-0.000183695
0.000219263
-0.000295947
0.000227329
-0.000420484
0.00024243
-0.000556433
0.000267912
-0.000701839
0.000306916
-0.000853427
0.00036184
-0.00100653
0.000433764
-0.00115531
0.000521982
-0.00129337
0.00062376
-0.00141509
-0.00151756
0.000733754
-0.000187783
-2.12988e-05
-0.000303366
-0.000124152
-9.54277e-05
-0.000301342
0.0004261
-0.000547518
0.00108807
-0.000714161
0.00170102
-0.000699636
0.00213314
-0.000543679
0.00232902
-0.000347346
0.00232867
-0.00019135
0.00226464
-0.000117354
0.00229692
-0.000126562
0.00253984
-0.000185527
0.00300881
-0.000254514
0.00364399
-0.000313144
0.0043685
-0.000362584
0.00513751
-0.000411439
0.00593171
-0.000463047
0.00673578
-0.00051157
0.00753158
-0.000539835
0.00830015
-0.000518968
0.00901057
-0.000446333
0.00960522
-0.00028752
0.0100339
-5.1118e-05
0.01026
0.000233806
0.0102657
0.000509765
0.0100611
0.000680283
0.00967958
0.000668927
0.00913828
0.000515735
0.00842311
0.000338268
0.00753206
0.000205788
0.00653241
9.38784e-05
0.00553311
-2.29383e-05
0.00462055
-0.000124325
0.00383356
-0.000182672
0.00317256
-0.000196014
0.00261824
-0.000182667
0.00214615
-0.000162829
0.00173802
-0.000147807
0.00138383
-0.000139404
0.00107822
-0.000133621
0.000818022
-0.000125073
0.000601003
-0.000109882
0.000424947
-8.6731e-05
0.000287253
-5.65436e-05
0.000186865
-2.19786e-05
0.000114761
1.67027e-05
6.43578e-05
5.78573e-05
3.35862e-05
9.82599e-05
2.02065e-05
0.000138244
2.18334e-05
0.000177371
3.64077e-05
0.000215019
6.20037e-05
0.000250325
9.66119e-05
0.000282165
0.000138071
0.000309325
0.000184153
0.000330738
0.000232768
0.000345649
0.00028214
0.000353672
0.000330898
0.000354743
0.000378076
0.000348998
0.000423044
0.000336651
0.000465386
0.00031789
0.000504773
0.000292812
0.000540826
0.000261388
0.00057301
0.000223432
0.000600616
0.000178561
0.000622584
0.000126211
0.00063812
6.53241e-05
0.00064714
-5.17225e-06
0.000650037
-8.67077e-05
0.00064721
-0.000180868
0.000640303
-0.00028904
0.000631954
-0.000412135
0.000625706
-0.000550186
0.000625755
-0.000701888
0.00063649
-0.000864163
0.000661831
-0.00103187
0.000704431
-0.00119791
0.000764965
-0.00135391
0.000841671
-0.00149179
-0.00160565
0.000929764
-0.00016778
0.000146482
-0.000260623
-3.131e-05
-0.000245726
-0.000316239
-0.000286977
-0.000506267
-0.000478177
-0.000522961
-0.000841729
-0.000336083
-0.00138423
-1.175e-06
-0.00206851
0.000336932
-0.00274729
0.000487427
-0.00318429
0.00031965
-0.00321262
-9.82291e-05
-0.00285357
-0.000544579
-0.00224926
-0.000858822
-0.00152937
-0.00103304
-0.000767233
-0.00112472
-3.39785e-06
-0.00117527
0.000733541
-0.00119999
0.00141935
-0.00119738
0.00205406
-0.00117455
0.00264319
-0.00110809
0.00317895
-0.000982091
0.0036863
-0.000794878
0.00419054
-0.000555354
0.00470842
-0.00028407
0.00522846
-1.02769e-05
0.00567778
0.000230964
0.00593026
0.000416443
0.00588199
0.000564011
0.00551128
0.000708976
0.00488313
0.00083394
0.00410292
0.000874085
0.00327683
0.000803146
0.0024935
0.000659005
0.00181706
0.000493773
0.00126455
0.000356497
0.000830719
0.000251162
0.000499513
0.000168378
0.000247885
0.000103821
5.36304e-05
5.48505e-05
-9.85109e-05
1.85207e-05
-0.000216192
-7.39224e-06
-0.000301739
-2.43342e-05
-0.000355358
-3.31123e-05
-0.000377642
-3.42598e-05
-0.000371291
-2.83293e-05
-0.000338549
-1.60392e-05
-0.000282738
2.04662e-06
-0.000209011
2.45327e-05
-0.000121554
5.07868e-05
-2.40536e-05
7.98703e-05
8.0663e-05
0.000110303
0.000190007
0.000140981
0.000301587
0.000170585
0.000413116
0.000197796
0.000522438
0.000221417
0.000627654
0.000240433
0.000727247
0.000254079
0.000820163
0.000261827
0.000905806
0.000263356
0.000983953
0.000258505
0.00105461
0.000247236
0.00111782
0.000229594
0.00117355
0.000205668
0.00122145
0.000175524
0.00126093
0.000139089
0.00129108
9.60548e-05
0.00131092
4.54898e-05
0.00131954
-1.38008e-05
0.00131669
-8.38495e-05
0.00130273
-0.000166909
0.00127916
-0.000265472
0.00124869
-0.000381663
0.00121518
-0.000516684
0.00118346
-0.000670158
0.00115873
-0.000839433
0.00114589
-0.00101904
0.00114865
-0.00120066
0.0011687
-0.00137396
0.0012052
-0.0015283
-0.00165587
0.00125543
0.000845514
-0.000699033
0.00205803
-0.00124382
0.00305128
-0.00130949
0.00378023
-0.00123522
0.00431891
-0.00106164
0.0046889
-0.000706082
0.00485061
-0.00016288
0.00474387
0.000443674
0.00437199
0.000859304
0.00382631
0.000865328
0.00321658
0.0005115
0.00259132
8.06833e-05
0.00193602
-0.000203523
0.00122582
-0.000322841
0.000456338
-0.000355234
-0.000362659
-0.000356277
-0.00121781
-0.000344838
-0.00209534
-0.000319846
-0.00299118
-0.000278706
-0.00388354
-0.000215736
-0.00473646
-0.000129174
-0.00550875
-2.25788e-05
-0.00615986
9.57548e-05
-0.00665787
0.000213938
-0.00698545
0.000317303
-0.00714553
0.000391045
-0.00715505
0.000425958
-0.00701293
0.00042189
-0.00668641
0.000382458
-0.00616507
0.000312597
-0.00551289
0.000221912
-0.00483918
0.000129434
-0.00422184
4.16591e-05
-0.00368527
-4.27943e-05
-0.00322476
-0.000104015
-0.0028249
-0.000148691
-0.00247749
-0.000179031
-0.00217581
-0.000197864
-0.00191248
-0.000208477
-0.00168003
-0.000213933
-0.00147104
-0.000216384
-0.00127857
-0.000216799
-0.00109651
-0.000215171
-0.000919817
-0.000210956
-0.000744687
-0.000203459
-0.000568621
-0.000192106
-0.000390028
-0.000176546
-0.000208758
-0.000156737
-2.51087e-05
-0.000132862
0.000160019
-0.000105257
0.000345091
-7.47689e-05
0.00052838
-4.23085e-05
0.000707837
-8.87259e-06
0.000881443
2.41901e-05
0.00104699
5.58723e-05
0.00120261
8.48082e-05
0.00134672
0.000109971
0.00147815
0.000130402
0.00159619
0.00014531
0.0017006
0.000154097
0.00179147
0.000156367
0.00186912
0.000151944
0.00193395
0.000140831
0.00198633
0.000123152
0.00202637
9.90423e-05
0.00205397
6.84582e-05
0.00206663
3.28315e-05
0.00206816
-1.53313e-05
0.00205692
-7.26109e-05
0.00203318
-0.000143167
0.00199819
-0.000230484
0.00195422
-0.00033769
0.00190451
-0.000466973
0.00185305
-0.000618705
0.00180414
-0.000790521
0.00176173
-0.000976629
0.00172882
-0.00116775
0.00170701
-0.00135215
0.00169573
-0.00151701
-0.00165546
0.00169531
-0.000696386
-2.64629e-06
-0.00175566
-0.000184555
-0.00262456
-0.000440586
-0.00324839
-0.000611389
-0.00373101
-0.00057901
-0.00411878
-0.000318316
-0.00435171
7.00487e-05
-0.00436396
0.000455922
-0.0042122
0.000707547
-0.00408604
0.000739167
-0.00413449
0.000559953
-0.00433535
0.000281543
-0.00456434
2.5468e-05
-0.00472986
-0.000157327
-0.00482229
-0.0002628
-0.00487773
-0.000300838
-0.00493717
-0.000285397
-0.00503128
-0.000225736
-0.00515995
-0.00015004
-0.00531002
-6.5667e-05
-0.00545625
1.70546e-05
-0.00556654
8.77184e-05
-0.00560889
0.000138102
-0.00555806
0.000163109
-0.00540187
0.000161111
-0.00514484
0.000134011
-0.00480618
8.73024e-05
-0.00441313
2.88361e-05
-0.00399609
-3.45735e-05
-0.00358692
-9.65753e-05
-0.00321385
-0.000151158
-0.00288473
-0.000199692
-0.0026038
-0.000239264
-0.00237426
-0.00027234
-0.00217986
-0.000298417
-0.00200952
-0.000319029
-0.00185314
-0.00033541
-0.00170233
-0.000348673
-0.001551
-0.000359805
-0.00139532
-0.000369614
-0.00123302
-0.000378678
-0.00106273
-0.00038709
-0.000883556
-0.000394349
-0.000695015
-0.000399497
-0.000497097
-0.000401377
-0.000290311
-0.000398893
-7.56678e-05
-0.000391189
0.000145346
-0.000377751
0.000370929
-0.000358446
0.000599138
-0.000333466
0.000827734
-0.000303364
0.00105439
-0.000268961
0.0012768
-0.000231288
0.00149253
-0.000191536
0.00169941
-0.00015101
0.00189521
-0.000110994
0.00207785
-7.26641e-05
0.00224543
-3.71793e-05
0.00239633
-5.58951e-06
0.00252902
2.14026e-05
0.00264239
4.29952e-05
0.0027355
5.88372e-05
0.00280782
6.85079e-05
0.0028593
7.16736e-05
0.00289042
6.79214e-05
0.00290228
5.6598e-05
0.00289827
3.68493e-05
0.00287706
5.87745e-06
0.00284262
-3.81701e-05
0.00279758
-9.81297e-05
0.00274459
-0.000177498
0.00268624
-0.000279334
0.00262481
-0.000405544
0.00256216
-0.000556053
0.00249956
-0.000727925
0.00243768
-0.000914747
0.00237655
-0.00110662
0.00231595
-0.00129155
0.00225465
-0.00145572
-0.0015959
0.0021951
-0.000133385
0.000130739
-0.000376522
5.85822e-05
-0.00059849
-0.000218618
-0.000799346
-0.000410534
-0.00100171
-0.000376645
-0.00112
-0.000200026
-0.00104401
-5.93694e-06
-0.000728527
0.000140434
-0.000259603
0.000238622
0.000188903
0.000290662
0.000460441
0.000288415
0.000514022
0.000227962
0.000413957
0.000125533
0.000254544
2.08632e-06
0.000104352
-0.000112607
-1.69213e-06
-0.000194794
-5.15128e-05
-0.000235577
-4.15934e-05
-0.000235655
5.95382e-06
-0.000197588
7.74628e-05
-0.000137176
0.00016615
-7.16323e-05
0.000268534
-1.4666e-05
0.000381695
2.49405e-05
0.000500704
4.41006e-05
0.00061732
4.44946e-05
0.000720337
3.09947e-05
0.000797681
9.95794e-06
0.000839521
-1.30035e-05
0.000839866
-3.49187e-05
0.000791003
-4.77119e-05
0.000693254
-5.34091e-05
0.000554098
-6.05363e-05
0.000386356
-7.15212e-05
0.000203193
-8.9176e-05
2.02545e-05
-0.000115479
-0.000148467
-0.000150307
-0.000290795
-0.000193083
-0.000397916
-0.000241552
-0.000465066
-0.000292654
-0.000490973
-0.000343707
-0.000476881
-0.000392769
-0.000425439
-0.000438532
-0.000339929
-0.000479859
-0.00022397
-0.000515456
-8.14956e-05
-0.000543851
8.32469e-05
-0.000563635
0.000265796
-0.000573738
0.000461659
-0.000573614
0.000666493
-0.000563279
0.000876278
-0.000543251
0.00108736
-0.000514451
0.00129652
-0.00047812
0.00150097
-0.000435734
0.00169835
-0.000388919
0.00188672
-0.000339382
0.00206454
-0.000288811
0.00223066
-0.000238787
0.00238407
-0.000190582
0.00252414
-0.000145668
0.00265015
-0.000104608
0.00276136
-6.82098e-05
0.00285722
-3.70304e-05
0.00293737
-1.16373e-05
0.00300178
7.26025e-06
0.003051
1.87081e-05
0.00308618
2.14186e-05
0.00310942
1.36087e-05
0.00312227
-6.98006e-06
0.00312696
-4.28618e-05
0.00312573
-9.68991e-05
0.0031199
-0.000171667
0.00310969
-0.000269124
0.00309415
-0.000390002
0.00307122
-0.000533124
0.00303802
-0.000694724
0.00299133
-0.000868054
0.00292825
-0.00104354
0.00284727
-0.00121058
0.00274824
-0.00135669
-0.0014828
0.00263514
0.000191474
-6.07348e-05
0.000342472
-9.24167e-05
0.000265831
-0.000141976
4.57556e-05
-0.000190459
-0.000108455
-0.000222435
-2.90533e-05
-0.000279428
0.000321686
-0.000356676
0.000884165
-0.000422045
0.00156567
-0.000442885
0.00226177
-0.00040544
0.00286982
-0.00031963
0.00331899
-0.000221211
0.00357589
-0.000131367
0.00362956
-5.15848e-05
0.00349918
1.77754e-05
0.00323218
7.22097e-05
0.0028799
0.000116695
0.00249194
0.000152305
0.00211478
0.000179577
0.00177807
0.000199536
0.0014942
0.000212233
0.00126278
0.000216751
0.00107997
0.000207753
0.00093279
0.000191284
0.000807506
0.000169778
0.000694076
0.000144424
0.000586085
0.000117949
0.000480177
9.2905e-05
0.000374721
7.05374e-05
0.000275142
5.18672e-05
0.000185585
3.61479e-05
0.000104353
2.0695e-05
3.13894e-05
1.44208e-06
-3.10989e-05
-2.66881e-05
-7.77794e-05
-6.87983e-05
-0.000106469
-0.000121618
-0.000121875
-0.000177676
-0.000116922
-0.000246505
-9.17825e-05
-0.000317793
-4.76687e-05
-0.000387821
1.46629e-05
-0.000455101
9.52072e-05
-0.000519076
0.000194099
-0.000578751
0.000310703
-0.00063206
0.000443119
-0.000676268
0.000588301
-0.000708818
0.000742578
-0.000728015
0.000902226
-0.000733261
0.00106387
-0.000724924
0.00122465
-0.000704035
0.00138222
-0.000672017
0.00153462
-0.000630523
0.00168025
-0.000581367
0.00181785
-0.000526516
0.00194654
-0.000468066
0.00206591
-0.000408186
0.00217611
-0.000348986
0.0022779
-0.000292374
0.0023722
-0.000239967
0.00246052
-0.000192926
0.0025444
-0.000152089
0.00262521
-0.000117845
0.0027041
-9.05293e-05
0.00278185
-7.0484e-05
0.00285925
-5.86956e-05
0.00293631
-5.56414e-05
0.00301315
-6.32278e-05
0.0030893
-8.31329e-05
0.00316367
-0.00011723
0.00323437
-0.000167604
0.00329864
-0.000235929
0.00335263
-0.000323123
0.00339157
-0.000428935
0.00340992
-0.000551474
0.00340198
-0.000686792
0.00336277
-0.000828841
0.00328922
-0.000969988
0.00318136
-0.00110272
0.00304346
-0.00121878
-0.00132093
0.00288158
-0.000295741
0.000235006
-0.00102462
0.000636459
-0.00202621
0.000859612
-0.00307195
0.000855282
-0.00393725
0.000642872
-0.00452649
0.000309808
-0.00483193
-5.1234e-05
-0.00487714
-0.00037684
-0.00468359
-0.000636432
-0.00426582
-0.000823211
-0.00364349
-0.000941959
-0.00286091
-0.00100379
-0.00197391
-0.00101837
-0.00103295
-0.000992543
-8.51157e-05
-0.000930059
0.000819453
-0.000832359
0.00165415
-0.000718004
0.00240402
-0.000597562
0.00306297
-0.000479374
0.00363013
-0.000367626
0.00410466
-0.000262296
0.00448304
-0.000161621
0.0047563
-6.5509e-05
0.00492405
2.35344e-05
0.00499217
0.000101656
0.00496817
0.00016842
0.00486939
0.000216729
0.00471387
0.000248428
0.00451659
0.000267821
0.00429226
0.000276196
0.00405371
0.000274698
0.00381
0.0002644
0.00356533
0.000246121
0.00331802
0.000220622
0.00306076
0.000188456
0.00279287
0.000146279
0.00252488
9.03053e-05
0.00226171
1.66642e-05
0.00201635
-7.24313e-05
0.00179911
-0.000170581
0.00162095
-0.000276937
0.00148783
-0.000385956
0.00139961
-0.000490526
0.00135119
-0.000583646
0.00133485
-0.000659929
0.00134247
-0.000716436
0.00136714
-0.000752683
0.00140388
-0.000770004