/*--------------------------------*- C++ -*----------------------------------*\
| =========                 |                                                 |
| \\      /  F ield         | OpenFOAM: The Open Source CFD Toolbox           |
|  \\    /   O peration     | Version:  2012                                  |
|   \\  /    A nd           | Website:  www.openfoam.com                      |
|    \\/     M anipulation  |                                                 |
\*---------------------------------------------------------------------------*/
FoamFile
{
    version     2.0;
    format      ascii;
    class       surfaceScalarField;
    location    "0.95";
    object      phi;
}
// * * * * * * * * * * * * * * * * * * * * * * * * * * * * * * * * * * * * * //

dimensions      [0 3 -1 0 0 0 0];
oriented        oriented;


internalField   nonuniform List<scalar> 
84340
(
-0.000203314
8.30737e-05
0.00012024
-0.0006556
0.000278948
0.000173338
-0.0014256
0.000533148
0.000236855
-0.00247426
0.000683842
0.000364813
-0.00359671
0.000639006
0.000483448
-0.00460882
0.00047568
0.000536425
-0.00541604
0.000279538
0.000527685
-0.00600742
0.000100647
0.000490735
-0.00641649
-4.75853e-05
0.00045665
-0.00668855
-0.000169924
0.000441992
-0.00686383
-0.000273287
0.000448559
-0.00696863
-0.000360492
0.0004653
-0.00701157
-0.000430072
0.000473011
-0.00698569
-0.000478377
0.00045249
-0.0068766
-0.000502265
0.000393175
-0.00666996
-0.000500541
0.000293901
-0.0063561
-0.000475109
0.00016125
-0.00592984
-0.000430343
4.0873e-06
-0.0053883
-0.000368322
-0.000173224
-0.00474055
-0.00029241
-0.000355333
-0.00399513
-0.000212763
-0.000532658
-0.00317344
-0.000138337
-0.000683359
-0.00230882
-7.85591e-05
-0.000786056
-0.00144317
-4.14406e-05
-0.000824211
-0.000628185
-2.44495e-05
-0.000790535
9.48839e-05
-3.26047e-05
-0.000690464
0.000701254
-6.59964e-05
-0.000540374
0.00117855
-0.000115398
-0.0003619
0.00153032
-0.00017603
-0.000175733
0.00177265
-0.000244723
2.39312e-06
0.00192576
-0.000315622
0.000162506
0.00200522
-0.000378714
0.000299256
0.0020186
-0.000424021
0.00041064
0.00197049
-0.000449515
0.00049763
0.00187028
-0.000463455
0.00056366
0.00173454
-0.000477455
0.000613201
0.00158283
-0.000498549
0.000650257
0.00143231
-0.000527252
0.000677768
0.00129464
-0.000560074
0.000697745
0.00117568
-0.000592599
0.000711558
0.00107693
-0.000621314
0.000720063
0.000997425
-0.000644077
0.000723584
0.000935364
-0.000659861
0.000721922
0.000889175
-0.000668321
0.00071451
0.000857983
-0.00066948
0.000700672
0.000841628
-0.000663531
0.000679887
0.000840347
-0.000650714
0.000651995
0.000854325
-0.000631241
0.000617263
0.000883183
-0.000605269
0.000576411
0.000925541
-0.000572935
0.000530576
0.000978745
-0.00053448
0.000481276
0.00103879
-0.000490434
0.00043039
0.00110052
-0.000441861
0.000380133
0.00115808
-0.000390582
0.000333016
0.00120565
-0.000339285
0.000291721
0.00123819
-0.000291385
0.000258846
0.00125224
-0.000250564
0.000236509
0.00124644
-0.00022008
0.000225877
0.00122177
-0.000202225
0.000226903
0.00118154
-0.000198365
0.000238593
0.00113125
-0.000209529
0.000259819
0.00107792
-0.000236893
0.000290225
0.0010289
-0.000281463
0.000330474
0.000990407
-0.000343002
0.000381499
0.000966252
-0.000419036
0.000443191
0.000957516
-0.000504747
0.000513483
0.000962953
-0.000593869
0.000588432
0.000979833
-0.000679997
0.000663117
0.00100475
-0.000757645
0.000732727
0.00103417
-0.000822741
0.000793326
0.00106466
-0.000872677
0.000842181
0.00109302
-0.000906155
0.000877794
0.00111623
-0.000923027
0.000899815
0.00113153
-0.000924239
0.000908943
0.00113653
-0.00091183
0.000906826
0.00112954
-0.000888903
0.000895894
0.00110989
-0.000859402
0.000879055
0.0010783
-0.000827634
0.000859224
0.00103696
-0.000797755
0.000839092
-0.000773358
0.0008237
0.000986621
9.92043e-05
-1.61306e-05
0.000152824
0.000225328
0.000154079
0.000531893
0.000119029
0.000718891
-5.10617e-06
0.000763142
-0.000221146
0.000691721
-0.000508264
0.000566655
-0.000842977
0.00043536
-0.00120801
0.000317444
-0.00159351
0.000215577
-0.00199355
0.000126753
-0.00240144
4.73983e-05
-0.00280689
-2.46166e-05
-0.00319792
-8.73524e-05
-0.00356031
-0.000139873
-0.00387215
-0.000188698
-0.00411469
-0.000232565
-0.00427164
-0.000273401
-0.00432809
-0.000311866
-0.00427282
-0.000347685
-0.00410642
-0.00037916
-0.0038422
-0.000402553
-0.00350735
-0.000413411
-0.00314082
-0.000407977
-0.00279372
-0.000371547
-0.002525
-0.000301327
-0.00237712
-0.000213869
-0.0023482
-0.00014432
-0.00239947
-0.000124762
-0.00248451
-0.00015968
-0.00257157
-0.00022856
-0.00263954
-0.000310747
-0.0026679
-0.000395662
-0.00264117
-0.000476243
-0.00255663
-0.000547999
-0.00242392
-0.000610164
-0.00225869
-0.00066378
-0.00207655
-0.000709387
-0.00189032
-0.000746308
-0.00170935
-0.000773565
-0.00153956
-0.000791105
-0.00138357
-0.000800075
-0.00124116
-0.000802263
-0.00111017
-0.000799315
-0.000987401
-0.000792249
-0.000869574
-0.000781359
-0.000753937
-0.000766351
-0.000638618
-0.000746561
-0.000522743
-0.000721144
-0.000406441
-0.000689237
-0.000290777
-0.000650143
-0.000177626
-0.000603585
-6.94426e-05
-0.000550045
3.11073e-05
-0.000491132
0.00012166
-0.000429838
0.00020074
-0.000370466
0.000268303
-0.000318126
0.000326116
-0.000277893
0.000377793
-0.000253902
0.000428457
-0.00024903
0.000483801
-0.000264873
0.000548604
-0.000301696
0.000625243
-0.000358102
0.00071294
-0.0004307
0.000808189
-0.000514285
0.000906068
-0.000602626
0.00100168
-0.000689485
0.00109112
-0.000769431
0.00117171
-0.00083824
0.0012419
-0.000892928
0.00130083
-0.000931602
0.00134796
-0.000953291
0.0013828
-0.000957869
0.00140469
-0.00094613
0.00141285
-0.000919983
0.0014066
-0.000882654
0.00138589
-0.000838691
0.00135183
-0.000793575
0.00130702
-0.00075294
-0.000722481
0.00125614
-0.000326462
0.000310331
-0.000440832
0.000339699
-9.0393e-05
0.000181454
0.000529071
9.94276e-05
0.00116578
0.000126433
0.00162711
0.000230393
0.00182197
0.000371792
0.00175423
0.000503103
0.00147961
0.000592065
0.00106137
0.000633809
0.00054897
0.000639157
-2.23705e-05
0.000618739
-0.000625445
0.000578458
-0.00123424
0.000521447
-0.00182413
0.000450014
-0.0023788
0.000365973
-0.00287862
0.00026725
-0.00331715
0.000165135
-0.00368843
5.94161e-05
-0.00398493
-5.11944e-05
-0.00420254
-0.000161548
-0.00434077
-0.000264319
-0.00440417
-0.000350017
-0.00440509
-0.000407051
-0.00435001
-0.000426631
-0.00425848
-0.000392856
-0.00413745
-0.000334897
-0.00399532
-0.000286449
-0.00384953
-0.000270559
-0.00370347
-0.000305735
-0.00356682
-0.000365212
-0.00344036
-0.000437205
-0.00331159
-0.000524432
-0.00316423
-0.0006236
-0.00299101
-0.000721227
-0.00279834
-0.000802834
-0.00260019
-0.000861923
-0.00241125
-0.000898326
-0.0022431
-0.000914459
-0.00210286
-0.000913808
-0.00199292
-0.00090104
-0.00191141
-0.000881585
-0.00185326
-0.000860415
-0.00181179
-0.000840791
-0.00178026
-0.000823771
-0.001753
-0.000808628
-0.00172566
-0.000793691
-0.00169512
-0.0007771
-0.001659
-0.000757257
-0.00161527
-0.000732965
-0.00156196
-0.000703461
-0.00149706
-0.000668483
-0.00141862
-0.000628488
-0.00132482
-0.000584926
-0.00121416
-0.000540497
-0.00108555
-0.000499075
-0.000938548
-0.000465131
-0.000773104
-0.000443337
-0.000590269
-0.000436737
-0.000392028
-0.000447271
-0.000182127
-0.000474774
3.37839e-05
-0.000517606
0.00024859
-0.000572908
0.000454793
-0.000636904
0.000645784
-0.000705275
0.000816776
-0.000773618
0.000965158
-0.000837867
0.0010903
-0.00089457
0.00119305
-0.000940991
0.0012752
-0.000975076
0.00133895
-0.000995357
0.00138653
-0.00100087
0.00141981
-0.000991154
0.00144017
-0.000966488
0.00144839
-0.000928201
0.00144481
-0.000879071
0.00142961
-0.000823495
0.00140327
-0.000767235
0.00136698
-0.000716647
-0.000678153
0.00132265
0.000667156
-0.000356825
0.00182083
-0.000813971
0.00299773
-0.000995451
0.00408742
-0.000990263
0.00509148
-0.000877626
0.00598586
-0.000663987
0.00673459
-0.000376932
0.00730779
-7.00979e-05
0.007688
0.000211849
0.00786946
0.000452354
0.00785519
0.000653425
0.00765304
0.000820891
0.00727238
0.00095911
0.00672285
0.00107098
0.00601509
0.00115777
0.00516493
0.00121614
0.00419341
0.00123877
0.00314152
0.00121702
0.00205397
0.00114697
0.000969149
0.00103363
-8.20421e-05
0.000889643
-0.00107722
0.000730864
-0.00199834
0.0005711
-0.00282449
0.000419098
-0.00352783
0.00027671
-0.00405958
0.000138888
-0.00438958
-4.89108e-06
-0.0045104
-0.000165637
-0.00443329
-0.000347669
-0.00419436
-0.000544665
-0.00381891
-0.000740659
-0.00334047
-0.000915639
-0.00281264
-0.00105227
-0.00229569
-0.00114054
-0.00183711
-0.00117981
-0.00146253
-0.00117741
-0.0011791
-0.00114535
-0.000981403
-0.00109603
-0.000856534
-0.00103933
-0.000788331
-0.000982012
-0.000761003
-0.000928368
-0.000761648
-0.00088094
-0.000781152
-0.00084091
-0.000813691
-0.000808252
-0.000855445
-0.000782017
-0.000903317
-0.000760756
-0.000954041
-0.000742967
-0.00100377
-0.000727372
-0.00104802
-0.000713009
-0.00108182
-0.000699167
-0.00109996
-0.000685321
-0.00109731
-0.000671131
-0.00106925
-0.000656543
-0.00101221
-0.000641965
-0.000924292
-0.00062842
-0.000805795
-0.000617571
-0.000659386
-0.000611541
-0.000490189
-0.000612535
-0.000304631
-0.000622296
-0.000110146
-0.000641756
8.58545e-05
-0.000670774
0.000276391
-0.000708144
0.000455354
-0.000751871
0.000617868
-0.000799418
0.000760563
-0.00084797
0.000881632
-0.000894687
0.000980692
-0.000936928
0.00105856
-0.000972443
0.00111704
-0.000999465
0.00115864
-0.00101667
0.00118632
-0.00102305
0.00120316
-0.0010177
0.00121193
-0.000999927
0.00121494
-0.000969498
0.00121389
-0.000927152
0.00120992
-0.000875099
0.00120368
-0.000817258
0.00119549
-0.000759048
0.0011855
-0.000706655
-0.000666081
0.00117343
6.52021e-05
-0.000422027
8.05961e-05
-0.000829365
-4.37987e-05
-0.000871057
-0.000273486
-0.000760575
-0.000515068
-0.000636045
-0.000690652
-0.000488402
-0.000754165
-0.00031342
-0.000702538
-0.000121725
-0.000558896
6.82063e-05
-0.000338811
0.00023227
-3.98838e-05
0.000354498
0.00034045
0.000440557
0.000805161
0.000494399
0.0013536
0.000522543
0.00198616
0.000525214
0.00270521
0.000497082
0.0035104
0.000433583
0.0043891
0.000338323
0.0053136
0.000222463
0.00623037
0.000116856
0.00708496
3.50582e-05
0.00783488
-1.9062e-05
0.00845274
-4.67536e-05
0.00891946
-4.76276e-05
0.00922128
-2.51092e-05
0.00934558
1.4592e-05
0.00927969
6.0999e-05
0.00901521
9.88371e-05
0.00855614
0.000111401
0.00792503
8.64451e-05
0.00716175
2.26193e-05
0.00631433
-6.82185e-05
0.00542952
-0.000167456
0.00455008
-0.000261103
0.00371374
-0.000343476
0.00295093
-0.000414601
0.00228224
-0.000476654
0.0017178
-0.000531594
0.00125917
-0.000580696
0.000901345
-0.000624186
0.000634452
-0.000661475
0.000445144
-0.000691632
0.00031818
-0.000713946
0.000238204
-0.000728276
0.000191293
-0.000735107
0.000165956
-0.00073542
0.000153465
-0.000730476
0.000147741
-0.000721648
0.000145031
-0.0007103
0.000143592
-0.000697728
0.000143388
-0.000685117
0.000145796
-0.000673539
0.000153233
-0.00066398
0.000168633
-0.000657364
0.00019479
-0.000654577
0.00023367
-0.000656452
0.000285851
-0.000663721
0.000350241
-0.000676924
0.000424242
-0.000696297
0.000504162
-0.000721676
0.000585814
-0.000752427
0.000665101
-0.000787431
0.000738337
-0.000825107
0.000802419
-0.000863499
0.000854891
-0.000900442
0.00089401
-0.000933805
0.000918875
-0.000961792
0.000929615
-0.000983183
0.000927534
-0.000997384
0.000915062
-0.0010042
0.000895458
-0.00100344
0.000872351
-0.000994592
0.000849265
-0.000976841
0.000829301
-0.000949535
0.000814988
-0.000912838
0.000808193
-0.000868304
0.000810015
-0.000819079
0.000820641
-0.000769674
0.000839287
-0.0007253
-0.00069175
0.000864956
-0.000163824
-0.000258202
-0.000409197
-0.000583992
-0.000335866
-0.000944388
0.000182268
-0.00127871
0.00101218
-0.00146596
0.00203148
-0.0015077
0.00312869
-0.00141063
0.00419882
-0.00119185
0.00514424
-0.000877214
0.0058804
-0.000503893
0.00634799
-0.000113087
0.00652856
0.000259978
0.00644405
0.000578918
0.00616258
0.000804009
0.00578286
0.000904929
0.00539873
0.00088122
0.00506229
0.000770023
0.00477018
0.000630432
0.00450055
0.000492086
0.00423001
0.000387401
0.00394854
0.000316528
0.00366142
0.000268062
0.00338188
0.000232781
0.00312732
0.000206931
0.00290808
0.000194134
0.00272417
0.0001985
0.00256882
0.000216346
0.0024307
0.000236959
0.00229637
0.00024573
0.00214488
0.000237935
0.00196221
0.000205291
0.00174409
0.000149909
0.00150269
7.39364e-05
0.00126271
-2.11221e-05
0.00104587
-0.000126638
0.000865984
-0.00023471
0.000727346
-0.000338016
0.000626777
-0.000431024
0.000556715
-0.000510634
0.0005086
-0.00057607
0.000475232
-0.000628107
0.000451752
-0.000668153
0.000435486
-0.00069768
0.000425224
-0.000718014
0.000420458
-0.000730341
0.000420817
-0.00073578
0.000425818
-0.000735476
0.000434829
-0.00073066
0.000447198
-0.000722668
0.000462385
-0.000712914
0.00048009
-0.000702821
0.000500288
-0.000693736
0.000523169
-0.000686861
0.000549005
-0.000683199
0.000577968
-0.00068354
0.000609969
-0.000688453
0.000644537
-0.00069829
0.000680781
-0.000713168
0.000717422
-0.000732938
0.000752875
-0.00075713
0.000785348
-0.0007849
0.000812913
-0.000814996
0.000833577
-0.000845771
0.000845371
-0.000875294
0.000846506
-0.000901577
0.00083563
-0.00092293
0.000812166
-0.000938328
0.000776639
-0.000947656
0.00073088
-0.000951625
0.000677977
-0.000951299
0.000621959
-0.000947426
0.000567314
-0.000939947
0.000518492
-0.000928019
0.000479525
-0.000910569
0.000453758
-0.000887072
0.000443614
-0.00085816
0.000450352
-0.000825818
0.000473832
-0.000793153
0.000512574
-0.000764042
-0.00074399
0.000564815
-0.000927358
0.000669156
-0.00237484
0.000863487
-0.00371839
0.000399167
-0.00485009
-0.000147015
-0.00575821
-0.000557833
-0.00644192
-0.000823984
-0.00689625
-0.000956307
-0.00710912
-0.000978982
-0.00706746
-0.000918871
-0.00676262
-0.000808736
-0.00621206
-0.000663648
-0.00545061
-0.000501474
-0.0045298
-0.000341893
-0.00352405
-0.000201735
-0.00252829
-9.08331e-05
-0.00164086
-6.20449e-06
-0.000941731
7.08887e-05
-0.000472247
0.000160949
-0.000246996
0.000266835
-0.00023437
0.000374774
-0.000378406
0.000460564
-0.000626531
0.000516187
-0.000927421
0.000533672
-0.00123247
0.000511978
-0.0014949
0.000456569
-0.00167603
0.000379621
-0.00175627
0.000296593
-0.0017378
0.000218487
-0.00163943
0.000147355
-0.00148131
7.98217e-05
-0.00128675
1.07269e-05
-0.00107373
-6.31117e-05
-0.000858041
-0.000141752
-0.000655873
-0.000223289
-0.000477772
-0.00030474
-0.000329456
-0.000383026
-0.000211747
-0.000455726
-0.000121251
-0.000521521
-5.17624e-05
-0.000580123
3.95873e-06
-0.000631792
5.26257e-05
-0.000676774
9.94604e-05
-0.000714987
0.000147848
-0.000746067
0.000199472
-0.000769638
0.000254722
-0.000785591
0.000313181
-0.000794239
0.000374017
-0.000796312
0.00043622
-0.000792863
0.00049871
-0.000785158
0.000560373
-0.000774578
0.000620105
-0.000762553
0.000676868
-0.0007505
0.000729772
-0.000739765
0.000778131
-0.000731559
0.000821487
-0.000726896
0.000859574
-0.000726539
0.000892231
-0.000730947
0.000919299
-0.000740236
0.000940509
-0.000754147
0.000955396
-0.000772016
0.00096326
-0.000792763
0.000963168
-0.000814903
0.000954027
-0.00083663
0.000934717
-0.000855984
0.000904286
-0.000871146
0.000862181
-0.000880825
0.000808511
-0.000884656
0.000744279
-0.000883424
0.000671565
-0.000878911
0.000593565
-0.0008733
0.000514448
-0.000868309
0.000439007
-0.000864506
0.000372174
-0.000861185
0.000318499
-0.000856892
0.00028168
-0.000850252
0.0002642
-0.00084068
0.000267069
-0.000828685
0.000289716
-0.0008158
0.000330174
-0.0008045
-0.00079891
0.000385094
0.00116484
-0.000495681
0.00292544
-0.000897117
0.00440533
-0.00108073
0.00542849
-0.00117017
0.00604399
-0.00117333
0.00632034
-0.00110033
0.0063268
-0.00096277
0.00613774
-0.000789924
0.0058255
-0.000606626
0.00544611
-0.000429354
0.0050491
-0.000266629
0.00466687
-0.000119252
0.00430697
1.80039e-05
0.00395379
0.000151451
0.00357931
0.000283644
0.00316272
0.00041039
0.00270615
0.000527459
0.00223213
0.000634961
0.00179881
0.000700163
0.00143052
0.000743059
0.00112469
0.000766393
0.000861564
0.000779316
0.000601739
0.000793496
0.000305395
0.000808322
-3.76419e-05
0.000799606
-0.000393844
0.000735823
-0.000705705
0.000608454
-0.000925886
0.000438668
-0.00103721
0.000258682
-0.00104958
9.21878e-05
-0.000987794
-5.10582e-05
-0.000879318
-0.000171588
-0.000746886
-0.000274184
-0.000606381
-0.000363794
-0.000467208
-0.000443913
-0.000333807
-0.000516427
-0.000207502
-0.00058203
-8.8342e-05
-0.000640681
2.34661e-05
-0.00069193
0.000126866
-0.000735192
0.00022009
-0.000769998
0.00030133
-0.000796227
0.000369518
-0.000814256
0.000424838
-0.000824958
0.000468816
-0.000829569
0.000504023
-0.000829445
0.000533559
-0.000825848
0.000560508
-0.000819811
0.000587489
-0.000812139
0.000616394
-0.000803483
0.000648302
-0.00079446
0.000683524
-0.000785721
0.000721732
-0.000777972
0.000762108
-0.000771934
0.000803481
-0.000768269
0.000844442
-0.0007675
0.000883424
-0.00076993
0.000918766
-0.000775578
0.000948754
-0.000784135
0.000971671
-0.000794933
0.000985857
-0.000806948
0.000989796
-0.000818842
0.000982234
-0.000829068
0.000962309
-0.000836059
0.000929671
-0.000838508
0.000884558
-0.000835713
0.000827835
-0.000827933
0.000761004
-0.000816594
0.00068625
-0.000804157
0.000606499
-0.000793548
0.000525434
-0.000787244
0.000447356
-0.000786427
0.000376825
-0.000790654
0.000318147
-0.000798215
0.00027484
-0.000806946
0.000249219
-0.00081506
0.000242173
-0.000821639
0.00025314
-0.000826767
0.000280181
-0.000831541
-0.000838203
0.000319474
-0.000422396
-7.32853e-05
-0.00116099
-0.000158518
-0.00218267
-5.90461e-05
-0.00352792
0.000175075
-0.00507262
0.000371375
-0.00668375
0.00051079
-0.00824102
0.000594506
-0.00967088
0.000639934
-0.0109433
0.000665839
-0.012045
0.000672292
-0.0129687
0.000657081
-0.0137078
0.000619864
-0.0142534
0.000563617
-0.0145956
0.000493618
-0.0147259
0.000413909
-0.0146387
0.000323266
-0.0143248
0.000213552
-0.0137833
9.34504e-05
-0.0130294
-5.3744e-05
-0.0120674
-0.000218968
-0.0109254
-0.00037563
-0.00964782
-0.000498232
-0.00830441
-0.000549912
-0.00697546
-0.000520625
-0.00574163
-0.000434231
-0.00466287
-0.000342929
-0.00376057
-0.000293851
-0.00302492
-0.000296982
-0.00243266
-0.000333572
-0.00195155
-0.000388927
-0.00154798
-0.000454628
-0.00119706
-0.000522509
-0.000882035
-0.000589207
-0.000592807
-0.000653022
-0.000324336
-0.000712384
-7.52691e-05
-0.000765493
0.000153185
-0.000810485
0.00035819
-0.000845686
0.000536146
-0.000869887
0.000683599
-0.000882645
0.000798129
-0.000884527
0.000879093
-0.000877192
0.000928089
-0.000863251
0.000948989
-0.000845858
0.000947551
-0.00082813
0.000930669
-0.000812564
0.000905457
-0.000800636
0.000878368
-0.000792723
0.000854554
-0.000788324
0.000837546
-0.000786475
0.000829256
-0.00078617
0.000830188
-0.000786654
0.000839748
-0.000787533
0.000856558
-0.000788744
0.000878713
-0.000790425
0.000903989
-0.000792775
0.000929983
-0.000795923
0.000954231
-0.000799826
0.000974308
-0.000804212
0.000987931
-0.000808557
0.000993088
-0.000812105
0.000988179
-0.000813933
0.000972172
-0.000813061
0.000944725
-0.000808613
0.00090625
-0.000800032
0.000857855
-0.000787318
0.000801191
-0.000771269
0.000738226
-0.000753629
0.000671056
-0.000736988
0.000601842
-0.000724333
0.00053287
-0.000718272
0.00046667
-0.000720226
0.000406011
-0.000729995
0.000353717
-0.00074592
0.000312324
-0.000765552
0.000283706
-0.000786442
0.000268816
-0.000806748
0.000267561
-0.000825512
0.000278757
-0.000842737
-0.000859265
0.000299818
-0.000109997
3.67116e-05
-0.000460234
0.000191718
-0.000983333
0.000464053
-0.00149071
0.00068245
-0.00185541
0.000736076
-0.00201519
0.000670573
-0.00198579
0.000565101
-0.00181565
0.000469798
-0.00154813
0.000398322
-0.00122337
0.00034753
-0.000874979
0.000308688
-0.00053147
0.000276354
-0.000214372
0.00024652
6.24674e-05
0.000216778
0.000289001
0.000187375
0.000451026
0.000161241
0.000535964
0.000128613
0.000540678
8.87365e-05
0.000459904
2.70305e-05
0.000295177
-5.42412e-05
7.14734e-05
-0.000151926
-0.000175545
-0.000251213
-0.000391948
-0.000333509
-0.000524291
-0.000388282
-0.000539749
-0.000418773
-0.000444069
-0.000438609
-0.000275374
-0.000462547
-7.36832e-05
-0.000498674
0.00014004
-0.000547295
0.000355782
-0.00060467
0.000567409
-0.000666255
0.000772995
-0.000728096
0.000970907
-0.000787119
0.00115871
-0.000840827
0.00133339
-0.000887058
0.00149167
-0.000923779
0.0016302
-0.000949015
0.00174541
-0.000960895
0.00183357
-0.00095804
0.00189114
-0.000940221
0.00191557
-0.000908955
0.00190611
-0.000867729
0.0018645
-0.000821649
0.00179521
-0.000776563
0.00170497
-0.000737885
0.00160189
-0.000709491
0.0014943
-0.000693042
0.00138955
-0.000687978
0.00129333
-0.000692097
0.00120929
-0.000702433
0.00113919
-0.000716076
0.00108324
-0.0007307
0.00104045
-0.000744749
0.00100908
-0.000757368
0.000986851
-0.000768198
0.000971229
-0.000777153
0.000959537
-0.000784231
0.0009491
-0.000789389
0.000937369
-0.000792481
0.000922057
-0.000793245
0.000901291
-0.00079134
0.00087377
-0.000786412
0.000838902
-0.000778192
0.000796891
-0.000766603
0.000748736
-0.000751877
0.000696095
-0.000734677
0.000641033
-0.000716207
0.000585664
-0.000698258
0.00053179
-0.000683114
0.000480686
-0.000673229
0.000433108
-0.000670694
0.000389536
-0.000676654
0.000350494
-0.000690952
0.000316758
-0.000712185
0.000289354
-0.000738148
0.000269351
-0.00076644
0.000257602
-0.000794999
0.000254513
-0.000822423
0.000259886
-0.00084811
-0.000872196
0.000272818
0.000129924
-9.32121e-05
0.000324749
-3.10648e-06
0.000600836
0.000187965
0.00100473
0.000278556
0.00149151
0.000249299
0.00200969
0.000152395
0.00252561
4.9174e-05
0.00302233
-2.6914e-05
0.00349162
-7.09676e-05
0.00392904
-8.98977e-05
0.00433167
-9.39354e-05
0.00469875
-9.07288e-05
0.00503155
-8.62849e-05
0.00533247
-8.41418e-05
0.0056043
-8.44532e-05
0.00584982
-8.42777e-05
0.00605789
-7.94526e-05
0.00621438
-6.7756e-05
0.00629372
-5.23047e-05
0.0062779
-3.84289e-05
0.00616298
-3.69978e-05
0.00596684
-5.50809e-05
0.00572791
-9.45799e-05
0.00549043
-0.0001508
0.00528686
-0.0002152
0.00512798
-0.000279726
0.00500614
-0.000340713
0.00490478
-0.000397316
0.00480716
-0.000449674
0.00470047
-0.00049798
0.00457648
-0.000542265
0.00443051
-0.00058212
0.0042605
-0.000617106
0.00406675
-0.00064708
0.00385216
-0.000672466
0.00362241
-0.000694035
0.00338539
-0.000711987
0.00314947
-0.000724979
0.00292166
-0.000730235
0.00270632
-0.000724878
0.00250501
-0.000707643
0.00231736
-0.000680079
0.0021423
-0.000646596
0.00197906
-0.00061332
0.00182748
-0.000586307
0.0016879
-0.000569911
0.00156076
-0.000565899
0.00144626
-0.000573476
0.0013442
-0.000590045
0.00125402
-0.000612248
0.0011748
-0.000636854
0.00110539
-0.000661296
0.00104448
-0.000683837
0.000990595
-0.00070348
0.000942159
-0.000719762
0.00089754
-0.000732533
0.000855096
-0.000741787
0.000813262
-0.000747556
0.000770643
-0.000749862
0.000726128
-0.00074873
0.000679012
-0.000744224
0.000629099
-0.000736499
0.000576768
-0.000725861
0.000522978
-0.000712814
0.000469202
-0.0006981
0.000417254
-0.00068273
0.000369045
-0.000667998
0.000326252
-0.000655465
0.000289998
-0.00064686
0.000260635
-0.000643865
0.000237744
-0.000647802
0.000220387
-0.000659297
0.000207514
-0.000678079
0.000198347
-0.000703018
0.000192587
-0.000732388
0.000190396
-0.000764249
0.000192216
-0.000796819
0.000198532
-0.000828739
0.000209669
-0.000859247
-0.000888221
0.000225693
-0.000353099
0.000259887
-0.000678733
0.000322528
-0.000725187
0.00023442
-0.000678538
0.000231906
-0.000741726
0.000312487
-0.000998615
0.000409284
-0.00143943
0.00048999
-0.00200907
0.000542723
-0.00264619
0.000566155
-0.00329777
0.000561678
-0.00392056
0.000528854
-0.00447816
0.000466873
-0.00494013
0.000375683
-0.00528161
0.000257339
-0.0054824
0.000116338
-0.0055256
-4.10706e-05
-0.00539758
-0.000207476
-0.00509101
-0.000374323
-0.00461165
-0.00053167
-0.0039815
-0.000668582
-0.00324218
-0.000776316
-0.00244901
-0.000848249
-0.00164959
-0.000894
-0.000880594
-0.000919796
-0.000156772
-0.000939023
0.000504939
-0.000941437
0.0010999
-0.000935673
0.00162714
-0.000924556
0.00208664
-0.000909171
0.00247801
-0.000889352
0.00280031
-0.000864571
0.00305183
-0.000833639
0.00322852
-0.000793797
0.0033237
-0.000742252
0.0033311
-0.000679872
0.00325152
-0.000614454
0.00309684
-0.000557305
0.00288752
-0.000515666
0.0026468
-0.000489507
0.00239617
-0.00047425
0.00215331
-0.000464786
0.00193091
-0.000457681
0.00173618
-0.000451865
0.00157121
-0.000448351
0.00143414
-0.000449235
0.00132063
-0.000456401
0.00122531
-0.000470574
0.0011429
-0.000491069
0.001069
-0.000516142
0.00100035
-0.0005436
0.000934849
-0.000571354
0.000871299
-0.000597747
0.000809113
-0.000621652
0.000748039
-0.000642406
0.000687958
-0.000659681
0.000628778
-0.000673352
0.000570389
-0.000683399
0.000512691
-0.000689858
0.000455641
-0.000692811
0.00039932
-0.000692409
0.000343999
-0.000688903
0.000290187
-0.000682688
0.000238658
-0.000674332
0.000190417
-0.000664574
0.000146662
-0.000654344
0.00010866
-0.000644726
7.75839e-05
-0.000636921
5.43081e-05
-0.000632189
3.91987e-05
-0.00063175
3.19788e-05
-0.000636645
3.17372e-05
-0.000647561
3.71186e-05
-0.000664678
4.66358e-05
-0.000687597
5.89947e-05
-0.000715378
7.33129e-05
-0.000746706
8.91779e-05
-0.000780114
0.000106565
-0.000814206
0.000125681
-0.000847854
0.00014681
-0.000880376
-0.000911601
0.00017019
0.000385183
-0.000125297
0.000954231
-0.00024652
0.00150694
-0.000318293
0.00209198
-0.000353124
0.00275593
-0.000351465
0.00349638
-0.000331165
0.00428993
-0.000303563
0.0051076
-0.000274944
0.00592106
-0.000247314
0.0067065
-0.000223754
0.00743897
-0.000203616
0.00809289
-0.000187046
0.00864334
-0.000174775
0.0090688
-0.000168119
0.00935397
-0.000168829
0.00949193
-0.000179036
0.00948499
-0.000200528
0.00934475
-0.000234086
0.00909156
-0.000278479
0.00875301
-0.000330035
0.008361
-0.000384301
0.00794984
-0.000437095
0.00754066
-0.000484815
0.00714637
-0.000525508
0.00676635
-0.000558999
0.00641097
-0.000586056
0.00608292
-0.000607626
0.00578239
-0.000624031
0.00550945
-0.000636222
0.00526669
-0.000646596
0.00506209
-0.000659971
0.00490554
-0.000677087
0.00479724
-0.000685503
0.00471562
-0.000660629
0.00462075
-0.000584999
0.0044755
-0.000469209
0.00426424
-0.000346043
0.00399267
-0.000244093
0.00367575
-0.000172595
0.00332821
-0.000126704
0.002964
-0.000100577
0.00259989
-9.35708e-05
0.00225299
-0.000104968
0.00193626
-0.000131616
0.00165659
-0.000169569
0.00141529
-0.000215103
0.00120966
-0.00026494
0.00103485
-0.000316258
0.00088542
-0.000366714
0.000756332
-0.000414513
0.0006434
-0.000458421
0.000543376
-0.000497722
0.000453826
-0.000532102
0.000372947
-0.000561526
0.000299388
-0.000586122
0.000232131
-0.000606094
0.000170409
-0.000621678
0.000113673
-0.000633122
6.15711e-05
-0.000640709
1.39442e-05
-0.000644782
-2.91753e-05
-0.000645784
-6.75761e-05
-0.000644287
-0.000100896
-0.000641011
-0.000128635
-0.000636835
-0.000150228
-0.000632751
-0.000165124
-0.00062983
-0.000172886
-0.00062916
-0.000173319
-0.000631756
-0.000166589
-0.000638481
-0.000153286
-0.000649948
-0.000134398
-0.000666449
-0.000111188
-0.000687889
-8.49943e-05
-0.00071379
-5.703e-05
-0.000743342
-2.82318e-05
-0.000775505
8.00662e-07
-0.000809147
2.97833e-05
-0.000843189
5.86755e-05
-0.000876747
8.7592e-05
-0.000909292
-0.000940695
0.000116687
3.81526e-05
-0.000163449
3.79395e-05
-0.000246307
-1.23633e-05
-0.000267991
-4.75052e-06
-0.000360737
0.000158839
-0.000515055
0.000505153
-0.000677478
0.00102103
-0.000819436
0.00167694
-0.000930859
0.00243897
-0.00100934
0.00326941
-0.0010542
0.00413104
-0.00106525
0.00498655
-0.00104255
0.00579752
-0.000985748
0.00652172
-0.00089231
0.00711076
-0.000757869
0.00751387
-0.000582154
0.00768986
-0.000376511
0.00761788
-0.000162111
0.00731612
2.32784e-05
0.00683859
0.000147502
0.00625697
0.000197316
0.00563986
0.000180011
0.00503765
0.000117393
0.00447651
3.56395e-05
0.00395892
-4.14158e-05
0.00347232
-9.94567e-05
0.00300179
-0.000137093
0.00253463
-0.000156866
0.00206229
-0.000163882
0.0015793
-0.000163606
0.00108156
-0.000162239
0.000571077
-0.000166602
6.43079e-05
-0.000178734
-0.000405614
-0.000190707
-0.00080003
-0.000190584
-0.0010915
-0.000177737
-0.00127324
-0.0001643
-0.00135628
-0.000161057
-0.00135855
-0.000170325
-0.0012974
-0.00018786
-0.00118928
-0.000208693
-0.00105218
-0.000230671
-0.000903418
-0.000253729
-0.00075664
-0.000278394
-0.000621223
-0.000304986
-0.000502938
-0.000333388
-0.000404746
-0.000363133
-0.000327465
-0.000393539
-0.000270326
-0.000423854
-0.00023148
-0.000453358
-0.000208473
-0.000481427
-0.000198632
-0.000507563
-0.000199334
-0.0005314
-0.000208161
-0.000552698
-0.000222966
-0.000571317
-0.000241867
-0.000587193
-0.000263217
-0.000600327
-0.000285561
-0.000610778
-0.000307593
-0.000618678
-0.000328125
-0.00062425
-0.000346075
-0.000627834
-0.000360462
-0.0006299
-0.000370418
-0.000631056
-0.000375222
-0.000632031
-0.000374327
-0.000633646
-0.000367395
-0.000636761
-0.000354344
-0.00064221
-0.000335368
-0.000650731
-0.000310954
-0.000662893
-0.000281864
-0.000679038
-0.000249076
-0.000699237
-0.000213688
-0.000723277
-0.000176802
-0.000750677
-0.000139409
-0.000780735
-0.000102305
-0.000812608
-6.60471e-05
-0.000845404
-3.09504e-05
-0.000878285
2.88121e-06
-0.000910579
3.55099e-05
-0.000941921
-0.000972275
6.70892e-05
-0.000305297
0.000141848
-0.000596638
4.50335e-05
-0.000662007
-0.000202622
-0.000538015
-0.000484729
-0.000310552
-0.000742517
-7.23793e-05
-0.000915651
0.000111453
-0.00100327
0.000200694
-0.0010201
0.000170833
-0.000979479
2.15014e-05
-0.000904866
-0.000212839
-0.000830908
-0.00047656
-0.000778834
-0.000728103
-0.000734204
-0.000960021
-0.000660393
-0.00118587
-0.000532015
-0.00141909
-0.000348942
-0.00166354
-0.000132053
-0.00191183
8.61777e-05
-0.00215984
0.000271286
-0.00240254
0.000390204
-0.00263526
0.000430032
-0.00285485
0.000399598
-0.00305912
0.000321667
-0.003241
0.000217521
-0.00339184
0.000109423
-0.0034996
8.30174e-06
-0.00355299
-8.37042e-05
-0.00354074
-0.000169118
-0.00345536
-0.000249259
-0.00329908
-0.000319882
-0.00308894
-0.000372379
-0.00284571
-0.000409831
-0.00260232
-0.000422132
-0.00237564
-0.00041738