/*--------------------------------*- C++ -*----------------------------------*\
| =========                 |                                                 |
| \\      /  F ield         | OpenFOAM: The Open Source CFD Toolbox           |
|  \\    /   O peration     | Version:  2012                                  |
|   \\  /    A nd           | Website:  www.openfoam.com                      |
|    \\/     M anipulation  |                                                 |
\*---------------------------------------------------------------------------*/
FoamFile
{
    version     2.0;
    format      ascii;
    class       surfaceScalarField;
    location    "0.38";
    object      phi;
}
// * * * * * * * * * * * * * * * * * * * * * * * * * * * * * * * * * * * * * //

dimensions      [0 3 -1 0 0 0 0];
oriented        oriented;


internalField   nonuniform List<scalar> 
84340
(
1.743e-05
8.83574e-05
-0.000105787
-2.10341e-05
0.000341583
-0.000303119
-0.0001156
0.000644938
-0.000550371
-0.000237471
0.000860298
-0.000738427
-0.000364066
0.000909057
-0.000782463
-0.00046853
0.000800737
-0.000696273
-0.000522563
0.000570152
-0.000516119
-0.000509781
0.000277275
-0.000290057
-0.000430767
-1.82587e-05
-6.07551e-05
-0.000295957
-0.000280491
0.000145681
-0.000114474
-0.000497126
0.000315643
0.000102223
-0.000667496
0.000450799
0.00034218
-0.000792965
0.000553008
0.000593381
-0.00087437
0.000623169
0.00084462
-0.000914171
0.000662932
0.0010806
-0.000918662
0.000682678
0.00128731
-0.000896906
0.000690204
0.00145195
-0.000858597
0.000693952
0.00156332
-0.000812181
0.000700806
0.00161141
-0.000763865
0.000715784
0.00158834
-0.000717598
0.000740661
0.00148967
-0.000674747
0.000773417
0.00131425
-0.000633091
0.000808516
0.00106291
-0.000584372
0.000835713
0.000738616
-0.000516346
0.000840638
0.000350736
-0.000421168
0.000809047
-8.22707e-05
-0.000303997
0.000737004
-0.000532085
-0.000181712
0.000631526
-0.000970636
-7.17336e-05
0.000510285
-0.00138267
1.57061e-05
0.000396324
-0.00175612
6.2206e-05
0.000311247
-0.00208867
6.72479e-05
0.000265307
-0.00238167
4.54441e-05
0.000247553
-0.00263146
2.16002e-05
0.000228193
-0.00282152
1.04772e-05
0.000179578
-0.00293298
2.35753e-05
8.78866e-05
-0.00295584
5.80684e-05
-3.52089e-05
-0.00289493
0.00010263
-0.000163537
-0.00276743
0.000151253
-0.000278758
-0.00259448
0.000195497
-0.000368446
-0.00239653
0.000231707
-0.00042966
-0.00218969
0.000259054
-0.000465894
-0.00198436
0.00027816
-0.000483487
-0.00178565
0.000290106
-0.000488815
-0.00159473
0.000295839
-0.00048676
-0.0014104
0.00029593
-0.000480261
-0.00123042
0.000290562
-0.000470544
-0.00105244
0.000279648
-0.000457631
-0.00087455
0.000262968
-0.000440856
-0.000695589
0.000240298
-0.00041926
-0.000515247
0.000211491
-0.000391832
-0.00033414
0.000176549
-0.000357656
-0.000153798
0.000135681
-0.000316024
2.34305e-05
8.93123e-05
-0.000266541
0.000194544
3.81379e-05
-0.000209252
0.000356201
-1.69761e-05
-0.000144681
0.000505559
-7.55045e-05
-7.38535e-05
0.000640501
-0.000136134
1.19208e-06
0.000757161
-0.000198415
8.17555e-05
0.000855279
-0.000261655
0.000163538
0.000934789
-0.00032551
0.000246
0.000996584
-0.000389824
0.000328028
0.00104226
-0.000454506
0.000408828
0.00107373
-0.000519341
0.00048787
0.00109278
-0.000583753
0.000564702
0.00110074
-0.000646622
0.00063867
0.0010984
-0.000706292
0.000708625
0.00108642
-0.000760869
0.000772853
0.00106575
-0.000808755
0.000829425
0.00103805
-0.000849199
0.000876903
0.00100558
-0.000882574
0.000915042
0.000970769
-0.000910241
0.00094505
0.000935657
-0.000934068
0.000969179
0.00090164
-0.000955839
0.000989858
0.000869608
-0.000976787
0.00100882
0.000840309
-0.000997383
0.00102668
0.000814591
-0.0010174
0.00104312
0.000793336
-0.00103624
0.00105749
0.000777192
-0.00105345
0.00106959
-0.00106945
0.00108142
0.000765223
0.000121476
-3.31183e-05
0.000305026
0.000158032
0.000560673
0.000389291
0.000890128
0.000530844
0.0012141
0.000585084
0.00147107
0.000543762
0.00161869
0.000422537
0.0016391
0.000256868
0.00153457
8.62681e-05
0.0013182
-6.4117e-05
0.00100844
-0.000187368
0.000626404
-0.000285462
0.000195495
-0.000362056
-0.000262149
-0.000416727
-0.000711656
-0.000464664
-0.00111907
-0.000511252
-0.0014538
-0.000562167
-0.00169391
-0.000618491
-0.0018287
-0.000677393
-0.00185897
-0.00073359
-0.00179592
-0.000780648
-0.0016618
-0.00080887
-0.00149446
-0.000800426
-0.0013501
-0.000728735
-0.00128885
-0.000577593
-0.00133405
-0.000375967
-0.00144961
-0.000188445
-0.00157287
-5.84439e-05
-0.00166032
1.5711e-05
-0.00170019
5.55797e-05
-0.00171639
7.84069e-05
-0.00174222
9.30722e-05
-0.0018004
0.000103626
-0.00189154
0.000112736
-0.00200216
0.000121106
-0.0021084
0.000129812
-0.00218976
0.000139426
-0.0022363
0.000149172
-0.00224313
0.000158087
-0.00221267
0.000165037
-0.0021504
0.000169434
-0.00206243
0.000171085
-0.00195426
0.00016999
-0.00183032
0.000166162
-0.001694
0.000159525
-0.00154799
0.000149913
-0.0013945
0.000137078
-0.00123561
0.00012076
-0.0010734
0.000100752
-0.000910044
7.69441e-05
-0.000747939
4.93864e-05
-0.000589358
1.7968e-05
-0.000436634
-1.70426e-05
-0.000291266
-5.60552e-05
-0.000155092
-9.80361e-05
-2.90169e-05
-0.000143051
8.64005e-05
-0.000190922
0.000191718
-0.000241451
0.000287765
-0.000294463
0.000375856
-0.000349746
0.000457344
-0.000406998
0.000533261
-0.00046574
0.000603993
-0.000525238
0.000669089
-0.000584438
0.000727315
-0.000641978
0.000777016
-0.000696323
0.000816748
-0.000746024
0.000845916
-0.000790038
0.000865141
-0.000827981
0.000876144
-0.000860201
0.000881211
-0.000887641
0.00088253
-0.00091156
0.000881718
-0.000933256
0.000879721
-0.000953842
0.000877055
-0.000974121
0.000874202
-0.000994531
0.000871947
-0.00101515
0.000871484
-0.00103577
0.000874133
-0.0010561
-0.00107605
0.000880731
-0.000302811
0.000269693
-0.000376088
0.00023131
7.05649e-05
-5.73619e-05
0.000791506
-0.000190097
0.00146322
-8.66269e-05
0.00188325
0.000123726
0.00196746
0.000338331
0.0017228
0.000501527
0.00121259
0.000596478
0.000524311
0.000624163
-0.000253273
0.000590216
-0.00104039
0.00050165
-0.00177079
0.000368344
-0.00239256
0.000205045
-0.00288768
3.04588e-05
-0.00326656
-0.000132367
-0.00356714
-0.000261587
-0.00382829
-0.000357341
-0.00406548
-0.000440211
-0.00426855
-0.000530517
-0.00441762
-0.000631581
-0.00450226
-0.00072423
-0.00452971
-0.00077297
-0.00451925
-0.000739197
-0.00448682
-0.00061002
-0.00443668
-0.000426116
-0.00436423
-0.00026089
-0.0042646
-0.00015807
-0.00413991
-0.000108987
-0.00399707
-8.72541e-05
-0.00384247
-7.61976e-05
-0.00368332
-6.60764e-05
-0.0035251
-5.45967e-05
-0.00337038
-4.19821e-05
-0.00322007
-2.92013e-05
-0.00307117
-1.90953e-05
-0.00292169
-1.00493e-05
-0.00277118
-1.33841e-06
-0.00261977
6.68124e-06
-0.00246856
1.38203e-05
-0.00231896
1.9839e-05
-0.00217232
2.44406e-05
-0.00202963
2.73017e-05
-0.00189154
2.80694e-05
-0.00175835
2.63415e-05
-0.00163022
2.17758e-05
-0.00150705
1.3908e-05
-0.00138843
2.14686e-06
-0.00127362
-1.40632e-05
-0.00116149
-3.51889e-05
-0.00105325
-5.88486e-05
-0.000947141
-8.81435e-05
-0.000841859
-0.000122325
-0.000736722
-0.000161191
-0.000630342
-0.000204417
-0.000521786
-0.000251607
-0.000410457
-0.000302251
-0.0002962
-0.000355707
-0.000179463
-0.0004112
-6.13874e-05
-0.000467822
5.61484e-05
-0.000524534
0.000170616
-0.000580208
0.00027908
-0.000633702
0.000378554
-0.000683912
0.000466495
-0.000729919
0.000541287
-0.000771115
0.000602573
-0.00080731
0.000651292
-0.000838756
0.000689386
-0.000866074
0.00071929
-0.000890106
0.00074339
-0.000911741
0.000763629
-0.000931799
0.000781333
-0.00095096
0.00079725
-0.000969758
0.000811706
-0.000988578
0.000824832
-0.00100766
0.000836766
-0.00102708
0.000847808
-0.00104681
0.000858468
-0.00106676
-0.0010872
0.000869617
0.000427274
-0.000157581
0.00114602
-0.000487437
0.00183884
-0.00075018
0.00243299
-0.000784247
0.00293117
-0.000584806
0.00332371
-0.000268818
0.00359873
6.33121e-05
0.00374246
0.000357798
0.00374531
0.000593622
0.00360496
0.00076452
0.00332999
0.000865179
0.00294361
0.000888036
0.00248243
0.000829522
0.00198607
0.000701403
0.00149684
0.00051969
0.00103654
0.000327939
0.000603713
0.000171236
0.000175185
7.11869e-05
-0.000276593
1.1567e-05
-0.000768268
-3.88412e-05
-0.00129988
-9.997e-05
-0.00185376
-0.000170347
-0.00239098
-0.000235753
-0.00284717
-0.000283008
-0.00314832
-0.000308865
-0.00325427
-0.000320168
-0.00318847
-0.000326694
-0.00302018
-0.000326357
-0.0028111
-0.000318068
-0.00259503
-0.000303325
-0.00239027
-0.000280955
-0.00220536
-0.000250982
-0.00204504
-0.000214917
-0.00191165
-0.000175377
-0.00180509
-0.000135758
-0.00172931
-9.4877e-05
-0.00168244
-5.69234e-05
-0.00165872
-2.50571e-05
-0.00165014
-1.89809e-06
-0.0016494
1.30829e-05
-0.00165035
2.07913e-05
-0.00164839
2.248e-05
-0.00164052
1.94271e-05
-0.00162507
1.26248e-05
-0.00160117
2.44251e-06
-0.00156805
-1.13468e-05
-0.00152603
-2.81096e-05
-0.00147412
-4.9763e-05
-0.0014125
-7.56789e-05
-0.00134152
-0.000106173
-0.0012591
-0.000141266
-0.00116631
-0.000180937
-0.0010637
-0.000224932
-0.000952092
-0.000272798
-0.000832596
-0.000323913
-0.000706698
-0.000377505
-0.000576273
-0.000432675
-0.000443559
-0.000488422
-0.000311083
-0.000543675
-0.000181561
-0.000597343
-5.77164e-05
-0.000648379
5.79346e-05
-0.000695859
0.000163284
-0.000739052
0.000256904
-0.000777532
0.000338195
-0.00081121
0.000407424
-0.000840344
0.000465613
-0.000865498
0.000514301
-0.000887444
0.000555266
-0.00090704
0.000590277
-0.000925117
0.000620931
-0.000942395
0.000648566
-0.000959433
0.000674221
-0.000976616
0.00069863
-0.000994167
0.000722233
-0.00101218
0.000745234
-0.00103066
0.000767674
-0.00104952
0.000789521
-0.00106866
0.000810784
-0.00108802
-0.0011082
0.000831791
0.000115964
-0.000273545
0.000106298
-0.000477772
-0.00029725
-0.000346632
-0.000943898
-0.000137598
-0.00154123
1.25286e-05
-0.00193628
0.000126226
-0.00207758
0.000204612
-0.00196489
0.000245112
-0.00162894
0.000257673
-0.00112985
0.000265427
-0.000548897
0.000284228
3.39313e-05
0.000305208
0.000562761
0.000300691
0.00100269
0.000261478
0.00132486
0.000197512
0.00153971
0.000113089
0.00167256
3.83923e-05
0.00174913
-5.38755e-06
0.0017752
-1.44997e-05
0.00173772
-1.35798e-06
0.00162223
1.55175e-05
0.00142923
2.2652e-05
0.00117793
1.55489e-05
0.000899153
-4.23412e-06
0.000623439
-3.315e-05
0.000370618
-6.73471e-05
0.000146266
-0.000102342
-4.69144e-05
-0.000133177
-0.000209638
-0.000155345
-0.000347251
-0.000165712
-0.000464293
-0.000163913
-0.000563764
-0.000151512
-0.000647902
-0.000130779
-0.000719447
-0.000103831
-0.00078267
-7.25352e-05
-0.000838998
-3.85496e-05
-0.000891522
-4.39897e-06
-0.000938688
2.21087e-05
-0.000980502
3.9915e-05
-0.00102001
5.25914e-05
-0.00105687
5.76542e-05
-0.00109024
5.58441e-05
-0.00111877
4.79575e-05
-0.00114089
3.4741e-05
-0.00115507
1.66232e-05
-0.00116015
-6.25801e-06
-0.00115433
-3.39375e-05
-0.00113733
-6.67622e-05
-0.00110875
-0.000104257
-0.00106844
-0.000146482
-0.00101666
-0.000193049
-0.000954056
-0.00024354
-0.00088158
-0.000297408
-0.000800408
-0.00035397
-0.000711899
-0.000412422
-0.000617565
-0.000471839
-0.000519046
-0.000531194
-0.000418079
-0.00058939
-0.000316448
-0.000645307
-0.000215922
-0.00069787
-0.000118171
-0.000746131
-2.46729e-05
-0.000789357
6.33804e-05
-0.000827105
0.000145123
-0.000859276
0.000220044
-0.000886132
0.000287965
-0.000908264
0.000348991
-0.000926524
0.000403474
-0.000941926
0.000451968
-0.000955534
0.000495192
-0.000968341
0.000533974
-0.000981176
0.000569175
-0.000994634
0.000601616
-0.00100906
0.000632004
-0.00102456
0.000660897
-0.00104107
0.000688692
-0.00105845
0.000715644
-0.00107647
0.000741916
-0.00109493
0.000767648
-0.00111375
-0.00113351
0.000792959
6.62839e-05
-0.000339829
0.000154164
-0.000565653
0.000274391
-0.000466858
0.0005018
-0.000365007
0.000889873
-0.000375545
0.00144208
-0.00042598
0.0021234
-0.000476714
0.00288194
-0.000513421
0.00366452
-0.000524914
0.00442361
-0.000493655
0.00511782
-0.000409989
0.00570939
-0.000286357
0.00615571
-0.000145636
0.00643164
-1.44515e-05
0.0065334
9.57552e-05
0.00646559
0.000180899
0.00625458
0.000249403
0.00594074
0.000308455
0.00556512
0.000361118
0.00515775
0.00040601
0.00473368
0.000439586
0.00429794
0.000458395
0.00385296
0.000460534
0.0034027
0.000446018
0.00295278
0.000416779
0.00250895
0.000376481
0.00207666
0.000329942
0.00166043
0.00028306
0.00126396
0.000241119
0.000890504
0.000207746
0.00054277
0.000183821
0.00022395
0.000167309
-6.24558e-05
0.000155626
-0.000313359
0.000147073
-0.000526661
0.000140766
-0.000701255
0.000136045
-0.000837923
0.00013227
-0.000944003
0.00012819
-0.00102643
0.000122346
-0.00108778
0.000113938
-0.00113246
0.000102339
-0.00116371
8.70916e-05
-0.00118349
6.77317e-05
-0.00119246
4.3712e-05
-0.00119164
1.58034e-05
-0.00118153
-1.63589e-05
-0.00116249
-5.29792e-05
-0.00113521
-9.4043e-05
-0.00109996
-0.000139508
-0.0010572
-0.000189241
-0.00100727
-0.000242974
-0.00095048
-0.000300332
-0.000887105
-0.000360782
-0.00081746
-0.000423616
-0.000741937
-0.000487945
-0.000661064
-0.000552711
-0.000575542
-0.000616716
-0.000486263
-0.000678668
-0.000394314
-0.000737255
-0.000300948
-0.000791236
-0.000207531
-0.000839548
-0.000115466
-0.000881421
-2.60953e-05
-0.000916475
5.94021e-05
-0.000944772
0.000140097
-0.000966827
0.000215367
-0.000983534
0.000284902
-0.000996059
0.000348665
-0.00100569
0.000406819
-0.00101369
0.000459647
-0.00102117
0.000507493
-0.00102902
0.000550731
-0.00103787
0.000589761
-0.00104809
0.000625022
-0.00105982
0.000656992
-0.00107304
0.000686183
-0.00108764
0.000713119
-0.00110341
0.000738309
-0.00112012
0.000762201
-0.00113765
-0.00115626
0.000784947
-0.000549431
0.000209602
-0.00141803
0.000302942
-0.00201642
0.000131536
-0.00221626
-0.00016517
-0.0021659
-0.000425898
-0.00202192
-0.000569961
-0.00192304
-0.000575599
-0.00194643
-0.000490025
-0.00209286
-0.000378492
-0.002304
-0.000282507
-0.00249708
-0.000216915
-0.00260426
-0.000179177
-0.00259235
-0.000157547
-0.00246332
-0.00014348
-0.00224214
-0.000125424
-0.00196391
-9.73324e-05
-0.00165764
-5.68579e-05
-0.00134545
-3.73492e-06
-0.0010437
5.93663e-05
-0.000764955
0.000127261
-0.000519131
0.000193763
-0.000314124
0.000253388
-0.000155574
0.000301984
-4.57724e-05
0.000336217
1.64681e-05
0.000354538
3.47831e-05
0.000358166
1.54477e-05
0.000349278
-3.3853e-05
0.000332361
-0.000106948
0.000314214
-0.00019747
0.000298268
-0.000298467
0.000284818
-0.000403208
0.00027205
-0.000505208
0.000257625
-0.000598409
0.000240274
-0.000677967
0.000220325
-0.000741035
0.000199112
-0.000786865
0.0001781
-0.000816858
0.000158182
-0.000833915
0.000139403
-0.000841124
0.000121146
-0.0008414
0.000102615
-0.000837052
8.27427e-05
-0.000829855
6.05349e-05
-0.000821033
3.4889e-05
-0.000808679
3.44913e-06
-0.000797188
-2.78498e-05
-0.000784898
-6.52691e-05
-0.000770518
-0.000108424
-0.00075313
-0.000156896
-0.000731806
-0.000210565
-0.000705601
-0.00026918
-0.00067366
-0.000332273
-0.00063531
-0.000399133
-0.000590133
-0.000468793
-0.000538014
-0.000540063
-0.000479154
-0.000611572
-0.000414044
-0.000681827
-0.000343429
-0.000749283
-0.000268277
-0.000812407
-0.000189748
-0.000869766
-0.000109165
-0.000920131
-2.79627e-05
-0.000962624
5.24047e-05
-0.000996842
0.000130579
-0.00102295
0.000205421
-0.00104167
0.00027609
-0.0010542
0.000342064
-0.00106203
0.000403086
-0.00106671
0.000459081
-0.00106968
0.000510059
-0.00107215
0.000556067
-0.00107503
0.000597188
-0.00107899
0.000633569
-0.00108447
0.000665469
-0.00109172
0.000693282
-0.00110086
0.000717541
-0.0011119
0.000738886
-0.00112476
0.000758011
-0.00113925
0.000775555
-0.00115519
-0.00117254
0.000791831
-0.000172728
0.00038233
-0.00039476
0.000524974
-0.000479259
0.000216036
-0.000461003
-0.000183427
-0.000442108
-0.000444793
-0.000481178
-0.000530892
-0.000594366
-0.00046241
-0.000760686
-0.000323706
-0.000957425
-0.000181753
-0.00116357
-7.63637e-05
-0.00136732
-1.31589e-05
-0.00156291
1.64112e-05
-0.0017461
2.56386e-05
-0.00192006
3.04843e-05
-0.00207928
3.37891e-05
-0.00221716
4.05544e-05
-0.00233355
5.95278e-05
-0.00242538
8.81021e-05
-0.00248915
0.000123131
-0.00252323
0.000161341
-0.00252912
0.000199655
-0.00251113
0.000235396
-0.00247532
0.000266169
-0.00242834
0.000289238
-0.00237498
0.000301177
-0.00231391
0.000297103
-0.00223663
0.000271999
-0.00212836
0.00022409
-0.00197619
0.000162036
-0.00178184
0.000103921
-0.00156225
6.52287e-05
-0.00133957
4.93724e-05
-0.00113162
4.96738e-05
-0.000948801
5.74548e-05
-0.000795256
6.6779e-05
-0.000670902
7.47582e-05
-0.000573056
8.02538e-05
-0.000497795
8.2922e-05
-0.000440951
8.2559e-05
-0.000398694
7.88903e-05
-0.000367617
7.15376e-05
-0.000345134
6.02606e-05
-0.000329379
4.47798e-05
-0.000319294
2.48039e-05
-0.000316158
3.12972e-07
-0.000313911
-3.00969e-05
-0.000313038
-6.61421e-05
-0.000313025
-0.000108436
-0.000312569
-0.000157352
-0.000310148
-0.000212986
-0.000304236
-0.000275092
-0.000293486
-0.000343024
-0.00027688
-0.000415739
-0.000253821
-0.000491852
-0.000224137
-0.000569747
-0.000188007
-0.000647702
-0.000145831
-0.000724003
-9.81171e-05
-0.000796998
-4.54247e-05
-0.000865099
1.15843e-05
-0.000926774
7.20636e-05
-0.00098061
0.000134878
-0.00102544
0.000198617
-0.00106058
0.000261711
-0.00108604
0.000322645
-0.0011026
0.000380183
-0.00111174
0.000433511
-0.00111536
0.00048226
-0.00111546
0.000526415
-0.00111384
0.000566168
-0.0011119
0.000601776
-0.00111064
0.000633481
-0.0011107
0.0006615
-0.00111249
0.000686055
-0.00111627
0.000707429
-0.00112223
0.000725991
-0.00113046
0.0007422
-0.00114096
0.000756575
-0.00115362
0.000769619
-0.00116823
-0.00118462
0.000781702
0.000644482
-0.000262152
0.00169563
-0.000526174
0.00262963
-0.000717968
0.00337038
-0.000924169
0.00395182
-0.00102623
0.00442273
-0.0010018
0.00486182
-0.000901502
0.00532293
-0.000784817
0.00581501
-0.00067383
0.00630516
-0.000566516
0.00675188
-0.000459885
0.00712758
-0.000359288
0.00742452
-0.000271296
0.0076523
-0.000197297
0.00782086
-0.000134766
0.00794236
-8.09456e-05
0.00803777
-3.58858e-05
0.00810929
1.65765e-05
0.00815355
7.88732e-05
0.00815681
0.000158084
0.00809913
0.000257329
0.00796544
0.000369093
0.00773901
0.000492599
0.0074036
0.00062465
0.00694644
0.000758335
0.00636248
0.000881058
0.0056602
0.000974283
0.00486674
0.00101755
0.00402909
0.00099968
0.00320774
0.000925272
0.00246165
0.000811324
0.00183311
0.000677909
0.00134039
0.000542394
0.000979147
0.000418699
0.000729696
0.00031623
0.000568298
0.000236156
0.000475151
0.000173401
0.000430813
0.000127261
0.000420077
9.32949e-05
0.00043155
6.74171e-05
0.000456713
4.63741e-05
0.000486695
3.02788e-05
0.000514993
1.64812e-05
0.000537033
2.76358e-06
0.000550341
-1.29946e-05
0.000553332
-3.30887e-05
0.000546483
-5.92934e-05
0.000531506
-9.34595e-05
0.000510819
-0.000136664
0.00048715
-0.000189317
0.000463139
-0.000251081
0.000441027
-0.000320911
0.000422449
-0.000397162
0.000408359
-0.000477762
0.000399073
-0.00056046
0.000394485
-0.000643114
0.000394392
-0.000723909
0.000398774
-0.000801379
0.000407889
-0.000874215
0.000422111
-0.000940997
0.000441566
-0.00100006
0.000465806
-0.00104968
0.000493667
-0.00108844
0.000523404
-0.00111578
0.000553058
-0.00113226
0.000580892
-0.00113958
0.00060574
-0.00114021
0.00062714
-0.00113686
0.000645243
-0.00113194
0.000660585
-0.00112724
0.000673819
-0.00112387
0.000685535
-0.00112241
0.000696171
-0.00112312
0.000706027
-0.00112613
0.000715307
-0.00113151
0.000724177
-0.00113933
0.000732791
-0.00114958
0.000741309
-0.00116214
0.000749872
-0.0011768
-0.0011933
0.000758557
-9.31625e-05
-0.000168989
-0.000414827
-0.000204511
-0.00107645
-5.63409e-05
-0.00200229
1.66899e-06
-0.00301634
-1.21849e-05
-0.00394856
-6.95776e-05
-0.00465663
-0.000193438
-0.00504713
-0.000394313
-0.00509787
-0.000623096
-0.00487775
-0.000786635
-0.00452711
-0.00081052
-0.00418582
-0.000700579
-0.00393069
-0.000526426
-0.00377381
-0.000354177
-0.00369697
-0.000211607
-0.00367402
-0.000103891
-0.00367831
-3.15971e-05
-0.0036732
1.14658e-05
-0.00363992
4.55899e-05
-0.00357445
9.26169e-05
-0.00348011
0.000162984
-0.00336274
0.000251726
-0.00321356
0.000343423
-0.0030305
0.000441583
-0.00281321
0.000541043
-0.00255467
0.000622525
-0.00226881
0.000688416
-0.0019775
0.000726248
-0.00170155
0.00072373
-0.00145348
0.000677201
-0.00123384
0.000591681
-0.00103533
0.000479402
-0.000850817
0.000357881
-0.000675808
0.00024369
-0.000504342
0.000144764
-0.000333059
6.48733e-05
-0.000162253
2.59478e-06
1.24824e-05
-4.74748e-05
0.000187701
-8.19238e-05
0.000359055
-0.000103937
0.000525801
-0.000120372
0.00068705
-0.00013097
0.00083955
-0.000136019
0.000979115
-0.000136801
0.00110148
-0.000135363
0.00120281
-0.000134417
0.00128064
-0.000137126
0.0013339
-0.000146716
0.00136318
-0.000165946
0.00137058
-0.00019671
0.00135927
-0.000239781
0.00133303
-0.000294663
0.0012955
-0.000359641
0.00124983
-0.000432084
0.00119842
-0.000509051
0.00114328
-0.000587977
0.00108648
-0.00066711
0.00103051
-0.000745409
0.000978229
-0.000821934
0.000932356
-0.000895125
0.000894782
-0.000962491
0.000866054
-0.00102095
0.000845279
-0.00106767
0.000830454
-0.00110095
0.000819082
-0.00112088
0.000808858
-0.00112935
0.000798192
-0.00112954
0.000786438
-0.00112511
0.000773793
-0.0011193
0.000760986
-0.00111443
0.000748912
-0.0011118
0.000738354
-0.00111186
0.000729837
-0.00111461
0.000723619
-0.00111991
0.000719735
-0.00112763
0.000718072
-0.00113767
0.000718429
-0.00114994
0.000720568
-0.00116428
0.000724235
-0.00118046
-0.0011982
0.00072913
-0.000606282
0.000437293
-0.00166467
0.000853874
-0.00285757
0.00113656
-0.00419913
0.00134322
-0.00564479
0.00143348
-0.00709048
0.00137611
-0.00841807
0.00113415
-0.00950701
0.000694623
-0.0102474
0.000117341
-0.0106123
-0.000421737
-0.0107065
-0.000716375
-0.0107108
-0.000696258
-0.0107421
-0.000495105
-0.0107992
-0.000297095
-0.0108327
-0.000178163
-0.0108113
-0.000125277
-0.0107287
-0.000114211
-0.01058
-0.000137203
-0.0103318
-0.000202635
-0.00998109
-0.000258051
-0.00953206
-0.000286051
-0.00899238
-0.000287951
-0.00837572
-0.000273243
-0.00769452
-0.000239613
-0.00696282
-0.000190658
-0.00620384
-0.000136449
-0.0054267
-8.87279e-05
-0.0046456
-5.48516e-05
-0.00388504
-3.68316e-05
-0.00317474
-3.30957e-05
-0.00254184
-4.12248e-05
-0.00200317
-5.92682e-05
-0.00156048
-8.48011e-05
-0.00120152
-0.000115277
-0.000907853
-0.0001489
-0.000658384
-0.000184595
-0.000434777
-0.000221013
-0.000225778
-0.000256474
-1.88952e-05
-0.000288806
0.000193136
-0.000315968
0.000409174
-0.000336409
0.000627188
-0.000348984
0.000844357
-0.000353188
0.00105712
-0.000349568
0.00126133
-0.00033957
0.0014522
-0.000325286
0.00162451
-0.00030944
0.00177321
-0.000295412
0.00189374
-0.00028647
0.00198256
-0.000285536
0.00203742
-0.00029464
0.0020575
-0.000314739
0.0020436
-0.000345746
0.00199849
-0.000386973
0.00192703
-0.000437592
0.00183601
-0.000496953
0.00173342
-0.000564517
0.0016273
-0.000639294
0.00152448
-0.000719112
0.0014296
-0.000800243
0.00134483
-0.000877726
0.00127021
-0.000946325
0.00120427
-0.00100173
0.00114488
-0.00104156
0.0010899
-0.00106591
0.00103774
-0.00107719
0.000987644
-0.00107945
0.000939702
-0.00107717
0.000894633
-0.00107423
0.000853402
-0.0010732
0.000816872
-0.00107527
0.00078558
-0.00108056
0.00075968
-0.00108871
0.000738999
-0.00109923
0.000723138
-0.00111177
0.000711572
-0.0011261
0.000703733
-0.0011421
0.000699064
-0.00115961
0.000697043
-0.00117844
-0.0011983
0.000697151
0.000341079
9.62144e-05
0.000942505
0.000252448
0.00164683
0.000432238
0.00234805
0.000642002
0.00292374
0.000857792
0.0032664
0.00103345
0.00329526
0.00110529
0.00295196
0.00103793
0.00223509
0.000834214
0.00123174
0.00058161
8.01007e-05
0.000435263
-0.00110828
0.000492124
-0.00229037
0.000686981
-0.00346194
0.000874473
-0.00461688
0.000976785
-0.00573408
0.000991916
-0.00677925
0.000930964
-0.00772043
0.000803974
-0.00854178
0.000618713
-0.00914918
0.000349355
-0.0094458
1.05701e-05
-0.00942179
-0.000311964
-0.00913729
-0.000557745
-0.00865872
-0.000718183
-0.00804011
-0.000809265
-0.00732899
-0.000847574
-0.00657068
-0.00084704
-0.00580624
-0.000819284
-0.0050683
-0.000774775
-0.00437865
-0.000722746
-0.00374981
-0.000670068
-0.00318741
-0.000621668
-0.00269134
-0.000580865
-0.00225664
-0.000549974
-0.00187533
-0.000530214
-0.00153842
-0.000521508
-0.00123699
-0.000522443
-0.000963151
-0.000530311
-0.00071038
-0.000541578
-0.000473754
-0.000552594
-0.000250098
-0.000560065
-3.74996e-05
-0.000561582
0.000165376
-0.000556063
0.000359369
-0.000543562
0.000545004
-0.000525205
0.000722488
-0.00050277
0.000891407
-0.000478359
0.00105019
-0.00045419
0.00119617
-0.000432452
0.00132581
-0.00041518
0.00143527
-0.000404104
0.0015214
-0.000400869
0.00158262
-0.000406961
0.00161941
-0.00042376
0.00163427
-0.000452456
0.00163107
-0.000493751
0.00161391
-0.000547356
0.00158609
-0.000611481
0.00154966
-0.000682675
0.00150552
-0.000756103
0.00145407
-0.000826279
0.00139576
-0.000888013
0.0013314
-0.000937377
0.00126231
-0.00097247
0.00119022
-0.000993811
0.0011172
-0.00100417
0.00104552
-0.00100777
0.000977435
-0.00100908
0.000914868
-0.00101166
0.000859198
-0.00101753
0.000811138
-0.00102721
0.000770781
-0.00104021
0.000737751
-0.00105568
0.000711387
-0.00107286
0.000690897
-0.00109128
0.000675465
-0.00111067
0.000664315
-0.00113095
0.000656743
-0.00115204
0.000652136
-0.00117384
-0.00119614
0.000649974
0.00037863
-0.000282415
0.00105381
-0.000422728
0.00179345
-0.000307408
0.00244251
-7.06098e-06
0.00296491
0.0003354
0.00339682
0.00060154
0.00373865
0.000763458
0.00393769
0.000838885
0.00393122
0.000840686
0.00371932
0.000793517
0.00341391
0.000740673
0.00318469
0.000721339
0.00312917
0.000742504
0.00322358
0.000780065
0.00339592
0.000804443
0.00359078
0.000797057
0.00376819
0.000753554
0.00388895
0.000683214
0.00392125
0.000586417
0.00383293
0.000437669
0.00359527
0.000248236
0.00321663
6.66746e-05
0.00274153
-8.2651e-05
0.00221819
-0.000194842
0.00169243
-0.000283508
0.00120778
-0.000362924
0.000803485
-0.00044274
0.000506907
-0.000522707
0.000326848
-0.000594717
0.000254459
-0.000650358
0.000271054
-0.000686663
0.000354555
-0.000705169
0.000483216
-0.000709526
0.000637414
-0.000704172
0.000800781
-0.000693581
0.000960689
-0.000681416
0.00110767
-0.000669427
0.00123464
-0.000657279
0.00133663
-0.000643563
0.00141006
-0.000626027
0.00145274
-0.000602744
0.0014636
-0.000572445
0.00144328
-0.000535739
0.00139473
-0.000495011
0.00132345
-0.000453925
0.00123742
-0.000416748
0.00114626
-0.000387191
0.00105968
-0.000367613
0.000985976
-0.000358748
0.000930675
-0.000359879
0.000896359
-0.000369788
0.000883084
-0.000387594
0.000889374
-0.00041325
0.00091285
-0.000447236
0.000950263
-0.000489869
0.000997224
-0.000540712
0.0010482
-0.000598334
0.00109701
-0.000660284
0.00113761
-0.000723283
0.00116507
-0.000783561
0.00117611
-0.000837316
0.00116938
-0.000881284
0.00114539
-0.000913391
0.00110629
-0.00093336
0.0010555
-0.000943023
0.000997328
-0.000946001
0.000936307
-0.00094675
0.000876515
-0.000949288
0.00082104
-0.000956186
0.000771759
-0.000968252
0.000729445
-0.000984896
0.000694087
-0.00100485
0.000665219
-0.00102681
0.000642178
-0.00104982
0.000624249
-0.00107335
0.000610728
-0.00109715
0.000600957
-0.00112118
0.000594333
-0.00114541
0.000590332
-0.00116983
-0.00119435
0.000588542
-0.000415561
0.000133146
-0.000911085
7.27949e-05
-0.00119266
-2.58287e-05
-0.00140266
0.000202936
-0.00169071
0.000623451
-0.00202657
0.000937398
-0.00233517
0.00107206
-0.00258224
0.00108596
-0.00277414
0.00103258
-0.0029211
0.000940482
-0.00300994
0.000829509
-0.00300591
0.00071731
-0.00287552
0.000612112
-0.00260808
0.000512625
-0.00221406
0.000410428
-0.00171228
0.000295271
-0.00111857
0.000159841
-0.000437635
2.28361e-06
0.000319054
-0.000170273
0.00110605
-0.000349324
0.00185129
-0.000497005
0.00252647
-0.000608504
0.00312952
-0.000685701
0.00366961
-0.000734932
0.00415075
-0.000764655
0.00457222
-0.00078439
0.004931
-0.000801526
0.00522797
-0.000819668
0.00547137
-0.000838119
0.00567391
-0.000852898
0.00584496
-0.000857715
0.00598772
-0.000847929
0.00610021
-0.000822014
0.00617743
-0.000781393
0.00621272
-0.000728872
0.00619865
-0.000667345
0.00612886
-0.000599641
0.00599902
-0.000527433
0.00580849
-0.00045303
0.00556193
-0.00037947
0.00527132
-0.000312138
0.00494284
-0.000243964
0.00458711
-0.000180004
0.0042172
-0.000125104
0.00384574
-8.24667e-05
0.00348447
-5.54726e-05
0.00314174
-4.44646e-05
0.00282247
-4.83471e-05
0.00253705
-7.33279e-05
0.00229098
-0.000113805
0.00208848
-0.000167294
0.00193024
-0.00022935
0.00181315
-0.000296164
0.001731
-0.000365082
0.00167535
-0.000434221
0.00163669
-0.000502048
0.00160544
-0.000567087
0.00157297
-0.000627815
0.00153235
-0.000682661
0.00147889
-0.000730107
0.00141048
-0.0007689
0.00132759
-0.000798399
0.00123318
-0.000818978
0.00113212
-0.0008323
0.00103033
-0.000841238
0.000933631
-0.000849298
0.000846596
-0.000859715
0.000771909
-0.000874601
0.000710273
-0.00089455
0.000660871
-0.000918849
0.000622055
-0.00094608
0.000591968
-0.00097476
0.000568921
-0.00100376
0.00055153
-0.00103243
0.000538706
-0.00106052
0.00052958
-0.00108803
0.00052345
-0.00111505
0.000519741
-0.0011417
0.000517996
-0.00116809
-0.00119425
0.000517895
7.00096e-05
6.3136e-05
0.00010468
3.81247e-05
0.000135698
-5.68466e-05
0.000296366
4.22677e-05
0.000592291
0.000327526
0.000918064
0.000611625
0.00120733
0.000782795
0.00145094
0.00084234
0.00164054
0.000842986
0.00176951
0.000811509
0.00183578
0.000763239
0.00184556
0.000707529
0.00181373
0.000643942
0.00175817
0.000568183
0.00169302
0.000475584
0.00162159
0.000366699
0.00153227
0.000249164
0.0014004
0.000134152
0.00119687
3.32552e-05
0.000891604
-4.40555e-05
0.000488057
-9.34583e-05
-1.03621e-05
-0.000110084
-0.000588842
-0.000107221
-0.00121112
-0.000112655
-0.00182108
-0.000154691
-0.00235604
-0.000249429
-0.00277775
-0.000379821
-0.00308934
-0.000508082
-0.00332023
-0.000607229
-0.00350078
-0.000672347
-0.00364829
-0.000710207
-0.00376924
-0.000726973
-0.00386575
-0.000725511
-0.00393787
-0.000709268
-0.00398313
-0.000683611
-0.00399633
-0.000654144
-0.00397121
-0.000624766
-0.00390105
-0.000597588
-0.00378099
-0.000573094
-0.00360931
-0.000551147
-0.00339177
-0.000529682
-0.00312759