/*--------------------------------*- C++ -*----------------------------------*\
| =========                 |                                                 |
| \\      /  F ield         | OpenFOAM: The Open Source CFD Toolbox           |
|  \\    /   O peration     | Version:  2012                                  |
|   \\  /    A nd           | Website:  www.openfoam.com                      |
|    \\/     M anipulation  |                                                 |
\*---------------------------------------------------------------------------*/
FoamFile
{
    version     2.0;
    format      ascii;
    class       volScalarField;
    location    "0.07";
    object      p;
}
// * * * * * * * * * * * * * * * * * * * * * * * * * * * * * * * * * * * * * //

dimensions      [0 2 -2 0 0 0 0];


internalField   nonuniform List<scalar> 
42400
(
-14469.4
-14022.8
-13461.8
-12750.7
-11806.2
-10634.3
-9265.27
-7773.98
-6277.62
-4905.83
-3754.96
-2862.6
-2216.58
-1779.78
-1511.27
-1370.63
-1313.56
-1297.96
-1296.91
-1303.61
-1322.51
-1346.01
-1357.32
-1340.59
-1292.27
-1226.4
-1162.76
-1114.58
-1083.46
-1062.42
-1042.71
-1017.11
-980.529
-930.455
-867.492
-794.419
-715.07
-633.776
-554.965
-481.573
-415.4
-357.027
-305.851
-260.98
-221.499
-186.624
-155.82
-128.767
-105.431
-85.9179
-69.7329
-56.6101
-46.2941
-38.4437
-32.6456
-28.472
-25.5051
-23.3623
-21.7232
-20.357
-19.1495
-18.0865
-17.2035
-16.5097
-16.1264
-16.0495
-16.1986
-16.4375
-16.5972
-16.5024
-15.9987
-14.9749
-13.383
-11.2497
-8.67245
-5.7989
-2.79117
0.203953
3.02772
5.70696
9942.65
9722.36
9440.24
9065.2
8563.36
7973.6
7312.46
6601.55
5871.02
5155.35
4483.07
3866.4
3300.69
2769.92
2254.25
1740.84
1243.24
812.853
503.489
314.354
202.8
127.924
62.27
-6.88998
-78.605
-145.155
-201.013
-245.569
-281.671
-312.283
-339.362
-364.307
-387.592
-408.988
-428.319
-445.041
-457.857
-464.92
-464.083
-454.079
-434.103
-404.913
-368.055
-325.291
-278.577
-230.337
-183.127
-139.096
-99.8412
-66.2347
-38.6623
-17.1844
-1.248
9.59574
16.5531
20.6126
22.64
23.3215
23.1486
22.4436
21.3659
19.9643
18.2175
16.0045
13.321
10.2209
6.84611
3.43629
0.288431
-2.2898
-4.02578
-4.72939
-4.32929
-2.89028
-0.604919
2.24234
5.33409
8.37879
11.1284
13.5694
1783.99
1821.61
1895.01
2005.73
2152.19
2316.29
2490.46
2671.48
2857.14
3043.65
3224.36
3389.56
3526
3619.01
3659.37
3645.23
3567.89
3385.6
3054.01
2625.83
2229.68
1935.16
1716.52
1531.53
1364.05
1209.78
1060.81
904.892
736.627
559.86
382.382
212.737
59.9145
-67.8941
-165.378
-228.819
-257.74
-255.694
-229.52
-187.533
-137.354
-84.275
-32.3352
15.712
58.3838
95.288
126.206
150.574
167.914
178.084
181.222
178.426
170.924
160.693
148.959
136.679
124.545
112.967
102.126
92.0323
82.596
73.6793
65.1356
56.839
48.7315
40.8261
33.2309
26.1217
19.8174
14.619
10.7935
8.51756
7.82313
8.57214
10.4643
13.083
15.9758
18.7474
21.136
23.0724
-1983.27
-1964.96
-1937.86
-1890.17
-1809.56
-1677.86
-1483.5
-1235.82
-960.389
-685.931
-441.432
-255.989
-152.205
-133.952
-181.498
-256.335
-307.481
-302.379
-256.825
-159.362
47.4894
293.931
428.091
451.543
464.523
499.004
531.56
546.354
543.423
530.672
513.459
494.381
474.508
455.397
439.84
429.286
423.629
421.627
421.618
421.876
420.813
417.371
411.032
401.302
387.967
371.21
351.544
329.778
306.894
283.963
261.891
241.331
222.625
205.629
190.215
176.105
163.013
150.7
138.981
127.721
116.826
106.226
95.8749
85.7468
75.8567
66.2764
57.1578
48.7283
41.2331
34.9759
30.205
27.0565
25.5183
25.4111
26.3982
28.0355
29.8593
31.4924
32.7326
33.5337
-3786.05
-3696.28
-3624.71
-3556.88
-3447.01
-3235.21
-2893.26
-2447.17
-1963.37
-1485.65
-1025.37
-598.225
-238.045
27.6034
196.048
285.839
320.063
306.39
232.157
104.063
-23.3509
-112.391
-191.816
-300.528
-430.872
-541.766
-597.748
-594.483
-545.165
-466.006
-369.793
-265.422
-160.126
-60.0813
29.9814
107.379
171.553
223.458
264.693
296.918
321.568
339.518
351.161
357.066
357.865
354.191
346.719
336.168
323.3
308.777
293.225
277.177
261.011
245.018
229.415
214.321
199.796
185.851
172.465
159.613
147.256
135.354
123.874
112.806
102.169
92.0401
82.539
73.8397
66.1186
59.5497
54.264
50.3068
47.6151
46.0113
45.219
44.9051
44.743
44.4848
43.9994
43.2906
438.126
261.333
33.4534
-150.304
-354.625
-553.957
-718.781
-824.928
-864.611
-810.005
-670.866
-504.397
-361.487
-263.437
-201.07
-152.508
-110.113
-81.5735
-72.2739
-77.697
-82.4238
-72.0999
-55.2556
-58.2657
-92.2584
-136.821
-151.561
-124.104
-62.1517
16.132
95.7588
165.78
220.217
258.537
284.605
303.316
317.777
329.383
338.863
346.578
352.477
356.249
357.499
356.032
351.925
345.432
336.9
326.704
315.212
302.764
289.663
276.174
262.518
248.873
235.378
222.136
209.222
196.683
184.548
172.813
161.474
150.524
139.967
129.82
120.117
110.913
102.284
94.3194
87.1052
80.7084
75.1624
70.4529
66.5143
63.2384
60.4906
58.1268
56.006
54.0067
52.0487
50.1162
13932.8
13726
13473.7
13004.9
12089.8
10820.1
9520.56
8399.81
7432.39
6600.73
5909.78
5319.77
4796.77
4324.07
3890.92
3497.27
3146.66
2836.37
2560.8
2313.4
2087.4
1876.69
1674.31
1472.97
1270.79
1074.73
896.544
744.113
618.465
514.444
424.637
342.481
266.337
201.913
157.132
135.111
133.984
150.045
180.019
217.711
256.159
289.069
312.305
324.701
327.659
323.824
315.783
305.429
293.922
281.894
269.693
257.523
245.518
233.764
222.315
211.206
200.454
190.062
180.021
170.314
160.92
151.826
143.027
134.531
126.361
118.546
111.124
104.13
97.5943
91.5374
85.9666
80.8728
76.2286
71.9925
68.125
64.6037
61.4194
58.5526
55.9607
53.5613
-8316.87
-8009.27
-7616.73
-7121.51
-6455.65
-5640.8
-4740.02
-3886.22
-3222.55
-2818.43
-2620.2
-2522.84
-2451.67
-2368.22
-2252.81
-2094.47
-1890.23
-1647.81
-1388.85
-1147.6
-962.376
-854.406
-815.191
-820.151
-846.824
-877.751
-898.081
-893.413
-852.258
-769.569
-646.831
-490.931
-314.346
-134.134
33.0727
176.431
291.74
379.503
441.194
480.954
502.777
509.499
502.101
481.622
451.435
415.942
379.398
344.923
314.147
287.502
264.753
245.423
228.943
214.74
202.309
191.24
181.231
172.06
163.553
155.572
147.999
140.742
133.743
126.971
120.417
114.09
107.998
102.144
96.5241
91.1319
85.9715
81.0717
76.489
72.2899
68.5178
65.1669
62.1844
59.4999
57.0487
54.7768
-5366
-5298.94
-5278.45
-5316.92
-5379.19
-5433.43
-5439.68
-5367.16
-5205.52
-4965.37
-4663.35
-4311.63
-3922.57
-3514.28
-3113
-2751.08
-2461.48
-2261.75
-2146.54
-2092.04
-2070.95
-2063.57
-2059.91
-2057
-2053.9
-2049.65
-2038.76
-2008.7
-1936.6
-1797.63
-1586.1
-1327.25
-1060.04
-812.081
-593.504
-405.245
-246.907
-119.109
-21.7268
48.0773
95.5097
126.252
145.285
156.05
160.582
161.154
159.793
157.801
155.782
153.886
152.107
150.375
148.54
146.427
143.915
140.995
137.767
134.35
130.82
127.194
123.455
119.574
115.533
111.336
107.008
102.589
98.1255
93.6704
89.2773
84.9998
80.8864
76.9756
73.294
69.8597
66.6876
63.7894
61.1682
58.8123
56.6931
54.78
8543.42
8471.75
8360.24
8163.77
7877.93
7521.77
7109.99
6656.12
6172.82
5676.89
5186.28
4712.68
4256.58
3806.37
3341.36
2840.44
2297.38
1735.04
1206.15
762.424
424.344
179.593
-0.462291
-145.847
-280.418
-418.787
-568.209
-730.325
-882.479
-968.347
-950.815
-856.72
-738.358
-623.175
-514.836
-411.519
-313.716
-224.506
-147.446
-84.6097
-36.0333
-0.322695
24.5914
41.1729
52.2172
59.7134
65.342
70.5772
76.3215
82.9593
90.5032
98.579
106.381
112.95
117.547
119.837
119.995
118.474
115.824
112.56
109.069
105.577
102.155
98.7904
95.4408
92.0743
88.6805
85.2706
81.8723
78.5233
75.267
72.1468
69.2005
66.4542
63.9202
61.5977
59.4777
57.5468
55.7894
54.1909
1835.08
1814.4
1802.5
1789.07
1776.05
1731.07
1635.48
1482.98
1280.55
1044.87
797.398
560.952
357.064
198.139
77.2667
-33.1574
-160.695
-305.905
-442.233
-542.431
-595.644
-603.878
-574.453
-516.487
-440.834
-356.832
-270.554
-184.059
-94.8036
-3.05651
75.2519
119.269
129.934
125.81
120.191
116.694
115.246
114.609
113.78
112.456
110.443
107.653
104.278
100.606
96.6779
93.07
90.251
88.39
87.5594
87.5858
88.2922
89.4666
90.8251
91.8733
92.2341
91.8135
90.6539
89.0325
87.2495
85.587
84.1719
82.9715
81.8684
80.7291
79.4522
77.9887
76.3363
74.5233
72.5926
70.5891
68.5529
66.5172
64.5088
62.5504
60.6636
58.8695
57.1875
55.6328
54.212
52.9223
-2449.72
-2465.77
-2473.59
-2453.4
-2369.75
-2240.64
-2074
-1875.07
-1653.16
-1422.16
-1194.19
-975.571
-768.632
-573.992
-394.98
-239.739
-117.623
-33.7156
12.5619
27.0152
19.1167
-0.77861
-23.7487
-45.1392
-62.1815
-73.482
-78.5121
-76.9921
-68.6702
-54.2341
-37.0221
-21.6232
-10.0345
-1.28011
6.02636
12.5313
18.3981
23.9355
29.0903
33.5393
37.1935
40.0786
42.3022
44.0407
45.4816
46.8417
48.3344
50.1301
52.3336
55.0702
58.2336
61.4718
64.3141
66.5199
68.0093
68.7636
68.9703
68.8824
68.7017
68.5577
68.4939
68.4751
68.4258
68.2666
67.9392
67.4163
66.6989
65.8064
64.7667
63.6091
62.3614
61.0503
59.7026
58.3463
57.0104
55.7228
54.5069
53.3785
52.3439
51.4023
-4449.38
-3999.99
-3383.4
-2729.94
-2069.9
-1545.7
-1144.01
-810.976
-515.084
-253.629
-32.7798
142.271
266.505
336.19
352.178
319.677
245.969
139.753
11.065
-129.517
-271.779
-405.984
-524.578
-621.83
-694.2
-740.394
-761.24
-758.761
-735.712
-695.21
-640.412
-574.902
-502.875
-428.556
-355.608
-286.784
-223.867
-167.83
-119.096
-77.7182
-43.4701
-15.8912
5.66845
21.9903
33.9235
42.321
47.9877
51.6428
53.8934
55.2219
55.9698
56.3465
56.4691
56.411
56.2337
56.0023
55.7909
55.6615
55.6456
55.7401
55.9176
56.1399
56.3702
56.578
56.7377
56.8277
56.8306
56.735
56.5355
56.2326
55.831
55.339
54.7676
54.1306
53.4438
52.7249
51.9927
51.2651
50.5572
49.8829
6361.75
6088.89
5766.42
5378.63
4853.2
4217.63
3484.45
2684.02
1854.01
1026.54
229.586
-511.535
-1174.8
-1743.37
-2206.63
-2559.65
-2802.61
-2940.43
-2982.7
-2942.05
-2831.81
-2667.15
-2463.08
-2234.27
-1992.81
-1748.44
-1508.94
-1280.12
-1066.32
-870.802
-695.566
-541.545
-408.998
-297.585
-206.292
-133.466
-76.992
-34.5368
-3.76526
17.5286
31.3604
39.5286
43.5915
44.8418
44.2972
42.7347
40.7446
38.7686
37.1172
35.9734
35.3973
35.346
35.7103
36.3568
37.1636
38.0403
38.9342
39.8258
40.7173
41.619
42.5386
43.4743
44.4143
45.341
46.2359
47.0818
47.8621
48.5606
49.1604
49.6453
50.0021
50.2225
50.3047
50.2544
50.0849
49.8158
49.471
49.075
48.6496
48.2161
-6702.77
-6404.11
-6013.44
-5576.6
-5078.73
-4593.98
-4146.22
-3743.35
-3380.94
-3044.22
-2714.92
-2378.43
-2028.28
-1666.39
-1299.86
-937.951
-589.81
-265.323
24.7644
272.364
472.41
622.467
722.226
774.639
785.405
761.91
712.23
644.204
564.922
480.439
395.697
314.544
239.844
173.601
116.977
70.2794
33.0588
4.33606
-17.0756
-32.2493
-41.9731
-46.7988
-47.2305
-43.9322
-37.8157
-29.9603
-21.4024
-12.9572
-5.17472
1.64994
7.42829
12.2076
16.1065
19.2719
21.8547
23.9971
25.8259
27.4481
28.9481
30.3877
31.8075
33.2305
34.6646
36.1062
37.5426
38.9551
40.321
41.6149
42.811
43.8844
44.8138
45.5832
46.1842
46.617
46.8901
47.0194
47.0261
46.9332
46.7627
46.5389
-3009.49
-2875.06
-2699.42
-2452.1
-2081.51
-1579.94
-954.264
-230.729
553.585
1353.16
2115.26
2784.64
3312.97
3669.4
3846.46
3858.22
3732.31
3502.51
3202.19
2859.86
2499.34
2140.01
1795.92
1476.26
1186.58
929.588
705.651
513.467
350.956
216.12
107.334
23.0244
-38.8605
-81.1324
-107.127
-120.449
-124.701
-123.062
-117.981
-110.974
-102.671
-93.167
-82.4563
-70.7324
-58.4749
-46.3477
-35.0496
-25.1385
-16.8835
-10.2518
-5.01244
-0.853693
2.52988
5.3914
7.91913
10.2431
12.449
14.5917
16.7062
18.8149
20.9313
23.0614
25.2034
27.3471
29.4743
31.5599
33.5742
35.4854
37.2629
38.879
40.3113
41.5435
42.5674
43.3828
43.9983
44.4299
44.7
44.8339
44.8578
44.7975
13429.6
13249.8
13018.4
12657.4
12102.5
11367.8
10481.2
9485.78
8419.34
7310.79
6184.24
5062.1
3968.42
2933.27
1999.27
1219.94
641.712
276.934
92.4466
28.1811
25.4776
46.2245
69.4001
81.8496
74.9237
45.369
-3.12154
-60.1302
-112.253
-148.909
-166.171
-166.665
-156.37
-140.986
-124.197
-108.05
-93.78
-82.0256
-72.8475
-65.8108
-60.2183
-55.3685
-50.7438
-46.0491
-41.1928
-36.2204
-31.2457
-26.3973
-21.7813
-17.4636
-13.4677
-9.78335
-6.37844
-3.20898
-0.227469
2.61145
5.34733
8.01177
10.6274
13.2077
15.758
18.2768
20.7572
23.1879
25.5544
27.8392
30.0224
32.0827
33.9981
35.7475
37.3127
38.68
39.842
40.799
41.559
42.137
42.5535
42.8316
42.9961
43.0667
-651.771
-1004.92
-1569.68
-2295.81
-3097.61
-3697.41
-3958.91
-3904.25
-3684.11
-3483.21
-3394.15
-3389.14
-3403.08
-3394.2
-3342.01
-3235.71
-3072.79
-2862.99
-2630.14
-2400.94
-2187.47
-1985.25
-1782.34
-1571.73
-1355.19
-1136.61
-919.276
-710.978
-526.992
-380.759
-274.934
-203.496
-156.79
-126.858
-108.088
-96.5532
-89.478
-84.939
-81.6585
-78.8261
-75.9513
-72.758
-69.1089
-64.9698
-60.3782
-55.4168
-50.1917
-44.8155
-39.3948
-34.0221
-28.7718
-23.6987
-18.8393
-14.2139
-9.8296
-5.68358
-1.76584
1.93803
5.4445
8.77011
11.9299
14.9359
17.7968
20.5168
23.0965
25.5311
27.8136
29.9342
31.882
33.6462
35.2183
36.5931
37.7704
38.7554
39.559
40.1965
40.6866
41.0497
41.3069
41.4723
-20739.7
-19853.6
-18769.1
-17590.6
-16185
-14612.3
-12971.9
-11411.4
-9982.75
-8631.03
-7317.59
-6089.69
-5017.88
-4128.38
-3408.57
-2832.98
-2373.16
-2001.73
-1696.63
-1444.7
-1241.27
-1085.52
-974.449
-899.313
-846.485
-802.556
-759.4
-715.683
-672.855
-630.884
-586.844
-536.302
-479.86
-421.089
-364.297
-312.642
-267.675
-229.671
-198.097
-172.006
-150.334
-132.087
-116.432
-102.728
-90.5072
-79.4482
-69.3372
-60.0355
-51.4532
-43.5287
-36.2154
-29.4731
-23.2636
-17.5484
-12.2883
-7.44413
-2.97732
1.14896
4.96891
8.51336
11.8092
14.879
17.7409
20.4087
22.8918
25.1958
27.3233
29.2746
31.0486
32.6446
34.0627
35.3054
36.3781
37.2892
38.0505
38.6756
39.1799
39.5789
39.888
40.1169
16602.1
16390
16165.4
15870.3
15456.1
14870.5
14005.2
12762.8
11182.1
9490.78
7936.76
6593.03
5398.71
4294.71
3269.45
2341.55
1537.6
877.407
368.24
4.83586
-229.829
-361.171
-416.543
-419.686
-389.026
-338.574
-279.699
-222.615
-174.867
-140.795
-121.949
-116.256
-119.45
-127.023
-135.469
-142.602
-147.247
-148.85
-147.251
-142.598
-135.289
-125.904
-115.101
-103.526
-91.7368
-80.1665
-69.1181
-58.7787
-49.2437
-40.5416
-32.6554
-25.5398
-19.1334
-13.3679
-8.17374
-3.48391
0.763529
4.62423
8.14693
11.3733
14.3382
17.0698
19.5909
21.9186
24.066
26.0425
27.8549
29.5082
31.0063
32.3534
33.554
34.6137
35.5396
36.3403
37.0253
37.6052
38.0905
38.4919
38.8191
39.0796
15939.7
15812.3
15543.8
14995.3
14182.4
13185.3
12075.5
10911.1
9746.95
8629.5
7584.92
6615.74
5708.66
4846.61
4018.94
3226.15
2475.39
1767.64
1092.89
460.632
-51.1752
-352.736
-457.59
-466.127
-448.406
-420.949
-386.859
-353.129
-325.435
-305.403
-291.662
-281.459
-271.875
-260.56
-246.192
-228.858
-210.025
-191.72
-175.388
-161.425
-149.497
-139.035
-129.552
-120.746
-112.47
-104.696
-97.4717
-90.8612
-84.8823
-79.5154
-74.8176
-70.6261
-66.8447
-63.3948
-60.2104
-57.2375
-54.4374
-51.7823
-49.2535
-46.8408
-44.5404
-42.3531
-40.2825
-38.3328
-36.5083
-34.8119
-33.2457
-31.8103
-30.5059
-29.332
-28.2875
-27.371
-26.5809
-25.9149
-25.3704
-24.9443
-24.6324
-24.4302
-24.3313
-24.3425
-14621.7
-13897.2
-12951.4
-11914.8
-10727.1
-9504.02
-8282.18
-7101.27
-5993
-4975.19
-4054.72
-3232.34
-2508.68
-1886.39
-1368.27
-952.245
-628.283
-380.611
-197.776
-68.3104
24.5422
94.5367
140.541
152.034
127.724
76.0799
8.50055
-64.9663
-136.314
-199.603
-251.293
-289.939
-315.736
-329.538
-332.233
-324.931
-309.559
-289.182
-267.15
-245.746
-225.943
-207.558
-189.885
-172.37
-154.966
-138.182
-122.824
-109.574
-98.7229
-90.1219
-83.2492
-77.7298
-73.1845
-69.3111
-65.8147
-62.5627
-59.5145
-56.622
-53.8519
-51.1891
-48.6341
-46.1953
-43.8837
-41.7105
-39.6849
-37.8129
-36.0972
-34.5378
-33.1321
-31.8761
-30.7646
-29.7924
-28.954
-28.2442
-27.658
-27.1908
-26.8379
-26.594
-26.4539
-26.4275
-1619.21
-1729.35
-1870.41
-2028.76
-2155.09
-2213.42
-2195.03
-2133.41
-2076.19
-2052.17
-2063.43
-2097.64
-2141.63
-2186.3
-2218.62
-2214.93
-2148.62
-2005.55
-1789.21
-1522.86
-1241.72
-979.967
-758.869
-583.791
-450.227
-351.192
-280.721
-234.192
-207.595
-196.967
-198.164
-206.855
-218.598
-229.059
-234.493
-232.536
-222.934
-207.615
-190.05
-173.338
-158.622
-145.718
-133.958
-122.83
-112.232
-102.427
-93.965
-86.9957
-81.5756
-77.5042
-74.4623
-72.1039
-70.0812
-68.17
-66.2896
-64.3383
-62.2313
-59.9616
-57.606
-55.1293
-52.581
-50.0273
-47.5264
-45.1293
-42.8757
-40.792
-38.8927
-37.1815
-35.6545
-34.3027
-33.1141
-32.0768
-31.1788
-30.4092
-29.7587
-29.2199
-28.7873
-28.4561
-28.2216
-28.0954
6938.55
6812.08
6640.17
6394.35
6071.65
5707.53
5323.02
4932.89
4545.97
4164.41
3786.18
3405.41
3008.23
2567.03
2048.83
1438.15
757.221
69.5496
-526.199
-934.664
-1131.86
-1175.09
-1144.61
-1086.02
-1012.6
-928.215
-837.228
-744.163
-652.347
-564.109
-481.458
-406.159
-339.532
-282.427
-234.452
-195.28
-164.057
-139.771
-121.407
-107.943
-98.3656
-91.7158
-87.134
-83.8886
-81.4337
-79.4541
-77.7164
-76.4242
-75.6132
-75.2117
-75.032
-74.865
-74.5737
-74.0172
-73.1002
-71.774
-70.0225
-67.7742
-65.0928
-62.1413
-59.0306
-55.8688
-52.7651
-49.8112
-47.0729
-44.5884
-42.3699
-40.4108
-38.6925
-37.1903
-35.8674
-34.709
-33.6929
-32.7997
-32.0155
-31.3308
-30.7389
-30.2363
-29.8199
-29.4982
-5069.64
-4772
-4377.08
-3948.12
-3455.15
-2979.48
-2547.4
-2173.42
-1854.46
-1575.59
-1322.93
-1088.13
-866.519
-660.248
-480.537
-335.721
-221.881
-123.447
-26.6316
67.4273
144.098
190.5
206.725
202.119
185.651
162.403
134.628
105.04
76.8218
52.2868
32.1974
16.0047
2.64379
-8.88923
-19.2755
-28.8222
-37.5456
-45.3316
-52.0705
-57.7324
-62.378
-66.1329
-69.1472
-71.5662
-73.527
-75.1644
-76.6045
-77.9511
-79.2438
-80.4518
-81.4916
-82.259
-82.6528
-82.5838
-81.9594
-80.7044
-78.9044
-76.5627
-73.7129
-70.4258
-66.8163
-63.0443
-59.2857
-55.7043
-52.4211
-49.4952
-46.9354
-44.7126
-42.7786
-41.0792
-39.5739
-38.2093
-36.9754
-35.8317
-34.7683
-33.7811
-32.8719
-32.0457
-31.3081
-30.6637
-2080.24
-1907.22
-1678.68
-1426.27
-1129.06
-795.517
-423.648
-37.6
332.121
666.579
956.216
1193.75
1373.07
1492.02
1554.9
1572.28
1558.16
1525.95
1484.87
1438.13
1384.4
1321.42
1248.32
1165.42
1073
970.995
861.162
746.932
633.143
524.735
425.471
337.328
260.832
195.602
140.823
95.2136
57.5083
26.6119
1.52989
-18.5969
-34.4605
-46.95
-56.6834
-64.1905
-69.9826
-74.5388
-78.2816
-81.5462
-84.5553
-87.4097
-90.1
-92.5337
-94.5666
-96.0321
-96.7765
-96.6631
-95.4718
-93.1995
-89.8688
-85.5592
-80.4397
-74.9843
-69.57
-64.5433
-60.1278
-56.3865
-53.2627
-50.6425
-48.4015
-46.4292
-44.6377
-42.9606
-41.3311
-39.7401
-38.2382
-36.7661
-35.3454
-34.0019
-32.758
-31.6241
7603.55
7302.34
6910.69
6422.35
5750.07
5053.15
4421.53
3882.82
3416.6
2994.09
2601.08
2234.82
1895.9
1584.64
1301.23
1045.9
818.994
620.979
451.846
310.694
195.833
104.317
32.8985
-21.6584
-62.4727
-92.4736
-114.139
-129.33
-138.939
-143.251
-142.615
-137.645
-129.218
-118.901
-108.135
-97.9801
-89.2469
-82.4628
-77.8285
-75.315
-74.7591
-75.5898
-77.4049
-79.8862
-82.7328
-85.7179
-88.6727
-91.4771
-94.0526
-96.3247
-98.2097
-99.6149
-100.444
-100.607
-100.021
-98.6202
-96.3604
-93.2295
-89.0545
-84.3211
-79.265
-74.1823
-69.3842
-65.1128
-61.4859
-58.4865
-56.0041
-53.8923
-52.0112
-50.2463
-48.5141
-46.7608
-44.9594
-43.1091
-41.1623
-39.2083
-37.2714
-35.3993
-33.6374
-32.0238
2654.61
2517.16
2301.95
1984.58
1544.92
1064.69
606.689
200.297
-156.099
-476.362
-770.542
-1038.64
-1273.63
-1468.61
-1621.18
-1732.41
-1803.91
-1836.83
-1832.2
-1791.69
-1718.1
-1616.11
-1492.51
-1355.18
-1211.54
-1067.55
-927.628
-795.08
-672.546
-562.227
-465.77
-383.886
-316.433
-262.329
-219.625
-186.733
-162.198
-144.624
-132.646
-124.943
-120.307
-117.688
-116.241
-115.317
-114.451
-113.341
-111.995
-110.256
-108.148
-105.738
-103.093
-100.275
-97.3297
-94.2796
-91.1233
-87.8412
-84.4111
-80.8781
-77.4303
-73.8984
-70.4475
-67.1789
-64.2513
-61.7676
-59.7273
-58.0371
-56.5562
-55.1472
-53.7072
-52.1699
-50.4973
-48.6728
-46.697
-44.585
-42.3638
-40.0794
-37.7952
-35.566
-33.462
-31.5302
-8330.31
-7925.6
-7392.5
-6766.22
-6002.76
-5162.95
-4288.43
-3443.19
-2684.94
-2040.7
-1507.67
-1070.11
-713.325
-428.353
-209.646
-51.5293
53.4376
114.177
140.391
141.784
126.92
103.307
76.8189
50.9687
27.7985
7.70237
-10.1179
-26.5566
-42.2408
-57.9659
-73.7608
-89.1078
-103.248
-115.028
-124.662
-132.588
-139.115
-144.524
-148.869
-152.035
-153.924
-154.526
-153.912
-152.194
-149.484
-145.893
-141.462
-136.469
-130.961
-125.173
-119.301
-113.477
-107.808
-102.381
-97.2679
-92.5243
-88.186
-84.27
-80.755
-77.4716
-74.3372
-71.4135
-68.6843
-66.1388
-63.7997
-61.6532
-59.6461
-57.7095
-55.7779
-53.7991
-51.7368
-49.5704
-47.2946
-44.9189
-42.4674
-39.9771
-37.4964
-35.0858
-32.8222
-30.7147
2603.93
2566.37
2500.29
2391.01
2253.74
2082.54
1872.48
1620.56
1334.29
1034.58
749.037
499.146
291.886
121.497
-22.7513
-149.495
-262.112
-359.39
-438.223
-495.523
-528.673
-535.105
-514.637
-469.604
-406.521
-335.237
-268.152
-217.989
-192.21
-187.52
-195.865
-208.157
-218.207
-223.249
-222.99
-218.497
-211.471
-203.262
-194.92
-186.915
-179.409
-172.435
-165.966
-159.95
-154.322
-148.989
-143.829
-138.75
-133.774
-128.782
-123.734
-118.656
-113.594
-108.557
-103.648
-98.9581
-94.5145
-90.3307
-86.4134
-82.7619
-79.3668
-76.2136
-73.262
-70.4926
-67.8726
-65.367
-62.9388
-60.5494
-58.1624
-55.7473
-53.2826
-50.7572
-48.1712
-45.5363
-42.8741
-40.2148
-37.5963
-35.0627
-32.6688
-30.4159
-3851.61
-3768.07
-3668.11
-3551.31
-3411.13
-3263
-3114.63
-2972.23
-2839.29
-2715.95
-2600.01
-2488.34
-2378.29
-2268.25
-2157.55
-2046.15
-1934.19
-1821.35
-1706.66
-1588.08
-1462.75
-1328.27
-1182.05
-1023.84
-857.463
-691.169
-535.329
-399.668
-289.011
-201.839
-133.777
-83.2167
-50.3704
-34.4374
-32.841
-41.937
-57.8247
-76.8023
-95.3876
-110.75
-120.93
-125.976
-126.781
-125.471
-123.973
-123.205
-123.144
-123.297
-123.124
-122.223
-120.354
-117.498
-113.811
-109.619
-105.188
-100.722
-96.4019
-92.3305
-88.5588
-85.1518
-82.029
-79.1322
-76.3568
-73.6322
-70.9415
-68.2764
-65.6201
-62.9566
-60.271
-57.5518
-54.7933
-51.9968
-49.1712
-46.3327
-43.5037
-40.7107
-37.9822
-35.3433
-32.8175
-30.4511
1499.22
1420.38
1319.63
1197.58
1042.41
874.278
705.164
546.365
407.001
293.023
207.354
149.549
116.283
102.586
103.183
113.603
130.505
150.92
172.696
193.601
211.198
223.649
231.091
233.885
232.336
226.281
215.312
199.592
178.945
151.507
117.047
77.8408
38.741
5.93136
-16.1902
-27.4545
-31.4228
-32.8341
-35.393
-40.7515
-49.1701
-60.2432
-74.2942
-90.9743
-109.186
-127.234
-143.193
-155.364
-162.66
-164.401
-160.681
-152.724
-142.091
-130.525
-119.578
-110.28
-102.978
-97.4644
-93.2105
-89.5279
-86.0312
-82.5849
-79.1797
-75.9861
-72.9368
-69.9609
-67.0241
-64.1001
-61.1714
-58.2279
-55.2668
-52.2925
-49.3173
-46.3592
-43.441
-40.588
-37.8251
-35.1704
-32.638
-30.2863
4357.76
4390.92
4474.83
4609.83
4785.41
4973.13
5141.14
5264.13
5328.08
5327.95
5263.18
5135.62
4948.08
4705.64
4416.29
4091.21
3743.54
3387.7
3034.97
2693.13
2366.26
2055.85
1762.14
1486.91
1232.65
1001.25
793.091
607.203
442.096
296.789
171.526
66.1744
-18.7966
-83.9388
-131.451
-164.718
-187.519
-203.247
-214.422
-222.509
-228.072
-231.064
-231.252
-228.621
-223.537
-216.509
-207.829
-197.482
-185.482
-172.099
-157.66
-142.607
-127.939
-114.646
-103.434
-94.6209
-88.0864
-83.3561
-79.8903
-77.3613
-75.5032
-73.9868
-72.5901
-70.9834
-69.1431
-67.0632
-64.7619
-62.2708
-59.6219
-56.8485
-53.9844
-51.0643
-48.1227
-45.1942
-42.3131
-39.5118
-36.8197
-34.26
-31.8555
-29.6586
2276.36
2115.13
1897.59
1628.84
1275.19
878.075
458.667
39.8153
-356.828
-715.65
-1028.28
-1293.05
-1510.93
-1684.25
-1815.2
-1904.27
-1949.68
-1947.52
-1894.49
-1792.01
-1647.97
-1476.35
-1294.69
-1120.09
-966.124
-841.048
-747.075
-681.192
-637.111
-607.509
-585.937
-566.529
-546.355
-524.526
-501.243
-477.018
-452.493
-428.11
-404.018
-380.166
-356.462
-332.903
-309.631
-286.901
-264.963
-243.957
-223.862
-204.552
-185.935
-168.056
-151.183
-135.776
-122.367
-111.338
-102.741
-96.2531
-91.341
-87.4703
-84.2404
-81.4022
-78.8026
-76.3324
-73.9095
-71.466
-68.9417
-66.341
-63.6596
-60.895
-58.0548
-55.1547
-52.2157
-49.2627
-46.3234
-43.4271
-40.6035
-37.8814
-35.2867
-32.8405
-30.5708
-28.5162
-6472.33
-6266.52
-6033.96
-5828.76
-5635.81
-5475.74
-5324.42
-5160.52
-4978.63
-4785.02
-4589.14
-4395.94
-4205.38
-4015.56
-3825.69
-3636.83
-3450.83
-3269.27
-3092.91
-2921.61
-2754.44
-2590.26
-2428.21
-2267.71
-2108.34
-1949.93
-1792.63
-1637.22
-1485.15
-1338.31
-1198.7
-1068.08
-947.318
-837.03
-738.43
-652.128
-577.878
-514.388
-459.807
-412.352
-370.686
-333.994
-301.832
-273.904
-249.873
-229.277
-211.518
-195.918
-181.824
-168.7
-156.208
-144.243
-132.926
-122.518
-113.273
-105.31
-98.577
-92.9044
-88.0821
-83.908
-80.2066
-76.8331
-73.671
-70.6321
-67.653
-64.6953
-61.7333
-58.7579
-55.7688
-52.7735
-49.7856
-46.8233
-43.908
-41.0631
-38.3125
-35.6787
-33.1817
-30.8383
-28.6749
-26.7047
-6602.48
-6466.66
-6299.66
-6101.03
-5831.25
-5508.22
-5132.86
-4710.53
-4249.03
-3756.02
-3241.92
-2722.21
-2217.17
-1747.55
-1329.26
-970.68
-673.827
-436.183
-254
-123.888
-41.8142
-3.16715
-1.56205
-27.8104
-70.0741
-116.527
-159.861
-198.276
-233.409
-266.939
-298.116
-323.791
-340.329
-346.724
-344.487
-338.017
-330.183
-321.63
-311.897
-300.467
-287.326
-272.956
-258.054
-243.258
-228.995
-215.453
-202.637
-190.456
-178.798
-167.583
-156.786
-146.431
-136.588
-127.351
-118.808
-111.01
-103.963
-97.6253
-91.9273
-86.782
-82.0976
-77.7856
-73.767
-69.9749
-66.3557
-62.8677
-59.4784
-56.1709
-52.9352
-49.7688
-46.675
-43.6615
-40.74
-37.924
-35.2279
-32.6658
-30.2497
-27.9909
-25.9102
-24.0159
5360.49
5298.69
5228.97
5137.34
5032.74
4915.39
4786.34
4644.42
4486.79
4308.13
4101.91
3864.18
3599.19
3320.34
3046.08
2790.8
2559.62
2349.92
2154.9
1967.16
1780.86
1593.82
1408.26
1232.16
1076.07
943.195
821.678
692.419
547.107
393.175
244.147
111.974
3.27927
-80.9272
-143.88
-190.324
-223.999
-247.418
-262.095
-269.204
-270.052
-266.061
-258.583
-248.752
-237.438
-225.266
-212.677
-199.984
-187.419
-175.158
-163.341
-152.081
-141.463
-131.545
-122.362
-113.918
-106.194
-99.1469
-92.7207
-86.8492
-81.4627
-76.4925
-71.875
-67.5555
-63.4869
-59.6266
-55.9429
-52.4137
-49.0201
-45.7528
-42.6066
-39.5808
-36.6779
-33.9032
-31.2634
-28.7661
-26.4191
-24.2317
-22.2258
-20.4249
7280.96
7216.66
7091.32
6858.13
6534
6152.79
5739.38
5306.52
4861.78
4412.27
3959.29
3498.96
3036.84
2598.1
2211.65
1890.49
1628.57
1407.66
1208.54
1017.43
826.392
631.295
431.167
230.846
43.145
-113.825
-229.884
-306.311
-351.433
-375.322
-387.49
-392.014
-389.139
-379.278
-366.122
-353.097
-341.603
-331.403
-321.614
-311.425
-300.359
-288.261
-275.203
-261.382
-247.053
-232.478
-217.908
-203.561
-189.624
-176.246
-163.539
-151.58
-140.412
-130.048
-120.479
-111.673
-103.586
-96.1667
-89.359
-83.1082
-77.3615
-72.0679
-67.1781
-62.6439
-58.4174
-54.4611
-50.7378
-47.2151
-43.8658
-40.668
-37.6051
-34.6657
-31.8437
-29.1383
-26.5538
-24.0997
-21.7888
-19.637
-17.671
-15.9529
-4448.52
-3913.91
-3213.92
-2533.76
-1889.5
-1347.57
-885.872
-473.989
-69.3739
361.825
814.343
1245.62
1602.43
1839.63
1925.55
1846.8
1613.57
1262.28
846.304
418.759
18.6727
-325.927
-589.028
-753.708
-824.324
-828.069
-797.654
-756.857
-717.975
-683.383
-651.363
-619.562
-586.884
-553.503
-520.273
-488.004
-457.133
-427.761
-399.796
-373.077
-347.458
-322.844
-299.202
-276.55
-254.944
-234.459
-215.172
-197.146
-180.428
-165.039
-150.973
-138.189
-126.625
-116.196
-106.801
-98.3358
-90.6913
-83.7665
-77.4707
-71.7267
-66.4711
-61.6538
-57.2349
-53.1793
-49.4495
-46.0063
-42.8069
-39.8053
-36.956
-34.2154
-31.5461
-28.9195
-26.3201
-23.7475
-21.2177
-18.7641
-16.4275
-14.2497
-12.2811
-10.6884
3079.64
2643.99
2059.39
1342.73
451.009
-471.689
-1322.95
-2025.92
-2555.34
-2944.76
-3261.83
-3558.28
-3831.56
-4030.85
-4101.34
-4022.55
-3826.14
-3565.36
-3277.14
-2972.8
-2650.73
-2315.49
-1984.62
-1680.93
-1420.5
-1208.15
-1041.38
-914.42
-818.934
-747.545
-693.523
-651.513
-617.118
-586.843
-558.132
-529.29
-499.341
-467.937
-435.232
-401.718
-368.06
-334.943
-302.961
-272.579
-244.14
-217.882
-193.944
-172.367
-153.113
-136.11
-121.245
-108.353
-97.2459
-87.7109
-79.5248
-72.4633
-66.3151
-60.8937
-56.047
-51.6622
-47.6693
-44.0391
-40.7916
-37.9479
-35.4631
-33.2969
-31.384
-29.6378
-27.9602
-26.2537
-24.4327
-22.4362
-20.2361
-17.843
-15.307
-12.7099
-10.152
-7.73338
-5.58531
-4.14634
-24.5956
-25.3983
-26.2585
-26.9867
-27.5583
-28.0232
-28.4181
-28.6752
-28.6234
-28.0878
-26.9429
-25.1853
-22.9457
-20.4459
-17.8847
-15.5416
-13.4958
-11.7696
-10.3269
-9.10846
-8.05622
-7.12258
-6.27342
-5.48767
-4.75476
-4.07108
-3.43674
-2.85294
-2.32064
-1.84031
-1.41212
-1.03592
-0.711164
-0.436836
-0.211314
-0.0321894
0.103893
0.200941
0.265942
0.302757
0.318042
0.317806
0.307584
0.292243
0.275813
0.261315
0.250725
0.245071
0.244515
0.248415
0.255504
0.264216
0.272977
0.280388
0.285335
0.287126
0.285553
0.280818
0.273363
0.263741
0.252544
0.240316
0.227472
0.214281
0.200924
0.187556
0.17431
0.161282
0.148555
0.136231
0.124421
0.113205
0.102615
0.0926522
0.083313
0.0745936
0.0664764
0.0589307
0.0519251
0.0454342
0.039434
0.0338978
0.028797
0.0240986
0.0197615
0.0157395
0.0119966
0.00851797
0.0053049
0.00235673
-0.000337797
-0.00279383
-0.00502204
-0.00703273
-0.00884698
-0.010498
-0.0120183
-0.0134264
-0.014726
-0.0159161
-0.0169994
-0.0179833
-0.0188784
-0.0196974
-0.020453
-0.0211521
-0.02179
-0.0223529
-0.0228288
-0.0232168
-0.0235262
-0.0237689
-0.0239555
-0.0240986
-0.0242157
-0.0243246
-0.0244323
-0.0245299
-0.0245996
-0.0246283
-0.0246145
-0.0245641
-0.0244822
-0.024369
-0.0242241
-0.0240517
-0.0238622
-0.0236696
-0.0234892
-0.0233352
-0.0232168
-0.0231305
-0.0230568
-0.0229646
-0.0228263
-0.0226297
-0.022381
-0.022094
-0.0217783
-0.0214362
-0.021069
-0.0206851
-0.0202993
-0.0199258
-0.0195702
-0.0192304
-0.0189016
-0.0185805
-0.0182618
-0.0179325
-0.017573
-0.0171662
-0.0167091
-0.0162163
-0.0157111
-0.0152116
-0.0147233
-0.0142436
-0.0137731
-0.0133236
-0.0129142
-0.0125597
-0.0122614
-0.0120064
-0.0117746
-0.011547
-0.0113101
-0.011055
-0.0107777
-0.0104802
-0.0101719
-0.00986668
-0.00957375
-0.0092896
-0.00899693
-0.00867403
-0.00830913
-0.00790952
-0.00749842
-0.00710137
-0.00673175
-0.00638544
-0.00604762
-0.00570562
-0.00535826
-0.00501505
-0.00468717
-0.00437769
-0.00407834
-0.00377469
-0.00345514
-0.0031172