/*--------------------------------*- C++ -*----------------------------------*\
| =========                 |                                                 |
| \\      /  F ield         | OpenFOAM: The Open Source CFD Toolbox           |
|  \\    /   O peration     | Version:  2012                                  |
|   \\  /    A nd           | Website:  www.openfoam.com                      |
|    \\/     M anipulation  |                                                 |
\*---------------------------------------------------------------------------*/
FoamFile
{
    version     2.0;
    format      ascii;
    class       surfaceScalarField;
    location    "0.07";
    object      phi;
}
// * * * * * * * * * * * * * * * * * * * * * * * * * * * * * * * * * * * * * //

dimensions      [0 3 -1 0 0 0 0];
oriented        oriented;


internalField   nonuniform List<scalar> 
84340
(
0.000947527
-0.000507771
-0.000439756
0.00242158
-0.000751871
-0.000722183
0.003791
-0.000627685
-0.000741731
0.00499819
-0.000445852
-0.000761344
0.00606965
-0.000296507
-0.00077495
0.00697614
-0.000171322
-0.000735169
0.00766095
-8.73465e-05
-0.000597465
0.00806448
-6.34711e-05
-0.000340054
0.00815247
-0.000114399
2.64058e-05
0.00790027
-0.000204564
0.000456762
0.00729773
-0.000269165
0.000871712
0.00635322
-0.000250452
0.00119496
0.00512718
-0.000120436
0.00134647
0.00376851
0.00011781
0.00124086
0.00250458
0.000428493
0.000835431
0.00152952
0.000735418
0.000239647
0.00087269
0.000935015
-0.000278186
0.000441522
0.00100021
-0.00056904
0.000102677
0.00099584
-0.000656995
-0.000240335
0.000988421
-0.000645409
-0.000650976
0.00099286
-0.000582218
-0.0011517
0.000990726
-0.000490006
-0.0017271
0.000959174
-0.00038377
-0.00234942
0.000896318
-0.000273999
-0.00297953
0.000807526
-0.000177416
-0.00360333
0.000741652
-0.000117855
-0.00419436
0.000710152
-0.000119121
-0.00472067
0.000702101
-0.000175784
-0.0051659
0.00069153
-0.000246301
-0.00551498
0.000656427
-0.00030735
-0.00575655
0.000588837
-0.000347271
-0.00588501
0.000492649
-0.000364191
-0.00590028
0.000376046
-0.000360768
-0.00580911
0.000249751
-0.000340924
-0.0056239
0.000124494
-0.0003097
-0.00536033
8.62089e-06
-0.000272192
-0.00503573
-9.20212e-05
-0.00023258
-0.00466646
-0.000174977
-0.0001943
-0.00428105
-0.000225201
-0.000160207
-0.00389655
-0.000252549
-0.000131952
-0.00352658
-0.000259538
-0.000110426
-0.00318036
-0.000250485
-9.57382e-05
-0.00285465
-0.00023841
-8.73007e-05
-0.00254443
-0.000225734
-8.44897e-05
-0.00224404
-0.000213759
-8.66261e-05
-0.00194899
-0.000201832
-9.32227e-05
-0.00165633
-0.000188202
-0.000104455
-0.00136606
-0.000172342
-0.000117927
-0.00108216
-0.000152815
-0.000131088
-0.000817534
-0.000117995
-0.000146628
-0.000573721
-8.19945e-05
-0.000161818
-0.000354992
-4.3861e-05
-0.000174868
-0.000164912
-5.99264e-06
-0.000184088
-5.91134e-06
2.88173e-05
-0.000187818
0.000121977
5.66042e-05
-0.000184493
0.000220657
7.40135e-05
-0.000172693
0.000293459
7.86238e-05
-0.000151426
0.000344438
6.94675e-05
-0.000120447
0.000377694
4.73262e-05
-8.05821e-05
0.000396665
1.47252e-05
-3.36972e-05
0.000402344
-2.31432e-05
1.74639e-05
0.000398743
-6.55698e-05
6.91707e-05
0.000385456
-0.000105556
0.000118843
0.000364366
-0.000144784
0.000165874
0.000333571
-0.000182466
0.000213261
0.000293405
-0.000223891
0.000264056
0.000246578
-0.000275662
0.00032249
0.000198055
-0.000343821
0.000392343
0.000154153
-0.000432001
0.000475903
0.000121277
-0.000540494
0.000573371
0.000104819
-0.000666317
0.000682774
0.000108439
-0.000803876
0.000800256
0.00013358
-0.000945803
0.000920662
0.000179526
-0.00108407
0.00103813
0.000243227
-0.00121083
0.00114713
0.000319614
-0.00131965
0.00124326
0.000402228
-0.00140658
0.00132397
0.000484103
-0.00147082
0.00138895
0.000558729
-0.00151516
0.00144054
-0.00154443
0.00148417
0.000618989
-0.000535832
2.80604e-05
-0.00115405
-0.000133652
-0.00151041
-0.000271325
-0.0016233
-0.000332957
-0.00153355
-0.000386262
-0.0012887
-0.000416175
-0.000954182
-0.000421861
-0.000610476
-0.000407178
-0.000349489
-0.000375385
-0.000225081
-0.000328973
-0.000225873
-0.000268373
-0.00029162
-0.000184704
-0.000338345
-7.37105e-05
-0.000279058
5.85221e-05
-5.09797e-05
0.000200415
0.000349098
0.00033534
0.000881084
0.000403029
0.00151501
0.000366288
0.00227681
0.000234036
0.0031358
0.000129431
0.00400303
0.000125631
0.00480202
0.000191732
0.00545717
0.000304029
0.00590106
0.000452423
0.00609756
0.000611031
0.00607826
0.000760955
0.00591019
0.00087822
0.00566306
0.000949232
0.00537542
0.000979168
0.00505557
0.000976275
0.00469544
0.000948966
0.00428447
0.000903625
0.00381678
0.000843727
0.003296
0.00077053
0.0027361
0.000684395
0.00215864
0.000586087
0.001588
0.00047862
0.00104499
0.000368029
0.000555607
0.000264182
0.000132014
0.000171045
-0.000205486
7.79619e-05
-0.000452582
-3.38864e-06
-0.000616364
-7.46278e-05
-0.000704714
-0.000137384
-0.000719998
-0.000198475
-0.000666466
-0.000255364
-0.000554057
-0.000300611
-0.000393136
-0.000333263
-0.000196326
-0.000349625
2.82043e-05
-0.000342526
0.000271711
-0.000325501
0.000517424
-0.000289574
0.000760879
-0.000249447
0.00098443
-0.000194734
0.00117761
-0.000136574
0.00133475
-8.31291e-05
0.00145326
-3.98889e-05
0.0015324
-9.66808e-06
0.00157276
6.96481e-06
0.00157617
1.13185e-05
0.00154707
5.95305e-06
0.00148772
-6.21622e-06
0.00140484
-2.26775e-05
0.00130251
-4.24494e-05
0.00119043
-7.03929e-05
0.00107548
-0.000108935
0.000965444
-0.00016563
0.000867468
-0.000245845
0.000787169
-0.000351701
0.000728314
-0.00048164
0.000692873
-0.000630876
0.000681198
-0.000792201
0.000692201
-0.000956806
0.000723252
-0.00111512
0.00077025
-0.00125783
0.000827766
-0.00137717
0.000889777
-0.00146859
0.00095103
-0.00153207
0.00100833
-0.00157246
-0.00159841
0.00106231
8.10135e-05
-5.29531e-05
0.000156651
-0.00020929
0.000225107
-0.000339781
0.000288481
-0.000396331
0.000281157
-0.000378938
0.000179483
-0.000314501
-1.14662e-05
-0.000230911
-0.000260677
-0.000157966
-0.000521624
-0.000114439
-0.000747296
-0.000103301
-0.000900995
-0.000114674
-0.000949315
-0.000136384
-0.000866045
-0.00015698
-0.000663166
-0.000144358
-0.000382142
-8.06088e-05
-7.17867e-05
2.49845e-05
0.000204465
0.000126777
0.000408727
0.000162026
0.000524863
0.0001179
0.000615685
3.86091e-05
0.000787704
-4.63877e-05
0.00110181
-0.000122371
0.00152706
-0.000121222
0.00203106
-5.15822e-05
0.00260641
3.56863e-05
0.00323641
0.000130955
0.00390599
0.000208637
0.00458986
0.000265365
0.00526913
0.000299891
0.00592732
0.000318094
0.00654881
0.000327469
0.00712029
0.000332152
0.00762853
0.000335484
0.00806949
0.000329574
0.00842123
0.000332655
0.00867106
0.00033625
0.00881228
0.000337403
0.00884573
0.000334583
0.00878191
0.000327995
0.00863535
0.000317607
0.00840944
0.00030387
0.00811867
0.000287381
0.00777625
0.0002678
0.00739415
0.000244708
0.0069775
0.000218174
0.0065331
0.000189043
0.00607381
0.000158675
0.00561075
0.000129795
0.00515575
0.000105378
0.0047253
8.79253e-05
0.00431952
8.02799e-05
0.00394818
8.17681e-05
0.00360863
9.00931e-05
0.00331037
0.000103526
0.00305511
0.000118695
0.00283945
0.000132527
0.00265677
0.000142792
0.00249894
0.000148161
0.00235776
0.000148144
0.00222621
0.000142869
0.00209944
0.000132726
0.00197542
0.000117806
0.00185552
9.72161e-05
0.00174452
6.85495e-05
0.00164642
2.77112e-05
0.00156857
-3.10801e-05
0.00151072
-0.000107787
0.00147283
-0.000207956
0.00145358
-0.000332446
0.00144985
-0.000477913
0.00145822
-0.000639239
0.00147528
-0.000809269
0.00149777
-0.000979289
0.00152227
-0.00113963
0.00154504
-0.00128059
0.00156182
-0.00139395
0.0015685
-0.00147527
0.00156239
-0.00152597
0.00154331
-0.00155339
-0.00157191
0.00151681
-2.41236e-05
-2.88292e-05
-0.000159072
-7.43409e-05
-0.000467827
-3.10271e-05
-0.000900844
3.66856e-05
-0.00143438
0.000154602
-0.00209374
0.00034486
-0.0028995
0.000574843
-0.00384126
0.000783794
-0.00486977
0.000914075
-0.00589912
0.000926049
-0.0068164
0.000802604
-0.00750867
0.000555889
-0.00789383
0.000228177
-0.00793319
-0.000104995
-0.00763256
-0.000381241
-0.00704724
-0.000560341
-0.00628672
-0.000633741
-0.00551678
-0.000607909
-0.00490487
-0.00049401
-0.00452397
-0.000342291
-0.00435031
-0.000220054
-0.00438048
-9.21986e-05
-0.00458945
8.77473e-05
-0.00485952
0.000218488
-0.00504789
0.000224058
-0.00506856
0.000151622
-0.0049047
4.47832e-05
-0.0045678
-7.15349e-05
-0.00413395
-0.000133962
-0.00363893
-0.000176923
-0.00312638
-0.000185081
-0.00262963
-0.000164597
-0.00216834
-0.000125812
-0.00175862
-8.01466e-05
-0.00138949
-3.6468e-05
-0.00105351
2.69321e-07
-0.000745141
2.903e-05
-0.000461266
5.0708e-05
-0.000199724
6.64535e-05
4.03898e-05
7.7493e-05
0.000256972
8.72879e-05
0.000449291
9.50612e-05
0.000622403
9.46885e-05
0.000776077
9.10343e-05
0.000908257
8.59947e-05
0.00101787
7.94338e-05
0.0011047
7.18418e-05
0.00117048
6.40157e-05
0.00121875
5.71063e-05
0.00125458
5.20972e-05
0.00128493
4.99323e-05
0.00131615
5.05414e-05
0.0013516
5.46412e-05
0.00139321
6.1916e-05
0.00144068
7.12325e-05
0.00149203
8.11731e-05
0.00154453
9.02911e-05
0.00159545
9.72374e-05
0.00164281
0.000100783
0.00168595
9.97344e-05
0.00172585
9.28284e-05
0.00176511
7.85382e-05
0.00180748
5.48457e-05
0.00185665
1.93863e-05
0.00191353
-2.91719e-05
0.00198011
-9.76586e-05
0.00205647
-0.000184147
0.00213867
-0.000290163
0.00222103
-0.000414797
0.00229799
-0.000554881
0.00236412
-0.000705361
0.00241434
-0.000859495
0.00244422
-0.00100917
0.00245003
-0.00114544
0.002429
-0.00125955
0.00237973
-0.00134468
0.00230309
-0.00139862
0.00220327
-0.00142615
0.00208779
-0.00143791
-0.00145231
0.00196819
0.000130584
-0.000159413
0.000449055
-0.000392812
0.000974399
-0.000556372
0.00170812
-0.000697035
0.00248263
-0.000619908
0.00311444
-0.000286947
0.00356267
0.000126609
0.00389895
0.00044751
0.00419297
0.000620064
0.00443592
0.00068309
0.00456813
0.000670402
0.00452933
0.000594682
0.00428296
0.000474549
0.00382892
0.000349043
0.00319497
0.000252705
0.00242982
0.000204813
0.00158863
0.000207452
0.000730808
0.000249911
-8.5591e-05
0.000322388
-0.000847612
0.000419729
-0.00161071
0.000543048
-0.00241302
0.00071011
-0.00321926
0.00089398
-0.00397588
0.000975112
-0.00463432
0.000882502
-0.00514445
0.000661752
-0.00549498
0.000395308
-0.005705
0.000138487
-0.00576755
-7.14104e-05
-0.005694
-0.000250472
-0.00551055
-0.000368532
-0.0052338
-0.000441344
-0.0048868
-0.000472816
-0.00450003
-0.000466919
-0.00410201
-0.00043449
-0.00371093
-0.000390808
-0.00333436
-0.000347537
-0.0029737
-0.000309955
-0.00262791
-0.000279337
-0.00229521
-0.0002552
-0.00197201
-0.00023592
-0.00165728
-0.000219662
-0.00135748
-0.000205112
-0.0010752
-0.000191246
-0.000811692
-0.000177515
-0.000568367
-0.000163891
-0.000345723
-0.000150801
-0.000143257
-0.00013845
4.06114e-05
-0.000126762
0.000208246
-0.000115537
0.000362722
-0.000104544
0.000506747
-9.3484e-05
0.000643572
-8.21832e-05
0.00077638
-7.08918e-05
0.000906843
-5.92309e-05
0.00103654
-4.85247e-05
0.00116648
-3.9653e-05
0.00129741
-3.3691e-05
0.00142972
-3.15242e-05
0.00156429
-3.48332e-05
0.00170206
-4.49387e-05
0.00184359
-6.29971e-05
0.0019904
-9.19586e-05
0.00214205
-0.000132262
0.00229869
-0.00018582
0.00245497
-0.000253932
0.00260767
-0.000336845
0.00275133
-0.000433825
0.00287944
-0.000542909
0.00298519
-0.00066063
0.00306181
-0.000781977
0.00310292
-0.000900609
0.00310305
-0.00100929
0.00305832
-0.00110071
0.0029676
-0.00116884
0.00283408
-0.00121116
0.00266661
-0.00123116
0.00247968
-0.00123921
0.00229101
-0.00124924
-0.00127451
0.0021132
0.000153042
-0.000312456
0.000412215
-0.000651984
0.000861258
-0.00100542
0.00150811
-0.00134388
0.00221157
-0.00132337
0.00277856
-0.000853943
0.00310309
-0.000197916
0.00326417
0.000286423
0.00341847
0.000465766
0.00363015
0.000471412
0.00385359
0.000446967
0.00402016
0.000428113
0.00407345
0.000421253
0.00399928
0.000423216
0.00382011
0.000431877
0.00357933
0.000445588
0.00331696
0.000469827
0.00306037
0.0005065
0.00282231
0.000560445
0.00260036
0.000641683
0.00238719
0.000756221
0.00220487
0.000892422
0.00208915
0.00100971
0.00200598
0.00105828
0.00187049
0.001018
0.00162468
0.000907555
0.00126975
0.000750245
0.000852427
0.000555806
0.000425063
0.000355954
2.87367e-05
0.000145854
-0.000261949
-7.78472e-05
-0.000411683
-0.00029161
-0.000444226
-0.000440273
-0.000426975
-0.000484171
-0.000417953
-0.000443512
-0.000432912
-0.000375848
-0.000460421
-0.000320028
-0.000484617
-0.000285759
-0.00049172
-0.000272233
-0.000472546
-0.000274374
-0.000424624
-0.000283842
-0.000351982
-0.000292304
-0.000263324
-0.00029377
-0.000167263
-0.000287307
-6.96153e-05
-0.000275162
2.69227e-05
-0.000260429
0.000121755
-0.000245633
0.000215541
-0.000232236
0.000309571
-0.000220793
0.000405264
-0.00021123
0.000503893
-0.000203173
0.000606596
-0.000196187
0.000714339
-0.000189926
0.000827701
-0.000184254
0.000947765
-0.000179294
0.0010748
-0.000175559
0.00120894
-0.000173798
0.00135018
-0.000174925
0.0014986
-0.00017995
0.00165373
-0.000189963
0.00181484
-0.000206052
0.00198113
-0.000229285
0.00214989
-0.000260712
0.00231874
-0.000301121
0.00248398
-0.000351051
0.00264064
-0.000410594
0.00278297
-0.000479176
0.00290447
-0.000555327
0.00299814
-0.000636575
0.00305692
-0.000719415
0.00307435
-0.000799411
0.00304531
-0.000871569
0.00296708
-0.000931059
0.0028408
-0.000974427
0.00267335
-0.0010014
0.00247887
-0.00101667
0.00227776
-0.00103006
0.00209185
-0.0010533
0.00193753
-0.00109493
-0.00115481
0.00181784
-0.000817385
0.00050493
-0.00225322
0.00078385
-0.00388998
0.000631345
-0.00562131
0.000387446
-0.00718715
0.000242471
-0.00826842
0.000227329
-0.00874601
0.00027967
-0.00877002
0.000310434
-0.00860987
0.00030562
-0.00840307
0.000264608
-0.00816395
0.000207851
-0.00787735
0.00014151
-0.00752598
6.98861e-05
-0.00711464
1.18782e-05
-0.0066706
-1.21691e-05
-0.0062262
1.18696e-06
-0.00579487
3.8505e-05
-0.0053797
9.13255e-05
-0.00496265
0.00014339
-0.00451368
0.000192721
-0.00400514
0.000247682
-0.0034222
0.000309477
-0.0027873
0.000374814
-0.00216622
0.000437194
-0.00162817
0.000479948
-0.00121432
0.000493698
-0.000938631
0.00047456
-0.000806035
0.00042321
-0.000791099
0.000341018
-0.000870466
0.000225221
-0.00102048
7.21695e-05
-0.0012103
-0.000101796
-0.00140004
-0.000250525
-0.00155249
-0.000331726
-0.00165154
-0.00034446
-0.00169955
-0.000327836
-0.00168714
-0.000332442
-0.00161948
-0.000353413
-0.00147493
-0.000416787
-0.00126409
-0.000485211
-0.00100543
-0.000542505
-0.000725083
-0.000572653
-0.000454228
-0.000564625
-0.000218368
-0.000523167
-2.87525e-05
-0.000464778
0.000116688
-0.000405869
0.000227142
-0.000356088
0.000313438
-0.000318531
0.000384998
-0.000292353
0.000449107
-0.000275339
0.000511179
-0.000265246
0.000575306
-0.000260315
0.000644542
-0.000259162
0.000721083
-0.000260795
0.000806468
-0.000264679
0.000901631
-0.000270722
0.00100699
-0.00027916
0.00112244
-0.000290375
0.00124723
-0.000304735
0.00137981
-0.000322543
0.00151779
-0.000344036
0.00165793
-0.000369421
0.0017961
-0.00039888
0.0019275
-0.000432521
0.0020467
-0.000470254
0.00214777
-0.000511666
0.0022245
-0.0005559
0.00227073
-0.00060156
0.00228091
-0.000646752
0.00225081
-0.000689317
0.00217875
-0.000727353
0.00206719
-0.000760011
0.00192443
-0.000788294
0.00176541
-0.000815406
0.00161031
-0.000846297
0.00148013
-0.000886492
0.00139039
-0.000940319
0.00134606
-0.00100896
0.00134061
-0.00108948
-0.00117521
0.001361
0.000495721
9.20957e-06
0.00117568
0.000103894
0.00164095
0.00016607
0.0018902
0.000138194
0.00206331
6.93605e-05
0.00235205
-6.14098e-05
0.00288653
-0.000254811
0.00362472
-0.000427753
0.00442808
-0.000497739
0.0051752
-0.000482512
0.00582869
-0.000445641
0.00636784
-0.000397635
0.00677519
-0.000337465
0.00703679
-0.000249726
0.00715958
-0.000134955
0.00718537
-2.46007e-05
0.0071788
4.50676e-05
0.00723222
3.79044e-05
0.00741478
-3.91643e-05
0.00775133
-0.00014383
0.00823129
-0.000232274
0.00882242
-0.000281657
0.00948603
-0.000288796
0.0101829
-0.000259699
0.0108644
-0.000201516
0.0114893
-0.00013117
0.0120077
-4.3904e-05
0.0123707
6.02481e-05
0.0125367
0.000174996
0.0124793
0.00028262
0.0122034
0.000348056
0.0117564
0.000345209
0.011207
0.000298915
0.0106199
0.000255385
0.0100346
0.000240837
0.00945176
0.00025497
0.00883716
0.000282154
0.00818104
0.000302706
0.00746165
0.000302604
0.00669536
0.00028108
0.00590352
0.000249341
0.00511303
0.00021784
0.00434367
0.00020473
0.00360762
0.000212879
0.00293406
0.000208782
0.00234447
0.000183727
0.00184828
0.000140101
0.00144636
8.33929e-05
0.00113087
2.31323e-05
0.000890425
-3.48943e-05
0.000715644
-9.04644e-05
0.00059666
-0.00014133
0.000523982
-0.000186484
0.000489075
-0.000225888
0.000484695
-0.000260299
0.000505133
-0.000291161
0.000546191
-0.000320219
0.0006046
-0.000348784
0.00067722
-0.000377355
0.00076032
-0.000405644
0.000849255
-0.000432972
0.000938564
-0.000458729
0.00102231
-0.00048263
0.00109455
-0.000504756
0.00114976
-0.000525464
0.00118337
-0.000545276
0.00119229
-0.000564826
0.00117563
-0.000584897
0.0011354
-0.000606519
0.00107714
-0.000631057
0.00100999
-0.000660212
0.000945875
-0.000695893
0.000897509
-0.000739928
0.000875699
-0.000793596
0.000886448
-0.000857046
0.000928957
-0.000929001
0.000995712
-0.00100707
0.00107514
-0.00108839
0.00115576
-0.0011701
-0.00124952
0.00123007
0.000341573
-0.000332363
0.00107999
-0.000634522
0.00205855
-0.000812488
0.00320924
-0.00101249
0.00442624
-0.00114764
0.00552436
-0.00115953
0.00637205
-0.0011025
0.00696516
-0.00102086
0.0074158
-0.000948385
0.00780934
-0.000876046
0.00814423
-0.000780534
0.00839275
-0.00064616
0.00852542
-0.00047013
0.00853481
-0.000259121
0.00844132
-4.14643e-05
0.00828522
0.000131503
0.00810445
0.000225835
0.00793768
0.000204678
0.00779155
0.000106967
0.00765457
-6.85126e-06
0.00751814
-9.58505e-05
0.00737935
-0.000142865
0.00723695
-0.000146394
0.00708931
-0.000112056
0.00693321
-4.54243e-05
0.00675168
5.03676e-05
0.00653241
0.000175359
0.00625875
0.000333917
0.00591892
0.000514821
0.00553264
0.000668901
0.0051708
0.000709899
0.00489347
0.000622537
0.0047081
0.000484279
0.00458271
0.000380777
0.00448183
0.00034172
0.00438258
0.000354217
0.00427059
0.000394149
0.00413212
0.000441174
0.00395155
0.000483168
0.00371754
0.000515095
0.00343144
0.000535439
0.00310744
0.000541842
0.00278107
0.000531098
0.00249387
0.000500078
0.0022541
0.000448549
0.0020566
0.000381226
0.00189132
0.000305384
0.00174707
0.000227644
0.00161647
0.000153728
0.001498
8.35842e-05
0.0013903
1.72346e-05
0.00129104
-4.20771e-05
0.00119987
-9.53137e-05
0.00111686
-0.000142872
0.00104269
-0.000186132
0.000979071
-0.000227542
0.000928699
-0.000269847
0.000894452
-0.000314536
0.000877528
-0.00036043
0.000876589
-0.000404705
0.000888004
-0.000444387
0.000906784
-0.000477509
0.000927723
-0.00050357
0.000946435
-0.000523467
0.000960094
-0.000539123
0.000967852
-0.000553034
0.000970892
-0.000567865
0.000972149
-0.000586154
0.000975705
-0.000610075
0.000985892
-0.000641244
0.0010062
-0.000680523
0.00103822
-0.000727909
0.00108089
-0.0007826
0.00113061
-0.000843312
0.00118224
-0.000908683
0.0012308
-0.000977558
0.00127278
-0.00104906
0.00130685
-0.00112245
0.00133364
-0.00119689
-0.00127056
0.00135468
-0.000232636
-9.9728e-05
-0.000326515
-0.000540642
-2.91934e-05
-0.00110981
0.000544144
-0.00158583
0.0012606
-0.0018641
0.00205178
-0.00195071
0.00285392
-0.00190464
0.00360563
-0.00177257
0.00423763
-0.00158038
0.00471078
-0.0013492
0.00502967
-0.00109942
0.00523073
-0.000847215
0.00536466
-0.000604067
0.00548392
-0.000378378
0.00561872
-0.000176266
0.00574976
4.71187e-07
0.005822
0.000153586
0.00574179
0.000284893
0.00545283
0.000395926
0.00495669
0.000489284
0.00429208
0.000568766
0.00351277
0.000636447
0.00267447
0.000691904
0.0018293
0.000733117
0.00102644
0.000757435
0.000315307
0.000761497
-0.000256129
0.000746795
-0.000651419
0.000729207
-0.000865886
0.000729288
-0.0009331
0.000736115
-0.000920277
0.000697076
-0.000880555
0.000582816
-0.000831093
0.000434817
-0.000761256
0.00031094
-0.000651441
0.000231906
-0.000487945
0.000190721
-0.000268207
0.000174411
2.22927e-06
0.000170737
0.000313372
0.000172025
0.000655406
0.000173062
0.00102071
0.000170134
0.00140318
0.000159377
0.00178999
0.000144284
0.00216124
0.000128823
0.00250774
0.000102055
0.00281536
7.36033e-05
0.00306933
5.1417e-05
0.00326016
3.68091e-05
0.0033833
3.05934e-05
0.00343338
3.34995e-05
0.00340792
4.27015e-05
0.00331182
5.4023e-05
0.0031547
6.18027e-05
0.00295241
5.94151e-05
0.0027236
4.26781e-05
0.00249108
4.97986e-06
0.00226615
-4.4914e-05
0.00206517
-0.000113556
0.00189695
-0.000192211
0.00176467
-0.000272429
0.00166707
-0.000346789
0.00159983
-0.000410261
0.00155713
-0.000460871
0.00153309
-0.000499431
0.00152268
-0.000528712
0.00152207
-0.00055242
0.00152846
-0.000574263
0.00153961
-0.000597305
0.00155321
-0.000623673
0.00156653
-0.000654568
0.00157651
-0.000690497
0.0015802
-0.000731606
0.00157562
-0.000778017
0.00156236
-0.00083005
0.00154187
-0.000888198
0.00151716
-0.000952846
0.00149194
-0.00102383
0.00146959
-0.0011001
0.00145227
-0.00117957
-0.00125881
0.00144052
-7.04828e-05
-2.92454e-05
-0.000385973
-0.000225151
-0.000942715
-0.000553068
-0.00170172
-0.000826827
-0.00258617
-0.000979649
-0.00346925
-0.00106763
-0.00425855
-0.00111533
-0.00491548
-0.00111564
-0.00543754
-0.00105832
-0.0058374
-0.000949348
-0.00613016
-0.000806658
-0.00633056
-0.000646821
-0.00644521
-0.000489414
-0.00648657
-0.000337023
-0.00647308
-0.000189752
-0.00642944
-4.31727e-05
-0.00638536
0.000109511
-0.00636728
0.000266814
-0.00637944
0.000408088
-0.00640708
0.000516925
-0.00642673
0.000588415
-0.00641765
0.000627364
-0.00637008
0.000644337
-0.00626263
0.000625664
-0.0060878
0.000582604
-0.00584512
0.000518815
-0.00552963
0.000431303
-0.00513366
0.000333241
-0.00466019
0.000255814
-0.00414233
0.000218257
-0.00363949
0.000194237
-0.00320013
0.000143459
-0.00283089
6.55719e-05
-0.0025068
-1.31426e-05
-0.0021974
-7.75014e-05
-0.00187792
-0.000128759
-0.00153915
-0.000164357
-0.0011848
-0.000183608
-0.00082183
-0.000190949
-0.000455405
-0.000193364
-9.44528e-05
-0.000190818
0.000249143
-0.000184219
0.000567048
-0.000173621
0.000855139
-0.000159268
0.00109862
-0.000141422
0.00129207
-0.00011985
0.00143767
-9.41821e-05
0.0015392
-6.47207e-05
0.00160343
-3.36449e-05
0.00163771
-7.7326e-07
0.00164783
3.25819e-05
0.00164191
5.99402e-05
0.00163274
7.09763e-05
0.00162939
6.27608e-05
0.00163593
3.61352e-05
0.00165667
-1.5761e-05
0.00169512
-8.33539e-05
0.00174381
-0.000162249
0.00179648
-0.000244885
0.00184767
-0.000323613
0.00189312
-0.000392247
0.00192994
-0.000447074
0.00195633
-0.000487259
0.00197151
-0.000514619
0.0019756
-0.000532801
0.00196934
-0.000546158
0.00195378
-0.000558701
0.00192995
-0.000573475
0.00189871
-0.000592439
0.00186089
-0.00061675
0.00181759
-0.00064719
0.00177049
-0.000684504
0.00172197
-0.000729502
0.00167483
-0.000782908
0.00163167
-0.000845044
0.00159434
-0.000915514
0.00156355
-0.000993044
0.00153897
-0.00107552
0.00151962
-0.00116022
-0.00124365
0.00150446
-0.000103558
7.4313e-05
-0.000454524
0.000125814
-0.00109446
8.68642e-05
-0.00189294
-2.83397e-05
-0.00268704
-0.000185554
-0.00341835
-0.000336317
-0.00409154
-0.000442143
-0.0047156
-0.000491587
-0.00528835
-0.000485567
-0.00580301
-0.000434687
-0.00625471
-0.000354963
-0.00663993
-0.000261599
-0.00696514
-0.000164197
-0.00723185
-7.03189e-05
-0.0074368
1.52023e-05
-0.00757095
9.09696e-05
-0.00762014
0.00015871
-0.00757367
0.000220343
-0.00743884
0.000273253
-0.00723164
0.00030973
-0.0069686
0.000325372
-0.00666459
0.000323356
-0.00632063
0.000300376
-0.00595712
0.000262155
-0.00558743
0.000212912
-0.00522454
0.000155929
-0.00488497
9.17312e-05
-0.00457512
2.33924e-05
-0.00427445
-4.48578e-05
-0.00394437
-0.00011182
-0.00357164
-0.000178492
-0.00318493
-0.000243256
-0.00281822
-0.000301136
-0.00248059
-0.000350774
-0.00216931
-0.000388776
-0.00188366
-0.000414407
-0.00161978
-0.000428238
-0.00137144
-0.000431956
-0.00113541
-0.000426974
-0.000914265
-0.000414509
-0.000709395
-0.000395688
-0.000521943
-0.000371672
-0.000351848
-0.000343715
-0.000197982
-0.000313134
-5.82134e-05
-0.000281191
7.09526e-05
-0.000249016
0.000194403
-0.000217633
0.000317687
-0.000188005
0.000445426
-0.000161384
0.000583881
-0.000139228
0.000740003
-0.00012354
0.000916772
-0.000116828
0.00110936
-0.000121609
0.00131161
-0.00013949
0.00151831
-0.000170571
0.00171591
-0.000213359
0.00189658
-0.000264025
0.00205188
-0.000317546
0.0021755
-0.000368507
0.00226408
-0.000412187
0.0023174
-0.000445565
0.00233831
-0.000467986
0.00233213
-0.000481079
0.00230556
-0.000488046
0.0022654
-0.000492644
0.00221752
-0.000498275
0.00216625
-0.000507438
0.00211442
-0.000521647
0.00206366
-0.000541677
0.00201485
-0.000567941
0.00196847
-0.000600803
0.00192468
-0.000640715
0.00188336
-0.000688182
0.00184406
-0.000743613
0.00180615
-0.000807131
0.00176901
-0.000878375
0.00173231
-0.000956346
0.00169611
-0.00103932
0.00166076
-0.00112486
-0.00120973
0.00162683
0.000269089
-0.000194776
0.000641056
-0.000246154
0.000903457
-0.000175537
0.00104375
-0.000168635
0.00107834
-0.000220139
0.00102047
-0.000278453
0.000888034
-0.000309706
0.0007058
-0.000309353
0.000506618
-0.000286384
0.000319673
-0.000247742
0.000161868
-0.000197159
3.76924e-05
-0.000137423
-5.67616e-05
-6.97432e-05
-0.00013241
5.32922e-06
-0.000203951
8.67435e-05
-0.000284946
0.000171965
-0.000382417
0.00025618
-0.000494687
0.000332613
-0.000616501
0.000395067
-0.000739047
0.000432276
-0.000855994
0.00044232
-0.000954621
0.000421982
-0.00103198
0.000377737
-0.00108176
0.000311937
-0.00110041
0.000231555
-0.00108602
0.000141546
-0.0010419
4.76052e-05
-0.000972648
-4.58571e-05
-0.000883769
-0.000133737
-0.000779732
-0.000215857
-0.000667922
-0.000290302
-0.000555796
-0.000355381
-0.00044655
-0.000410382
-0.000341412
-0.000455912
-0.000237736
-0.000492453
-0.000131913
-0.000520229
-2.12921e-05
-0.000538859
9.41583e-05
-0.000547407
0.000212091
-0.000544906
0.000328541
-0.000530959
0.000439052
-0.0005062
0.000539892
-0.000472511
0.000629052
-0.000432875
0.000706836
-0.000390917
0.000775896
-0.00035025
0.000840776
-0.000313896
0.000907035
-0.000283892
0.000980442
-0.000261412
0.00106597
-0.000246909
0.00116713
-0.000240393
0.00128523
-0.000241634
0.00141866
-0.000250259
0.00156273
-0.000265679
0.00171018
-0.000286947
0.00185222
-0.000312605
0.00197955
-0.000340687
0.00208445
-0.000368927
0.00216197
-0.000395071
0.00221078
-0.000417318
0.0022333
-0.000434701
0.00223497
-0.000447235
0.00222282
-0.000455833
0.00220373
-0.000461993
0.00218305
-0.000467371
0.00216384
-0.000473427
0.00214684
-0.000481277
0.00213114
-0.000491735
0.00211496
-0.000505474
0.00209648
-0.000523192
0.00207425
-0.000545714
0.00204745
-0.000574003
0.00201585
-0.000609113
0.00197974
-0.00065207
0.00193984
-0.00070371
0.00189717
-0.000764467
0.00185292
-0.000834123
0.00180819
-0.000911614
0.00176382
-0.000994946
0.00172027
-0.00108131
-0.00116721
0.00167775
-0.00054889
0.000354114
-0.00144701
0.000651971
-0.00241437
0.000791819
-0.00348577
0.000902763
-0.00467049
0.000964588
-0.00592188
0.00097293
-0.00715928
0.000927695
-0.00831311
0.000844481
-0.00933453
0.000735039
-0.0101926
0.000610278
-0.0108679
0.000478156
-0.01135
0.000344704
-0.0116357
0.00021598
-0.0117285
9.80817e-05
-0.011637
-4.74966e-06
-0.0113728
-9.22192e-05
-0.0109476
-0.000169056
-0.0103708
-0.000244162
-0.00964923
-0.000326484
-0.00880447
-0.00041249
-0.00785651
-0.000505639
-0.00683662
-0.00059791
-0.00576646
-0.000692425
-0.00467429
-0.000780228
-0.00358902
-0.000853718
-0.0025398
-0.000907677
-0.00155325
-0.000938936
-0.000651972
-0.000947139
0.000148677
-0.000934387
0.00083728
-0.000904459
0.00140842
-0.000861443
0.00186333
-0.000810287
0.0022092
-0.00075626
0.00245747
-0.000704181
0.00262265
-0.00065763
0.00272061
-0.000618186
0.00276682
-0.000585068
0.00277479
-0.000555376
0.00275468
-0.000524795
0.00271258
-0.000488858
0.00265084
-0.000444469
0.00256958
-0.000391242
0.00246876
-0.000332057
0.00235044
-0.000272596
0.00221991
-0.000219721
0.00208571
-0.000179694
0.00195851
-0.000156696
0.00184889
-0.00015179
0.00176511
-0.000163127
0.00171168
-0.000186962
0.00168892
-0.000218879
0.00169343
-0.00025477
0.0017191
-0.000291346
0.00175841
-0.000326258
0.00180379
-0.000357982
0.00184875
-0.000385648
0.00188873
-0.00040891
0.0019215
-0.000427843
0.00194701
-0.000442829
0.00196672
-0.000454407
0.00198261
-0.000463119
0.00199621
-0.000469437
0.00200803
-0.000473814
0.00201746
-0.000476799
0.00202317
-0.000479141
0.00202373
-0.000481836
0.0020181
-0.000486107
0.00200597
-0.000493337
0.00198775
-0.000504976
0.00196449
-0.000522449
0.00193755
-0.000547071
0.0019084
-0.000579962
0.00187829
-0.000621963
0.0018481
-0.000673521
0.00181818
-0.000734546
0.00178835
-0.000804286
0.00175797
-0.000881239
0.00172622
-0.00096319
0.00169226
-0.00104736
-0.0011305
0.00165556
0.000294951
5.91631e-05
0.000629074
0.000317847
0.000724115
0.000696779
0.000574142
0.00105274
0.000247894
0.00129084
-0.000192485
0.00141331
-0.000702028
0.00143724
-0.00122678
0.00136923
-0.0017084
0.00121666
-0.00208269
0.000984562
-0.00229034
0.000685812
-0.0022935
0.000347861
-0.00208835
1.08343e-05
-0.00170551
-0.000284766
-0.0011951
-0.000515156
-0.00061229
-0.000675028
2.96234e-06
-0.000784309
0.000622336
-0.000863535
0.00121633
-0.000920474
0.00176489
-0.00096105
0.00225465
-0.000995407
0.00268111
-0.00102437
0.00303647
-0.00104778
0.00331969
-0.00106345
0.0035336
-0.00106763
0.00368381
-0.00105788
0.00377765
-0.00103278
0.00382255
-0.000992033
0.00382469
-0.000936524
0.00378854
-0.000868314
0.00371711
-0.000790018
0.00361138
-0.000704556
0.00347068
-0.000615554
0.00329441
-0.000527911
0.00308442
-0.000447639
0.00284761
-0.000381379
0.0025963
-0.000333758
0.00234591
-0.000304987
0.00211112
-0.000290009
0.00190274
-0.000280472
0.00172668
-0.000268412
0.00158485
-0.000249412
0.00147692
-0.00022413
0.00140119
-0.00019686
0.0013547
-0.000173228
0.00133294
-0.00015794
0.00133064
-0.000154398
0.00134326
-0.000164405
0.00136694
-0.000186813
0.00139825
-0.000218265
0.00143408
-0.000254715
0.00147181
-0.000292495
0.00150928
-0.000328821
0.00154491
-0.000361887
0.00157765
-0.000390719
0.00160694
-0.000414944
0.0016326