/*--------------------------------*- C++ -*----------------------------------*\
| =========                 |                                                 |
| \\      /  F ield         | OpenFOAM: The Open Source CFD Toolbox           |
|  \\    /   O peration     | Version:  2012                                  |
|   \\  /    A nd           | Website:  www.openfoam.com                      |
|    \\/     M anipulation  |                                                 |
\*---------------------------------------------------------------------------*/
FoamFile
{
    version     2.0;
    format      ascii;
    class       volScalarField;
    location    "0.61";
    object      p;
}
// * * * * * * * * * * * * * * * * * * * * * * * * * * * * * * * * * * * * * //

dimensions      [0 2 -2 0 0 0 0];


internalField   nonuniform List<scalar> 
42400
(
4888.13
4699.04
4466.34
4189.69
3837.86
3449.37
3053.68
2680.38
2348.82
2064.37
1825.27
1628.39
1473.3
1360.05
1283.17
1231.56
1195.09
1169.7
1154.27
1147.14
1143.73
1138.59
1127.06
1106.51
1076.58
1038.32
992.867
940.568
880.778
812.212
734.529
648.93
558.01
465.264
373.928
286.504
204.698
129.893
63.5522
6.91605
-39.2465
-75.0187
-100.589
-116.461
-123.443
-122.59
-115.161
-102.586
-86.4034
-68.1853
-49.4402
-31.5012
-15.4073
-1.80873
9.07109
17.3952
23.5997
28.2446
31.8685
34.877
37.4854
39.7359
41.5789
42.9725
43.9396
44.5596
44.9229
45.0927
45.0947
44.9293
44.5896
44.0734
43.3883
42.5511
41.5839
40.5081
39.339
38.0805
36.7119
35.1445
-6199.88
-5975.32
-5671.25
-5286.89
-4809.06
-4260.14
-3642.95
-2966.59
-2255.87
-1552.29
-906.038
-362.53
48.6971
318.24
457.106
495.466
472.873
421.928
361.768
299.741
237.97
177.383
119.152
64.7879
15.663
-27.1885
-62.916
-90.6205
-109.547
-119.885
-123.477
-123.526
-123.428
-125.513
-130.554
-138.155
-147.425
-157.396
-166.892
-175.181
-181.965
-185.869
-186.158
-182.381
-174.297
-162.116
-146.475
-128.321
-108.8
-89.1154
-70.3724
-53.4591
-38.9829
-27.2279
-18.1089
-11.1807
-5.76269
-1.13453
3.28518
7.82339
12.5141
17.1527
21.4352
25.117
28.1056
30.4506
32.2709
33.6832
34.7683
35.5719
36.1183
36.4231
36.5009
36.3689
36.0473
35.5584
34.9249
34.1666
33.2943
32.3022
6558.05
6416.66
6223.42
5940.6
5557.76
5076.42
4493.27
3811.06
3044.36
2220.56
1378.13
555.634
-217.458
-918.319
-1519.79
-1989.94
-2309.82
-2488.06
-2554.58
-2542.35
-2477.08
-2376.79
-2253.99
-2117.61
-1974.15
-1828.36
-1683.73
-1542.63
-1406.57
-1276.71
-1153.79
-1038.42
-930.955
-831.519
-740.11
-656.895
-581.636
-514.147
-454.323
-401.396
-354.375
-312.393
-274.384
-239.349
-206.564
-175.675
-146.79
-120.481
-97.6003
-78.8036
-64.0217
-52.4192
-42.9708
-35.063
-28.5206
-23.1971
-18.6951
-14.4518
-9.99128
-5.10137
0.134364
5.41963
10.3918
14.7654
18.4121
21.3539
23.7005
25.5802
27.0994
28.3313
29.3216
30.0966
30.67
31.0495
31.2416
31.2554
31.1045
30.8066
30.3816
29.8521
-13043.6
-12379.5
-11514.1
-10611.9
-9663.78
-8791.72
-8015.47
-7338.94
-6750.76
-6228.21
-5749.77
-5301.4
-4874.85
-4465.08
-4069.35
-3688.91
-3328.38
-2993.51
-2688.51
-2414.24
-2168.36
-1946.79
-1745.8
-1562.08
-1392.77
-1236.6
-1092.6
-959.761
-837.043
-723.646
-619.445
-525.065
-441.25
-368.327
-305.959
-252.997
-209.456
-175.012
-148.939
-130.309
-118.064
-110.96
-107.448
-105.594
-103.125
-97.7982
-88.227
-74.8808
-60.3465
-47.9876
-39.767
-35.3063
-32.8472
-30.7523
-28.1738
-24.8723
-20.9041
-16.4035
-11.534
-6.48957
-1.49181
3.23555
7.50858
11.2192
14.3466
16.9396
19.0845
20.8732
22.3853
23.6799
24.7958
25.7539
26.5609
27.2141
27.7066
28.0335
28.1954
28.1999
28.0642
27.8062
2825.96
2609.86
2312.44
1941.39
1500.43
1076.03
718.702
443.077
240.242
93.3204
-9.86719
-73.2371
-95.4805
-75.5339
-17.2629
70.9446
177.746
291.173
400.923
499.707
583.746
651.738
704.12
740.776
760.803
762.262
743.05
702.634
644.901
577.89
507.028
434.709
364.602
300.965
245.344
196.462
153.21
115.01
81.6199
52.8803
28.5226
8.12829
-8.80922
-22.7518
-33.9517
-42.3771
-47.7334
-50.1628
-50.1972
-48.4108
-45.1439
-40.6646
-35.4227
-29.9886
-24.7937
-19.9947
-15.5436
-11.3312
-7.28511
-3.39286
0.31275
3.77889
6.95579
9.81271
12.344
14.5646
16.5102
18.2155
19.7158
21.0399
22.2083
23.2321
24.1146
24.853
25.4417
25.8758
26.1537
26.2804
26.2719
26.1177
9516.7
9486.89
9463.64
9401.54
9276.5
9099.36
8877.67
8615.51
8307.56
7939.65
7496.02
6968.99
6367.61
5719.18
5063.06
4439.65
3879.23
3395.74
2987.37
2641.69
2341.78
2071.69
1818.65
1573.8
1335.9
1108.72
895.731
697.351
529.963
423.105
366.778
317.219
258.085
199.83
148.999
105.479
68.6955
38.1139
13.1095
-6.93931
-22.5785
-34.2157
-42.076
-46.2364
-46.8417
-44.4791
-40.3921
-36.1477
-32.8475
-30.6104
-28.8392
-26.891
-24.4827
-21.6446
-18.5206
-15.24
-11.8877
-8.51984
-5.18303
-1.92329
1.21304
4.18315
6.95267
9.49906
11.8124
13.8938
15.7527
17.4028
18.8597
20.1381
21.2509
22.2073
23.0136
23.6734
24.1886
24.5612
24.7944
24.8961
24.8799
24.7112
-10899.1
-10706.3
-10507.2
-10295.8
-10047.6
-9743.02
-9363.51
-8900.93
-8354.7
-7732.61
-7055.34
-6351.15
-5646.75
-4961.48
-4307.45
-3692.09
-3120.02
-2593.95
-2115.02
-1682.73
-1295.48
-952.129
-654.031
-404.863
-211.699
-79.7433
-9.38195
3.68933
-26.2503
-75.606
-127.589
-175.222
-208.736
-219.654
-211.511
-194.553
-176.343
-159.396
-143.688
-128.961
-115.261
-102.686
-91.2287
-80.814
-71.381
-62.922
-55.46
-48.9812
-43.3715
-38.4188
-33.8847
-29.5846
-25.4184
-21.3541
-17.3969
-13.5642
-9.87296
-6.33738
-2.97012
0.216046
3.20781
5.99226
8.55858
10.8997
13.0134
14.9027
16.5749
18.041
19.3135
20.4055
21.3296
22.097
22.7172
23.1985
23.548
23.772
23.8773
23.8727
23.7654
23.5199
-2392.1
-2469.62
-2563.86
-2663.43
-2824.42
-3033.66
-3276.78
-3525.34
-3737.14
-3867.72
-3900.77
-3856.63
-3768.01
-3655
-3523.98
-3376.64
-3214.99
-3042.52
-2863.85
-2682.75
-2499.43
-2310
-2108.42
-1891.07
-1660.65
-1425.82
-1196.86
-986.341
-803.302
-650.342
-526.465
-428.515
-352.335
-296.936
-263.831
-250.426
-249.491
-252.642
-253.414
-248.262
-236.467
-219.031
-197.71
-174.4
-150.773
-128.106
-107.249
-88.6673
-72.5047
-58.6756
-46.9546
-37.0573
-28.6967
-21.613
-15.5825
-10.4158
-5.95448
-2.06693
1.35372
4.3912
7.10832
9.54935
11.7435
13.7093
15.4585
17
18.3424
19.4955
20.4701
21.278
21.9313
22.4415
22.8195
23.0751
23.2172
23.2536
23.1921
23.0401
22.7995
22.4506
5177.23
5617.9
6251.95
6966.12
7763.92
8611.46
9483.46
10293.6
10938.7
11331.2
11424.7
11228.7
10788.9
10154.1
9353.71
8403.94
7334.58
6204.15
5078.99
4005.75
3010.62
2113.8
1336.17
696.207
203.142
-148.952
-377.305
-503.814
-555.508
-559.74
-540.005
-512.483
-484.264
-455.671
-424.473
-388.953
-349.987
-308.707
-267.45
-228.275
-191.894
-158.862
-129.523
-104.029
-82.3262
-64.1626
-49.1577
-36.8705
-26.8573
-18.71
-12.0767
-6.66741
-2.24927
1.36442
4.32621
6.76627
8.79961
10.5227
12.0362
13.4059
14.6827
15.8956
17.0523
18.1446
19.1553
20.0654
20.8595
21.5284
22.0696
22.4858
22.7833
22.9701
23.0548
23.0458
22.9506
22.7763
22.5295
22.2152
21.8338
21.3808
15543.4
15205.1
14653.4
13705.3
12238.8
10502.6
8745.47
7158.66
5817.04
4692.81
3686.33
2648.97
1446.58
105.435
-1084.14
-1790.17
-2005.87
-1986.8
-1908.2
-1794.95
-1640.9
-1451.36
-1232.68
-994.26
-751.483
-521.963
-323.989
-171.821
-68.9401
-7.56339
25.9084
43.1028
51.5873
54.9617
54.0267
49.7537
42.7386
34.1444
25.2601
17.2231
10.6871
6.03503
3.23966
2.07224
2.21835
3.35029
5.15859
7.36769
9.74612
12.1122
14.3351
16.3305
18.0516
19.4792
20.6134
21.4685
22.071
22.4598
22.6864
22.8094
22.887
22.9663
23.075
23.2178
23.3802
23.5384
23.6671
23.7463
23.7638
23.7143
23.5983
23.4189
23.1807
22.8887
22.5473
22.1609
21.7332
21.2666
20.761
20.2181
-18817
-17947.6
-16876.4
-15776.9
-14606.7
-13417.2
-12260.2
-11176.9
-10168.1
-9234.36
-8411.47
-7727.8
-7137.51
-6489.95
-5622.68
-4519.99
-3361.49
-2371.97
-1660.23
-1224.31
-1021.87
-990.66
-1039.98
-1073.82
-1030.75
-900.774
-713.587
-511.09
-325.128
-170.784
-50.0609
40.7916
106.301
150.217
176.243
188.229
189.783
183.977
173.597
160.923
147.413
134.028
121.324
109.576
98.8901
89.2899
80.7553
73.2418
66.6875
61.0186
56.1532
52.0056
48.4875
45.5065
42.9651
40.7619
38.7988
36.9924
35.2879
33.6673
32.1464
30.7596
29.5393
28.4982
27.6241
26.8855
26.2434
25.6614
25.1117
24.5758
24.0426
23.5063
22.9639
22.4136
21.8547
21.2864
20.7085
20.1196
19.5178
18.9051
-305.719
-71.2493
317.026
796.801
1302.65
1683.19
1880.6
1873.94
1658.42
1213.98
547.647
-192.629
-786.377
-1153.71
-1355.62
-1451.36
-1464.42
-1395.76
-1223.25
-926.237
-549.701
-201.463
32.0585
141.534
165.502
146.161
115.251
93.2464
88.9502
101.533
124.903
151.892
176.908
196.606
209.707
216.939
219.437
217.764
212.78
205.357
196.157
185.686
174.343
162.464
150.341
138.245
126.424
115.102
104.464
94.6531
85.7638
77.8429
70.8906
64.8635
59.6823
55.2156
51.3271
47.8736
44.7345
41.8324
39.139
36.6642
34.4331
32.4622
30.746
29.2578
27.9582
26.8067
25.7686
24.817
23.9326
23.1011
22.3119
21.5566
20.8284
20.1217
19.4317
18.7533
18.0821
17.4196
9332.77
9220.44
9047.29
8776.4
8400.95
7976.1
7488.8
6893.73
6147.18
5203.04
4182.99
3446.49
3118.24
2926.36
2720.74
2561.72
2453.12
2368.33
2297.73
2207.43
2061.3
1859.32
1634.85
1424.25
1250.74
1122.92
1035.28
972.808
918.799
860.939
793.645
717.847
638.547
561.783
492.083
430.973
378.34
333.785
296.128
264.137
236.8
213.369
193.279
176.01
161.01
147.725
135.687
124.585
114.265
104.678
95.8262
87.7218
80.3692
73.7537
67.8357
62.5493
57.807
53.5111
49.5714
45.9231
42.5366
39.4145
36.575
34.0333
31.7888
29.8218
28.099
26.5824
25.236
24.0286
22.9347
21.9335
21.0079
20.1438
19.3295
18.5553
17.8132
17.0953
16.3957
15.7165
-3043.51
-2357.11
-1494.24
-732.508
-56.0688
506.781
1002.12
1393.15
1626.96
1729.04
1812.71
1957.22
2099.65
2136.01
2056.08
1908.98
1735.32
1563
1412.99
1296.61
1215.65
1167.64
1148.75
1152.03
1164.48
1165.62
1128.05
1030.16
874.923
691.646
517.717
378.247
280.253
217.913
179.847
155.009
135.895
118.942
103.485
90.2046
80.3587
74.9964
74.3739
77.6646
83.1228
88.6837
92.6918
94.3338
93.5975
90.9386
86.944
82.1408
76.9384
71.6325
66.4241
61.438
56.7403
52.3544
48.2794
44.5064
41.0289
37.8461
34.9615
32.3746
30.0759
28.0467
26.26
24.6847
23.2897
22.0462
20.9284
19.9142
18.9845
18.1232
17.3169
16.5545
15.8267
15.1247
14.4431
13.7846
-1886.93
-2103.24
-2323.96
-2496.24
-2663.35
-2809.58
-2925.6
-2995.76
-3010.3
-2969.28
-2878.52
-2754.2
-2620.21
-2497.76
-2396.44
-2313.31
-2235.69
-2144.64
-2019.5
-1842.96
-1606.14
-1312.72
-978.64
-624.793
-268.587
78.2535
399.071
665.898
849.781
940.948
953.71
913.013
840.38
750.456
652.479
553.476
459.226
374.189
301.438
242.703
197.083
163.554
140.612
126.085
117.351
111.784
107.223
102.319
96.5682
90.0564
83.126
76.1762
69.4875
63.2419
57.5342
52.3912
47.7952
43.7032
40.0623
36.8199
33.9296
31.3534
29.0597
27.0224
25.2158
23.6152
22.1963
20.9349
19.8078
18.7937
17.873
17.0285
16.2454
15.5109
14.8143
14.1468
13.5012
12.8707
12.252
11.65
2780.05
2725.97
2696.86
2696.3
2684.6
2666.31
2647.07
2630.16
2612.79
2589.14
2549.34
2479.58
2362.54
2179.87
1918.12
1577.88
1180.82
765.919
374.279
33.8067
-246.063
-468.108
-641.817
-777.591
-880.3
-946.841
-967.379
-936.182
-860.782
-759.26
-649.321
-541.733
-441.355
-350.375
-269.754
-200.471
-142.344
-94.7727
-56.8948
-27.1514
-3.22099
15.9517
30.7916
41.5173
48.2198
51.2055
51.1861
49.1466
46.052
42.6297
39.3173
36.3241
33.7091
31.4528
29.5037
27.803
26.2968
24.9415
23.7044
22.5632
21.5034
20.5164
19.5968
18.7407
17.9443
17.2029
16.511
15.8625
15.2507
14.6691
14.1111
13.5706
13.0422
12.5212
12.0035
11.4862
10.9665
10.4419
9.91307
9.38767
10948.9
10771.6
10510.7
10094.2
9481.76
8746.44
7941.72
7101.88
6252.4
5416.7
4619.18
3883.15
3229.52
2673.26
2214.04
1828.08
1477.52
1136.53
805.33
501.879
243.928
37.4834
-122.009
-242.58
-333.073
-401.487
-453.212
-490.78
-515.214
-527.467
-528.733
-520.103
-502.451
-476.629
-443.688
-404.974
-362.69
-318.883
-275.625
-235.028
-197.987
-164.84
-135.553
-109.914
-87.7275
-68.8444
-53.0879
-40.1814
-29.76
-21.4293
-14.815
-9.58043
-5.43633
-2.1426
0.492746
2.61733
4.34128
5.74531
6.88863
7.81543
8.55974
9.1487
9.60466
9.94616
10.1887
10.345
10.4256
10.4389
10.3918
10.2899
10.1378
9.9395
9.6986
9.41831
9.10171
8.75179
8.37124
7.96234
7.52977
7.08454
-15352.7
-14845.2
-14254.2
-13649
-12975
-12270.6
-11502.1
-10650.1
-9720.1
-8730.69
-7715.57
-6719.22
-5785.92
-4946.79
-4211.95
-3574.05
-3019.21
-2536.82
-2119.98
-1762.64
-1458.59
-1201.45
-984.393
-801.676
-648.677
-521.541
-417.008
-332.252
-264.779
-212.381
-172.97
-144.451
-124.677
-111.502
-102.939
-97.3106
-93.3977
-90.2192
-86.791
-83.1931
-79.6751
-76.1124
-72.3857
-68.4212
-64.1987
-59.7506
-55.1382
-50.4277
-45.6778
-40.9417
-36.2711
-31.7187
-27.3363
-23.1717
-19.2655
-15.6488
-12.3413
-9.35277
-6.68335
-4.32486
-2.26281
-0.478331
1.04998
2.34443
3.42703
4.31861
5.03836
5.6037
6.03028
6.33221
6.52228
6.61211
6.61234
6.5327
6.38217
6.16897
5.90043
5.58328
5.22579
4.8414
-9852.14
-9629.04
-9393.74
-9187.32
-8986.4
-8765.45
-8467.59
-8054.06
-7520.38
-6892.87
-6204.98
-5481.37
-4736.31
-3981.02
-3233.76
-2519.2
-1864.3
-1292.26
-817.832
-445.487
-169.974
18.9402
134.387
191.224
204.843
190.31
161.279
128.465
98.7897
74.9143
55.9999
39.8597
24.7362
9.93005
-4.62458
-18.7217
-31.9347
-44.2227
-55.0426
-63.8028
-70.4094
-74.9388
-77.5384
-78.3958
-77.7137
-75.7009
-72.572
-68.5465
-63.8438
-58.675
-53.2346
-47.694
-42.1983
-36.8652
-31.7856
-27.0259
-22.63
-18.6232
-15.0148
-11.8011
-8.9684
-6.49622
-4.35951
-2.531
-0.982956
0.311541
1.37776
2.23892
2.9162
3.42882
3.79434
4.02887
4.14718
4.16287
4.08841
3.93519
3.71338
3.43257
3.10307
2.73886
20596.2
20336.6
19962.9
19365.4
18518.9
17556.4
16562.2
15553.8
14509.5
13406.9
12241.6
11027.6
9790.54
8560.51
7366.33
6233.02
5179.63
4218.05
3352.75
2582.52
1903.99
1314.96
814.641
402.746
78.0118
-163.249
-327.679
-425.111
-468.446
-473.08
-455.523
-430.091
-405.919
-386.552
-371.541
-358.673
-344.87
-327.935
-307.873
-284.825
-259.645
-233.697
-208.336
-184.519
-162.694
-142.931
-125.119
-109.106
-94.7496
-81.923
-70.5075
-60.385
-51.4382
-43.5549
-36.6259
-30.5544
-25.2516
-20.6375
-16.6393
-13.1909
-10.2317
-7.70636
-5.56443
-3.76047
-2.25408
-1.00991
0.00261418
0.809828
1.43446
1.89638
2.21323
2.40101
2.47438
2.4469
2.3311
2.13847
1.87941
1.5641
1.20282
0.807873
-4267.86
-4176.93
-4027.79
-3814.62
-3549.72
-3263.7
-2959.51
-2636.34
-2300.76
-1967.67
-1653.82
-1370.73
-1122.93
-910.517
-730.131
-579.339
-454.787
-353.2
-270.915
-203.966
-148.891
-102.896
-64.0575
-31.546
-5.86825
10.7792
14.3532
-0.332588
-37.1202
-94.7106
-165.295
-237.925
-303.352
-356.708
-396.813
-424.457
-440.044
-443.596
-436.019
-418.431
-392.488
-360.663
-325.745
-290.289
-256.204
-224.63
-196.063
-170.582
-148.162
-128.461
-111.096
-95.8206
-82.4011
-70.6315
-60.3274
-51.3209
-43.4582
-36.5988
-30.6176
-25.4029
-20.8553
-16.887
-13.4203
-10.3866
-7.7247
-5.38055
-3.3057
-1.45689
0.204314
1.71163
3.09382
4.37681
5.5759
6.69426
7.73582
8.70675
9.60298
10.4204
11.149
11.7801
7007.77
6955.02
6783.8
6417.62
5856.53
5201.7
4507.44
3826.77
3216.66
2697.59
2252.15
1856.09
1497.79
1170.2
861.55
561.737
267.679
-16.213
-280.937
-517.095
-717.752
-879.839
-1005.12
-1099.26
-1168.28
-1214.73
-1236.78
-1229.32
-1188.76
-1117.13
-1023.43
-920.454
-819.875
-729.145
-650.529
-581.711
-519.403
-461.929
-408.156
-358.094
-312.383
-271.572
-235.793
-204.699
-177.661
-154.002
-133.145
-114.665
-98.2735
-83.762
-70.9767
-59.7726
-50.009
-41.5494
-34.2584
-28.0031
-22.6539
-18.0876
-14.1907
-10.8611
-8.00805
-5.55278
-3.42727
-1.57364
0.0570681
1.5064
2.80957
3.99633
5.09024
6.10853
7.06169
7.95407
8.78535
9.55185
10.2515
11.0118
11.76
12.4851
13.1559
13.7316
-11668.3
-10667.5
-9526.41
-8616.56
-7837.71
-7198.64
-6624.29
-6075.75
-5532.73
-4986.19
-4436.15
-3891.15
-3362.93
-2868.48
-2421.57
-2030.31
-1696.76
-1418.32
-1189.73
-1004.59
-856.447
-738.565
-643.665
-565.019
-496.167
-429.055
-352.651
-261.798
-162.022
-68.1844
7.23572
63.4906
106.616
139.395
159.468
164.708
157
141.396
122.523
103.455
85.8146
70.2816
57.0611
46.1208
37.3106
30.4079
25.1326
21.1835
18.2774
16.1725
14.661
13.5738
12.7829
12.1936
11.7389
11.3711
11.0634
10.8093
10.6065
10.4579
10.3694
10.3471
10.3953
10.5136
10.6949
10.9287
11.2117
11.5421
11.9152
12.3281
12.7731
13.2486
13.7528
14.2797
14.8334
15.3004
15.7415
16.1265
16.4383
16.6788
3790.61
3890.35
4075.84
4244.35
4318.9
4181.98
3834.26
3310.89
2673.54
2012.01
1412.47
919.987
529.952
215.787
-41.0662
-248.473
-411.626
-537.501
-634.389
-709.923
-768.237
-807.073
-818.289
-792.843
-723.9
-608.145
-449.417
-255.433
-46.403
147.043
295.813
385.946
422.22
420.814
399.19
370.062
340.281
312.427
286.887
263.317
241.247
220.205
200.128
181.038
163.143
146.516
131.152
117.036
104.144
92.4534
81.9311
72.5359
64.2739
57.1167
50.9752
45.634
41.0132
37.0574
33.683
30.813
28.3799
26.3275
24.6173
23.2227
22.0906
21.0834
20.2872
19.6979
19.275
18.9842
18.8037
18.713
18.6947
18.7396
18.8604
19.0705
19.3746
19.7382
20.0831
20.3253
9225.45
9095.18
8954.2
8762.06
8455.17
8031.2
7478.15
6813.71
6128.13
5562.85
5200.51
4982.45
4780.03
4523.32
4218.98
3888.94
3543.73
3191.95
2843.98
2509.27
2194.88
1904.59
1640.37
1405.03
1203.59
1044.57
938.254
884.469
869.217
869.437
864.774
844.204
806.438
755.768
698.181
638.447
579.5
522.982
469.772
420.32
374.887
333.729
296.69
263.552
233.927
207.548
184.195
163.632
145.614
129.882
116.171
104.217
93.7242
84.2098
75.6596
68.1539
61.5186
55.6099
50.3489
45.6742
41.545
37.9338
34.7997
32.075
29.715
27.9036
26.5021
25.3332
24.3753
23.5873
22.9268
22.368
21.9058
21.5557
21.3446
21.3063
21.4717
21.816
22.2562
22.708
-4276.95
-3666.9
-2919.88
-2321.28
-1888.09
-1644.58
-1503.74
-1399.05
-1279.77
-1112.58
-894.831
-650.643
-406.964
-174.48
48.705
264.164
469.19
658.619
826.819
968.782
1081.05
1162.51
1213.99
1237.83
1236.81
1213.81
1171.8
1113.59
1042.73
963.773
881.263
799.716
722.609
651.889
587.853
529.93
477.205
428.941
384.706
344.287
307.525
274.234
244.182
217.1
192.718
170.795
151.134
133.58
118.019
104.36
92.5278
82.4655
74.0871
67.4739
62.2665
58.1797
55.0355
52.5785
50.5282
48.6377
46.7228
44.6807
42.4911
40.2098
37.956
35.746
33.6562
31.6371
29.8744
28.3274
26.9483
25.7099
24.6017
23.6421
22.8845
22.3683
22.2099
22.4334
22.9787
23.7231
-3115.26
-3107.38
-3071.18
-2984.22
-2876.23
-2753.9
-2612.37
-2439.38
-2224.8
-1968.51
-1680.66
-1376.51
-1070.09
-772.937
-495.779
-248.128
-38.41
128.326
251.649
336.111
390.312
424.245
446.246
461.068
470.179
473.577
471.354
464.433
453.921
440.103
422.905
402.529
379.669
355.438
331.053
307.428
285.046
264.112
244.375
225.709
207.971
191.057
174.932
159.567
144.982
131.208
118.289
106.289
95.2856
85.3647
76.6128
69.1069
62.8862
57.9148
54.0629
51.2587
49.4846
48.1691
47.0536
45.9336
44.6511
43.1352
41.3968
39.5069
37.5649
35.6436
33.7894
32.303
30.9051
29.5998
28.3708
27.1709
25.9789
24.8187
23.7663
22.9875
22.5602
22.5783
23.0418
23.8453
8499.95
8332.37
8121.7
7829.27
7408.63
6901.67
6337.11
5736.23
5115.23
4485.83
3861.82
3258
2687.67
2160.14
1679.71
1247.64
864.273
528.826
239.537
-3.77919
-197.829
-337.223
-419.313
-449.141
-439.698
-406.876
-363.275
-315.902
-267.123
-217.701
-168.397
-120.541
-75.7722
-35.5794
-0.949154
27.807
50.7975
68.4956
81.573
90.6896
96.4797
99.5133
100.298
99.2942
96.9226
93.5598
89.5381
85.1455
80.6267
76.1833
71.9734
68.1143
64.6814
61.716
59.2243
56.9982
54.7341
52.6423
50.6261
48.5989
46.5225
44.3543
42.1819
40.068
38.0884
36.2827
34.7271
33.3476
32.1712
31.1075
30.0596
28.9532
27.7524
26.4835
25.2452
24.1743
23.4308
23.1296
23.2918
23.8515
-5223.11
-4524.41
-3586.77
-2624.59
-1660.6
-836.854
-153.47
396.221
809.582
1089.22
1252.39
1327.69
1342.96
1318.67
1267.54
1196.95
1110.26
1007.29
886.728
749.264
600.238
449.553
308.461
185.635
85.3131
7.98639
-47.9706
-84.9979
-105.834
-113.491
-111.284
-102.149
-88.64
-72.8735
-56.4394
-40.4249
-25.5071
-12.0455
-0.187498
10.0495
18.7251
25.9414
31.8213
36.4993
40.1182
42.827
44.7801
46.1279
47.0123
47.5581
47.8658
48.0065
48.0206
47.9178
47.6813
47.2747
46.6562
45.8016
44.6923
43.3268
41.7447
40.0588
38.3149
36.6191
35.0696
33.7732
32.7417
31.9674
31.3995
30.9243
30.4042
29.7224
28.8227
27.7329
26.5557
25.4554
24.59
24.066
23.9003
24.0785
915.449
567.329
146.524
-308.312
-808.352
-1306.33
-1776.86
-2192.34
-2538.26
-2818.62
-3049.08
-3245.05
-3408.19
-3521.9
-3558.85
-3492.06
-3302.53
-2984.84
-2557.06
-2067.19
-1580.51
-1151.98
-806.797
-543.239
-347.302
-204.154
-101.565
-30.1898
17.6089
48.0348
65.9518
75.0248
77.9484
76.7
72.7501
67.2096
60.9237
54.5283
48.4895
43.1321
38.6613
35.1796
32.7009
31.1673
30.4675
30.4584
30.9844
31.8958
33.0547
34.3139
35.6211
36.8614
37.9595
38.8511
39.4791
39.7968
39.7714
39.3885
38.6573
37.6132
36.3206
34.8725
33.381
31.9714
30.7656
29.8643
29.3244
29.0308
29.0407
29.1952
29.3038
29.2087
28.8255
28.1691
27.3406
26.4844
25.7352
25.1723
24.7967
24.629
-10149.1
-9318.12
-8229.01
-7121.85
-5991.99
-4968.42
-4051.6
-3238.93
-2528.8
-1915.69
-1393.75
-959.743
-609.235
-335.161
-129.408
14.784
101.921
137.78
132.065
99.1637
55.7661
16.2041
-11.2853
-24.6539
-25.7655
-18.36
-6.25891
7.64231
21.0676
32.1703
39.7465
43.2932
42.9893
39.5439
33.9369
27.1634
20.0752
13.3353
7.43908
2.74554
-0.506216
-2.20872
-2.42529
-1.2722
0.935931
3.867
7.21029
10.7222
14.2356
17.6372
20.8419
23.7723
26.3569
28.5341
30.2521
31.479
32.2021
32.4319
32.2049
31.585
30.6629
29.5536
28.3903
27.3141
26.4582
25.9279
25.7815
26.0838
26.6788
27.4148
28.1055
28.5793
28.7378
28.579
28.1794
27.6501
27.0915
26.5566
26.041
25.5758
11525.7
11418.7
11244.2
10913.6
10388.8
9702.19
8893.28
8003.92
7080.56
6165.35
5289.78
4470.45
3711.52
3014.18
2379.92
1812.67
1322.14
924.538
638.937
471.248
396.129
362.104
323.154
263.349
191.413
121.138
60.1613
10.96
-26.5983
-53.8519
-73.5818
-89.1248
-102.749
-114.726
-123.839
-128.694
-128.689
-124.138
-115.892
-104.936
-92.1766
-78.3876
-64.2176
-50.2164
-36.8482
-24.4769
-13.3434
-3.55966
4.86856
12.0042
17.9423
22.7858
26.6337
29.5781
31.7044
33.0942
33.8277
33.9883
33.6662
32.9619
31.9883
30.8698
29.7389
28.7278
27.9555
27.5093
27.4307
27.7584
28.3532
29.0768
29.7705
30.2911
30.5517
30.5357
30.2801
29.8458
29.2896
28.6416
27.8989
27.0808
989.637
1084.7
1235.77
1437.3
1710.86
2024.67
2351.75
2655.58
2897.42
3048.11
3097.78
3056.14
2944.35
2782.86
2587.27
2367.41
2129.7
1880.21
1622.64
1361.16
1097.65
834.298
576.507
333.19
113.929
-74.2942
-227.767
-344.929
-423.915
-464.906
-471.082
-450.868
-415.869
-376.102
-336.511
-297.408
-257.664
-217.332
-177.899
-141.19
-108.434
-80.0364
-55.8353
-35.4193
-18.3352
-4.16762
7.45467
16.8743
24.414
30.3712
35.0076
38.5415
41.1475
42.9633
44.0988
44.6456
44.6853
44.2959
43.5569
42.5528
41.3741
40.1167
38.8786
37.7531
36.8198
36.1321
35.707
35.5197
35.5065
35.5659
35.5974
35.5179
35.2765
34.8569
34.2668
33.5232
32.6429
31.6362
30.4999
29.2162
-8913.86
-8937.08
-8981.38
-9004.32
-8993.79
-8916.93
-8755.67
-8498.83
-8144.55
-7702.78
-7194.06
-6642.25
-6070.44
-5498.74
-4943.59
-4418.1
-3931.86
-3491.23
-3099.33
-2756.09
-2458.48
-2200.85
-1975.8
-1774.76
-1589.08
-1411.5
-1236.83
-1062.45
-889.791
-723.511
-571.627
-441.488
-336.134
-253.881
-189.996
-138.985
-96.4737
-60.0182
-28.7555
-2.48338
19.0107
36.114
49.3172
59.1447
66.1302
70.795
73.6255
75.0542
75.4451
75.0889
74.2066
72.9595
71.4611
69.7891
67.996
66.1179
64.1814
62.2093
60.2242
58.2517
56.3215
54.4664
52.7208
51.116
49.675
48.4083
47.3111
46.3542
45.4849
44.6351
43.7647
42.829
41.8073
40.693
39.4844
38.1782
36.7698
35.258
33.6451
31.8697
-3713.94
-3551.91
-3359.25
-3166.96
-2984.22
-2841.45
-2741.18
-2676.84
-2639.37
-2619.84
-2609.67
-2600.13
-2581.64
-2545.06
-2483.76
-2393.54
-2274.55
-2130.57
-1967.59
-1792.49
-1611.22
-1428
-1245.52
-1065.75
-890.661
-722.778
-565.062
-420.093
-289.813
-175.728
-78.8926
0.903514
64.9481
115.408
154.765
185.156
207.846
223.048
230.434
230.141
223.25
212.043
198.442
183.999
169.802
156.498
144.418
133.675
124.25
116.045
108.927
102.748
97.3649
92.6413
88.4576
84.7101
81.3125
78.1954
75.3056
72.6047
70.067
67.6772
65.427
63.3118
61.3265
59.462
57.7031
56.0271
54.4048
52.8051
51.1961
49.5624
47.894
46.1866
44.4367
42.6369
40.7761
38.8462
36.8539
34.7382
8241.24
8182.1
8127.2
8056.08
7929.25
7781.41
7634.18
7481.82
7295.29
7044.61
6717.17
6322.37
5885.44
5436.48
4999.85
4588.02
4203.83
3844.21
3504.55
3182.41
2877.52
2591.52
2327.06
2086.37
1870.03
1676.59
1503.22
1346.9
1205.08
1075.91
958.16
851.084
754.345
667.91
591.933
526.421
470.723
423.14
381.6
344.62
311.52
281.615
254.75
230.801
209.594
190.92
174.567
160.323
147.98
137.331
128.171
120.296
113.513
107.64
102.511
97.981
93.9259
90.2438
86.8529
83.6903
80.7087
77.8741
75.1629
72.5588
70.0502
67.6277
65.282
63.0027
60.7788
58.599
56.4532
54.334
52.2359
50.1538
48.0809
46.0062
43.9143
41.7881
39.6247
37.3884
14079.6
13821.9
13506.3
13053.7
12340.5
11410.7
10313.9
9147.62
8024.75
7022.26
6152.53
5386.03
4694.81
4073.25
3528.24
3063.18
2673.48
2352.05
2093.52
1892.7
1740.05
1618.54
1507.21
1390.82
1267.15
1144.65
1033.86
939.14
858.52
787.841
723.141
661.62
601.964
544.188
489.152
437.924
391.309
349.823
313.453
281.679
253.954
229.775
208.715
190.424
174.614
161.032
149.448
139.642
131.394
124.488
118.707
113.841
109.688
106.068
102.82
99.8158
96.9553
94.1697
91.4159
88.6707
85.9255
83.1801
80.4393
77.7102
75.0004
72.3177
69.6689
67.0604
64.4981
61.9874
59.5329
57.1386
54.8065
52.5352
50.3185
48.1444
45.9994
43.854
41.6916
39.458
-13586.2
-13143.9
-12593
-11958.8
-11245.6
-10476.4
-9645.32
-8745.07
-7773.44
-6744.78
-5694.4
-4668.75
-3711.07
-2852.84
-2111.94
-1494.1
-995.013
-602.573
-299.909
-71.7221
86.8875
168.187
167.907
103.846
20.1919
-43.7212
-73.1035
-72.1092
-51.512
-21.2758
11.6479
42.711
68.9867
89.0829
103.045
111.792
116.422
117.875
116.935
114.318
110.679
106.583
102.479
98.7037
95.487
92.9696
91.2138
90.2114
89.8908
90.1259
90.7483
91.5645
92.3762
93.0014
93.2927
93.1498
92.5247
91.4199
89.8793
87.9745
85.7895
83.4066
80.8968
78.3158
75.7031
73.085
70.4782
67.8938
65.341
62.8285
60.3655
57.961
55.6225
53.3555
51.1597
49.0266
46.934
44.8666
42.797
40.638
-4033.51
-4126.56
-4275.38
-4456.25
-4674.86
-4891.28
-5092.49
-5269.07
-5415.07
-5528.19
-5608.49
-5657.07
-5673.35
-5654.42
-5595.54
-5490.8
-5334.32
-5121.4
-4847.19
-4502.76
-4078.73
-3583.72
-3057.44
-2552.85
-2105.12
-1722.64
-1399.95
-1132.15
-914.065
-738.962
-597.381
-480.174
-381.471
-299.023
-232.106
-179.342
-138.326
-106.468
-81.6487
-62.2967
-47.1679
-35.1936
-25.404
-16.9381
-9.06754
-1.2314
6.93464
15.5863
24.6807
34.0089
43.2458
52.0112
59.9338
66.7085
72.1362
76.1419
78.7637
80.1301
80.4268
79.8668
78.6644
77.0171
75.092
73.0181
70.8838
68.7405
66.6091
64.4917
62.3862
60.2875
58.1969
56.1208
54.0603
52.0416
50.0629
48.1258
46.2261
44.3557
42.4972
40.5603
4397.57
4516.19
4700.2
4890.99
5060.55
5164.12
5208
5201.25
5141.94
5025.81
4853.06
4629.36
4363.02
4062.95
3737.57
3393.93
3037.82
2674.27
2309.57
1953.82
1620.01
1320.65
1063.24
846.055
660.983
499.646
356.798
230.416
117.762
17.0456
-68.5429
-133.073
-172.03
-186.181
-182.7
-170.834
-157.394
-145.78
-137.094
-131.186
-126.86
-123.119
-118.84
-113.011
-104.92
-94.23
-80.9822
-65.5537
-48.5791
-30.8567
-13.2758
3.32097
18.2223
30.9261
41.1883
49.0222
54.6511
58.4288
60.752
61.9861
62.4226
62.2766
61.7106
60.8598
59.8395
58.7356
57.5957
56.4305
55.2275
53.9674
52.6365
51.2324
49.7634
48.246
46.6976
45.1328
43.5619
41.9933
40.4357
38.829
12.791
13.5865
13.8227
13.7956
13.6772
13.5218
13.3106
13.0094
12.5948
12.058
11.3996
10.6255
9.74666
8.78279
7.76466
6.73194
5.72486
4.77356
3.892
3.08017
2.33152
1.64019
1.00555
0.434277
-0.0612977
-0.470532
-0.782869
-0.989513
-1.086
-1.07434
-0.964197
-0.77282
-0.523196
-0.240853
0.0499223
0.329233
0.583257
0.804225
0.989152
1.13813
1.25278
1.33518
1.38708
1.4095
1.40252
1.36519
1.29563
1.19134
1.04992
0.869946
0.651892
0.398651
0.115688
-0.18903
-0.505133
-0.819947
-1.11884
-1.38608
-1.60625
-1.76587
-1.85492
-1.86755
-1.80186
-1.65874
-1.45163
-1.18183
-0.85934
-0.493671
-0.0942184
0.329942
0.770282
1.21897
1.66896
2.11411
2.5492
2.96992
3.37287
3.75541
4.11562
4.45223
4.76455
5.05243
5.31611
5.5562
5.77362
5.96953
6.14528
6.3023
6.44204
6.56593
6.67534
6.77154
6.85573
6.92894
6.99208
7.04595
7.09127
7.12865
7.15858
7.18148
7.19766
7.20735
7.21071
7.20786
7.1989
7.18391
7.16295
7.13609
7.1034
7.06494
7.02077
6.97088
6.9152
6.85353
6.78555
6.71079
6.62862
6.53833
6.43911
6.33018
6.2108
6.08032
5.93826
5.78435
5.61854
5.44109
5.2526
5.05409
4.84698
4.63321
4.41519
4.19582
3.97847
3.76695
3.56548
3.37855
3.21082
3.06691
2.9512
2.86759
2.81908
2.80783
2.83499
2.90008
3.00113
3.13485
3.29682
3.48155
3.6828
3.89396
4.1086
4.32101
4.5264
4.7208
4.90065
5.06241
5.20259
5.31794
5.40593
5.46494
5.49422
5.49368
5.4635
5.40379
5.31449
5.19531
5.0459
4.866
4.65569
4.41542
4.14604
3.84879
3.52524
3.17731
2.80742
2.41855
2.01449
1.59981
1.17983
0.760478
0.347995
-0.0512908
-0.431179
-0.785714
-1.10924
-1.3964
-1.6422
-1.84201
-1.99176
-2.08804
-2.12835
-2.11123
-2.03643
-1.90517
-1.72024
-1.48488
-1.20681
-0.886175
-0.548151
-0.157053
14.5914
15.1302
15.0228
14.6763
14.3285
14.0254
13.7166
13.3543
12.9086
12.3691
11.7351
11.0103
10.2022
9.32453
8.39906
7.45658
6.53139
5.6525
4.83671
4.0879
3.40204
2.77343
2.19909
1.68457
1.23502
0.859295
0.565258
0.358906
0.242111
0.211263
0.256608
0.362674
0.510055
0.67819
0.848334
1.00584
1.14114
1.24942
1.32945
1.38209
1.40907
1.41203
1.39175
1.34782
1.27854
1.181
1.05145
0.885972
0.681363
0.436122
0.151214
-0.169553
-0.519455
-0.888863
-1.26523
-1.63326
-1.97556
-2.27399
-2.51164
-2.67471
-2.75398
-2.74537
-2.64946
-2.47206
-2.21902
-1.90289
-1.53265
-1.11828
-0.669905
-0.197283
0.290423
0.784785
1.27824
1.7642
2.23714
2.6926
3.12711
3.53813
3.92389
4.28334
4.616
4.92192
5.20152
5.45557
5.68512
5.89148
6.07613
6.24063
6.38656
6.51549
6.62892
6.7283
6.8149
6.88991
6.95435
7.00913
7.05505
7.09278
7.1229
7.14587
7.16203
7.17168
7.175
7.17216
7.16328
7.14844
7.12774
7.10126
7.06905
7.03118
6.98765
6.93844
6.88337
6.82218
6.75444
6.67956
6.59682
6.50539
6.40437
6.29285
6.16998
6.03499
5.88726
5.72634
5.55201
5.36434
5.16374
4.95102
4.72752
4.49506
4.25606
4.01351
3.771
3.53267
3.3032