/*--------------------------------*- C++ -*----------------------------------*\
| =========                 |                                                 |
| \\      /  F ield         | OpenFOAM: The Open Source CFD Toolbox           |
|  \\    /   O peration     | Version:  2012                                  |
|   \\  /    A nd           | Website:  www.openfoam.com                      |
|    \\/     M anipulation  |                                                 |
\*---------------------------------------------------------------------------*/
FoamFile
{
    version     2.0;
    format      ascii;
    class       surfaceScalarField;
    location    "0.61";
    object      phi;
}
// * * * * * * * * * * * * * * * * * * * * * * * * * * * * * * * * * * * * * //

dimensions      [0 3 -1 0 0 0 0];
oriented        oriented;


internalField   nonuniform List<scalar> 
84340
(
-0.000358354
0.000339684
1.86697e-05
-0.000972707
0.000619851
-5.49765e-06
-0.00154503
0.000655559
-8.32336e-05
-0.00197403
0.000617112
-0.000188111
-0.00225747
0.000561752
-0.000278318
-0.00241699
0.000480859
-0.000321339
-0.00246458
0.000371351
-0.000323758
-0.00239295
0.000232696
-0.000304327
-0.0021891
7.04371e-05
-0.000274291
-0.00185438
-0.000101775
-0.000232939
-0.0013929
-0.000274355
-0.000187129
-0.000816654
-0.000434151
-0.000142092
-0.000143899
-0.000566395
-0.000106361
0.000601994
-0.000657892
-8.80011e-05
0.00139499
-0.000704653
-8.83406e-05
0.00221228
-0.000714367
-0.000102924
0.00302518
-0.000687336
-0.000125567
0.00381068
-0.000634185
-0.000151315
0.00454094
-0.000558117
-0.00017214
0.00519649
-0.000472255
-0.000183296
0.0057529
-0.000377535
-0.000178876
0.00619751
-0.000275562
-0.000169042
0.00653016
-0.000168146
-0.000164508
0.00676304
-5.83905e-05
-0.000174485
0.00691284
4.96408e-05
-0.000199445
0.00699167
0.000152912
-0.000231742
0.0070036
0.000251329
-0.000263257
0.00694774
0.000347547
-0.000291686
0.00681961
0.000444458
-0.00031633
0.00661187
0.000540713
-0.000332971
0.00631627
0.000626811
-0.00033121
0.005929
0.000689208
-0.000301943
0.00545697
0.000716917
-0.000244889
0.00492643
0.000707105
-0.000176566
0.00437888
0.000665169
-0.000117613
0.00385416
0.000600218
-7.55008e-05
0.00337933
0.000519776
-4.49464e-05
0.00296611
0.000428021
-1.47942e-05
0.00261903
0.000325896
2.11807e-05
0.00233815
0.000215876
6.50065e-05
0.00212355
8.20363e-05
0.000132563
0.00196292
-5.70596e-05
0.000217687
0.00185066
-0.000208643
0.000320898
0.00177944
-0.000367888
0.000439116
0.0017417
-0.000529664
0.000567396
0.00173019
-0.000688372
0.000699889
0.00173814
-0.000838419
0.000830461
0.00175951
-0.000974464
0.000953099
0.00178889
-0.00109141
0.00106203
0.0018213
-0.00118416
0.00115175
0.00185178
-0.00124766
0.00121718
0.00187534
-0.0012777
0.00125413
0.0018876
-0.00127213
0.00125987
0.00188567
-0.00123177
0.00123371
0.00186876
-0.00116032
0.00117723
0.001838
-0.00106338
0.00109414
0.00179526
-0.000947425
0.000990162
0.00174171
-0.000819437
0.000872991
0.00167696
-0.000687527
0.00075228
0.0015996
-0.000561658
0.000639018
0.00150898
-0.000453153
0.000543765
0.00140723
-0.000372271
0.000474022
0.00130005
-0.000324767
0.000431953
0.00119563
-0.000309473
0.000413887
0.00110221
-0.000318555
0.000411979
0.00102552
-0.000340422
0.00041711
0.000967525
-0.00036363
0.000421622
0.000926594
-0.000379932
0.000420863
0.000898781
-0.00038553
0.000413343
0.000879543
-0.000380663
0.0003999
0.000865267
-0.000368222
0.000382497
0.000854251
-0.000352152
0.000363167
0.00084695
-0.000336134
0.000343436
0.000845593
-0.000322824
0.000324182
0.000853441
-0.000313661
0.000305814
0.000873964
-0.000309093
0.00028857
0.000910219
-0.000308993
0.000272737
0.000964605
-0.00031308
0.000258695
0.00103922
-0.000321367
0.000246752
-0.000334704
0.000237036
0.00113689
0.000483948
-0.000144264
0.00121682
-0.000113021
0.00198161
-0.000109236
0.00279897
-0.000200241
0.00365752
-0.000296804
0.00452905
-0.000390671
0.00537377
-0.000473366
0.0061448
-0.000538333
0.00679499
-0.000579758
0.0072846
-0.000591375
0.00757877
-0.000568528
0.00765604
-0.000511419
0.00751264
-0.000422999
0.00717121
-0.000316462
0.00666828
-0.00020172
0.00604305
-8.91432e-05
0.00534596
9.75627e-06
0.00462167
9.01073e-05
0.00391541
0.000148141
0.00325273
0.000190426
0.00264993
0.000225262
0.0021185
0.00025587
0.00166469
0.000285662
0.00128928
0.000317027
0.000987513
0.000351403
0.000751155
0.00038927
0.000572294
0.00043019
0.000447198
0.000472644
0.000377767
0.000513889
0.000368525
0.000549955
0.000419744
0.000575592
0.000523442
0.000585511
0.000664594
0.000575764
0.000826308
0.000545391
0.000995503
0.000495975
0.00116502
0.000430697
0.00133266
0.00035214
0.00149632
0.00026436
0.00166396
0.000158253
0.00183801
4.18321e-05
0.00200403
-8.39886e-05
0.00216557
-0.0002186
0.00231616
-0.00035923
0.00245035
-0.000502074
0.0025632
-0.000642514
0.00265045
-0.000775623
0.00270859
-0.000896557
0.00273487
-0.00100075
0.00272708
-0.00108362
0.00268317
-0.00114025
0.00260147
-0.00116595
0.00248192
-0.00115815
0.00232779
-0.001118
0.00214648
-0.00105046
0.00194909
-0.000962936
0.00174895
-0.000863236
0.00155934
-0.000757813
0.00139127
-0.000651374
0.00125193
-0.00054818
0.00114404
-0.000453776
0.00106629
-0.000375396
0.00101433
-0.000320316
0.000982502
-0.000292936
0.000965419
-0.00029239
0.000959119
-0.000312255
0.000961291
-0.000342595
0.000970774
-0.000373114
0.000986709
-0.000395867
0.00100782
-0.00040664
0.00103216
-0.000405002
0.0010574
-0.000393465
0.0010815
-0.000376256
0.00110342
-0.000358054
0.00112356
-0.000342963
0.00114378
-0.00033388
0.00116699
-0.000332305
0.00119653
-0.000338528
0.00123548
-0.000352028
0.00128607
-0.000371957
-0.000396924
0.00134829
-0.00050109
0.000356826
-0.00108289
0.000468778
-0.00159357
0.000401446
-0.00216784
0.000374027
-0.00283729
0.000372647
-0.00359305
0.00036509
-0.00442087
0.000354452
-0.00530769
0.000348488
-0.00623122
0.000343771
-0.00716294
0.000340346
-0.00806248
0.000331014
-0.00887909
0.000305188
-0.00956045
0.000258357
-0.0100698
0.00019285
-0.0103866
0.000115079
-0.0105077
3.20385e-05
-0.0104475
-5.04496e-05
-0.0102296
-0.000127784
-0.0098873
-0.000194201
-0.00945239
-0.000244477
-0.00895024
-0.000276891
-0.00840238
-0.000291995
-0.00782563
-0.000291089
-0.00723229
-0.000276309
-0.00663045
-0.000250441
-0.00602473
-0.000216451
-0.00541685
-0.000177684
-0.00480662
-0.00013759
-0.0041928
-9.9935e-05
-0.00357414
-6.87031e-05
-0.002951
-4.75421e-05
-0.00232729
-3.81985e-05
-0.00170868
-4.28515e-05
-0.00110297
-6.03151e-05
-0.000513595
-9.34021e-05
4.88501e-05
-0.000131749
0.000583126
-0.000182136
0.00109011
-0.000242628
0.00156007
-0.0003117
0.00198908
-0.000387177
0.00237244
-0.000467354
0.00270345
-0.000549606
0.00297489
-0.000630676
0.00317975
-0.000706931
0.00331209
-0.000774855
0.00336832
-0.000831849
0.00334865
-0.000876891
0.00325724
-0.000909338
0.00309946
-0.000925845
0.00287893
-0.000919713
0.00259856
-0.000885589
0.00226615
-0.000825742
0.00189917
-0.00075102
0.0015239
-0.000675184
0.00116882
-0.000607861
0.000857459
-0.000551876
0.000604923
-0.000505277
0.000418468
-0.000464919
0.000299508
-0.000429221
0.000244873
-0.000399141
0.000247036
-0.000377559
0.000294326
-0.000367605
0.000372147
-0.000370757
0.000465419
-0.000385661
0.000561398
-0.000408235
0.000651694
-0.000432891
0.000732729
-0.000454148
0.00080476
-0.000467898
0.000870144
-0.000472024
0.000931615
-0.000466473
0.000991115
-0.000452965
0.00104937
-0.000434514
0.00110614
-0.000414822
0.0011608
-0.00039762
0.00121297
-0.000386057
0.00126296
-0.000382293
0.00131176
-0.000387324
0.00136081
-0.000401081
0.00141155
-0.000422696
-0.000450086
0.00146471
0.000612655
-0.000255829
0.00128773
-0.000206293
0.00147149
0.000217678
0.00117361
0.000671913
0.000571396
0.000974859
-0.000177386
0.00111387
-0.000972945
0.00115001
-0.00176924
0.00114478
-0.00256349
0.00113802
-0.00335522
0.00113208
-0.0041278
0.00110359
-0.00484577
0.00102316
-0.00545897
0.000871556
-0.00592222
0.000656101
-0.00619809
0.000390946
-0.00627378
0.000107728
-0.00616222
-0.000162008
-0.00589644
-0.000393564
-0.00551649
-0.000574157
-0.0050572
-0.000703764
-0.00454264
-0.000791448
-0.00398442
-0.00085022
-0.00339811
-0.000877397
-0.00279376
-0.000880656
-0.00218252
-0.000861679
-0.00157917
-0.000819806
-0.0010011
-0.000755745
-0.00046385
-0.000674844
2.46575e-05
-0.000588442
0.000465894
-0.000509939
0.000867303
-0.000448951
0.0012366
-0.000407493
0.0015757
-0.00038195
0.00188228
-0.000366902
0.00214657
-0.000357687
0.00238384
-0.000369024
0.00259684
-0.000395133
0.00278605
-0.000431832
0.00294975
-0.000475408
0.00308483
-0.000522256
0.00318563
-0.000568147
0.00324374
-0.000607724
0.00324759
-0.000634523
0.00318196
-0.000641302
0.00302999
-0.000622886
0.00277909
-0.000580949
0.00242982
-0.00052762
0.00200178
-0.000481301
0.00153068
-0.000454735
0.00105745
-0.000446482
0.000617199
-0.000445342
0.000233875
-0.000442418
-7.91826e-05
-0.000437963
-0.000317085
-0.000437282
-0.00048157
-0.000443376
-0.000579105
-0.000454341
-0.000618365
-0.000466016
-0.000607798
-0.000475486
-0.000554713
-0.000482306
-0.000466071
-0.000487784
-0.000349815
-0.000493815
-0.000215545
-0.000501876
-7.38914e-05
-0.000512411
6.51103e-05
-0.000524664
0.00019384
-0.000536965
0.000308243
-0.000547294
0.000407934
-0.00055384
0.000495373
-0.000555336
0.000574581
-0.000551233
0.000649839
-0.000541732
0.000724659
-0.000527784
0.000801179
-0.000511033
0.000880021
-0.000493665
0.000960532
-0.00047813
0.00104127
-0.000466795
0.00112055
-0.000461578
0.00119692
-0.000463687
0.00126935
-0.000473516
0.00133736
-0.000490703
-0.00051378
0.00140105
-0.0003203
6.44711e-05
-0.000940143
0.00041355
-0.00162525
0.000902785
-0.00225161
0.00129827
-0.00277228
0.00149553
-0.00317585
0.00151743
-0.00345377
0.00142793
-0.00360515
0.00129617
-0.00363211
0.00116498
-0.00354618
0.00104615
-0.00336748
0.000924888
-0.00312298
0.000778666
-0.00284283
0.000591408
-0.00254793
0.000361192
-0.00225819
0.000101213
-0.00198498
-0.000165481
-0.00173244
-0.000414549
-0.00149794
-0.000628062
-0.0012736
-0.000798502
-0.0010532
-0.000924164
-0.00082624
-0.00101841
-0.000587474
-0.00108899
-0.000324514
-0.00114036
-3.25176e-05
-0.00117265
0.000285987
-0.00118018
0.000611385
-0.0011452
0.000905301
-0.00104966
0.00111316
-0.000882703
0.0012022
-0.000677484
0.0011977
-0.000505439
0.00113812
-0.000389368
0.00103831
-0.000307687
0.000912667
-0.000256305
0.000784226
-0.000238461
0.000671832
-0.000245293
0.000568775
-0.000265967
0.000467289
-0.000293648
0.000360671
-0.000325214
0.000243411
-0.000358149
0.000110897
-0.000389742
-4.03292e-05
-0.00041692
-0.000212011
-0.000436042
-0.000403531
-0.000443004
-0.000610692
-0.000434141
-0.000825031
-0.000408546
-0.00103443
-0.000371545
-0.00122533
-0.000336729
-0.00138425
-0.000322377
-0.00149884
-0.00034014
-0.00155996
-0.000385364
-0.00156497
-0.000440333
-0.00151896
-0.000488426
-0.00143377
-0.000523154
-0.00132509
-0.000545965
-0.00120748
-0.000560982
-0.00109011
-0.000571708
-0.000975871
-0.000580259
-0.000863611
-0.000587746
-0.000751136
-0.00059478
-0.000637202
-0.000601718
-0.000522285
-0.000608732
-0.000408382
-0.000615779
-0.000298209
-0.000622584
-0.000194206
-0.000628666
-9.77408e-05
-0.000633431
-8.77085e-06
-0.000636264
7.40005e-05
-0.000636611
0.000152736
-0.000634073
0.000229968
-0.000628465
0.000308141
-0.000619905
0.00038923
-0.000608873
0.000474446
-0.000596249
0.000564053
-0.000583272
0.000657347
-0.000571424
0.000752801
-0.00056225
0.000848359
-0.000557136
0.000941796
-0.000557125
0.00103109
-0.000562813
0.00111475
-0.000574356
-0.000591804
0.00119277
-0.000343391
0.000407862
-0.000588914
0.000659072
-0.000438394
0.000752265
1.45981e-05
0.000845282
0.000588369
0.000921763
0.00114976
0.00095604
0.00163755
0.000940141
0.00206481
0.000868912
0.00249408
0.000735706
0.00299982
0.000540413
0.00363007
0.000294634
0.00437284
3.58971e-05
0.00515717
-0.000192922
0.00587519
-0.000356828
0.0064193
-0.000442902
0.00671689
-0.000463063
0.00674609
-0.000443752
0.0065314
-0.000413375
0.00612647
-0.00039357
0.0055991
-0.000396797
0.00500741
-0.000426716
0.0043988
-0.000480368
0.00382092
-0.00056248
0.00328294
-0.000634673
0.00279009
-0.000687337
0.00234184
-0.000696951
0.00192389
-0.000631711
0.00150671
-0.000465526
0.00104687
-0.000217644
0.000502411
3.90185e-05
-0.000124545
0.000237588
-0.000767562
0.00033533
-0.00133798
0.000314113
-0.00178828
0.000211839
-0.0021133
7.97256e-05
-0.00233904
-4.02293e-05
-0.00249233
-0.00014035
-0.0025935
-0.000224049
-0.00265517
-0.000296474
-0.0026844
-0.00036051
-0.00268481
-0.000416516
-0.00265732
-0.000463534
-0.00259987
-0.000500446
-0.00250743
-0.000526583
-0.00237389
-0.000542087
-0.00219705
-0.000548384
-0.00198499
-0.000548794
-0.00175914
-0.000548221
-0.00154831
-0.000550976
-0.00137548
-0.000558196
-0.00124773
-0.000568078
-0.00115762
-0.000578541
-0.00109196
-0.000588812
-0.00103885
-0.000599077
-0.000990128
-0.0006097
-0.00094099
-0.000620847
-0.000888804
-0.000632445
-0.000832279
-0.000644271
-0.000771023
-0.000656036
-0.000705313
-0.000667428
-0.000635908
-0.000678136
-0.000563841
-0.000687847
-0.000490171
-0.000696255
-0.000415775
-0.000703062
-0.000341211
-0.000707995
-0.000266658
-0.000710818
-0.000191908
-0.00071136
-0.000116432
-0.00070955
-3.9455e-05
-0.000705442
3.9897e-05
-0.000699257
0.000122425
-0.000691401
0.000208659
-0.000682483
0.000298682
-0.000673295
0.000392025
-0.000664766
0.00048766
-0.000657885
0.000584122
-0.000653598
0.000679729
-0.000652731
0.000772872
-0.000655956
0.000862404
-0.000663888
-0.00067823
0.00094883
0.000631873
-0.000224011
0.00160595
-0.000315
0.00247941
-0.000121197
0.00318639
0.000138301
0.00373553
0.000372619
0.00410802
0.000583554
0.00428342
0.000764738
0.00426312
0.000889216
0.00410439
0.000894437
0.00392973
0.000715067
0.00387197
0.000352394
0.00400664
-9.877e-05
0.00431752
-0.000503803
0.00472735
-0.000766662
0.00514932
-0.000864867
0.00551943
-0.000833179
0.00580279
-0.000727113
0.0059844
-0.000594985
0.00605588
-0.000465042
0.00600637
-0.000347293
0.00582047
-0.000240819
0.00548913
-0.000149019
0.0050074
-8.07562e-05
0.00440819
-3.54589e-05
0.00371728
3.5748e-06
0.00295564
6.46858e-05
0.00216392
0.000160014
0.00139919
0.000299203
0.000709969
0.000471575
0.000116339
0.000632648
-0.000358802
0.000712729
-0.000676945
0.000653473
-0.000825993
0.000463161
-0.000840284
0.00022613
-0.000781455
2.08967e-05
-0.000706529
-0.000115155
-0.000650049
-0.00019683
-0.000624734
-0.000249365
-0.000628683
-0.000292525
-0.000652744
-0.000336449
-0.000687502
-0.000381758
-0.000726096
-0.000424941
-0.000764262
-0.00046228
-0.000799263
-0.000491582
-0.000828737
-0.000512613
-0.000850294
-0.000526827
-0.000862409
-0.00053668
-0.000865908
-0.000544722
-0.00086404
-0.000552844
-0.000860223
-0.000562012
-0.000855848
-0.000572452
-0.000850378
-0.000584011
-0.000842708
-0.000596481
-0.000831994
-0.00060979
-0.000817688
-0.000624005
-0.000799323
-0.000639212
-0.000776378
-0.000655389
-0.000748317
-0.000672332
-0.000714711
-0.000689643
-0.000675372
-0.000706768
-0.000630444
-0.000723063
-0.000580412
-0.000737879
-0.000526026
-0.00075064
-0.00046817
-0.000760918
-0.00040769
-0.000768474
-0.000345241
-0.000773266
-0.00028118
-0.000775421
-0.000215538
-0.000775192
-0.000148065
-0.000772916
-7.83308e-05
-0.00076899
-5.86586e-06
-0.000763866
6.97033e-05
-0.000758053
0.000148531
-0.000752123
0.000230476
-0.000746712
0.000315084
-0.000742492
0.000401641
-0.000740155
0.000489295
-0.000740386
0.00057722
-0.00074388
0.000664896
-0.000751564
-0.000765915
0.000752582
-4.21666e-05
-0.000181845
-4.35556e-05
-0.000313611
1.72005e-05
-0.000181953
0.000135134
2.03677e-05
0.000255024
0.000252729
0.000347335
0.000491242
0.000477988
0.000634085
0.000712375
0.000654829
0.00102201
0.000584799
0.00133277
0.000404312
0.0015734
0.000111764
0.00171141
-0.000236786
0.00177004
-0.000562428
0.00182312
-0.000819742
0.00194675
-0.000988494
0.00216559
-0.00105202
0.00246202
-0.00102354
0.00281514
-0.000948106
0.00320777
-0.000857669
0.00361139
-0.000750918
0.00398814
-0.000617567
0.00429584
-0.000456724
0.00449265
-0.000277561
0.00454966
-9.24744e-05
0.00446368
8.95564e-05
0.00423844
0.000289923
0.00393008
0.000468376
0.00359172
0.000637563
0.00326799
0.000795308
0.00297846
0.00092218
0.00270544
0.000985745
0.00239633
0.000962587
0.00199423
0.000865255
0.0014841
0.000736263
0.000894298
0.000610699
0.00027718
0.000501962
-0.000287126
0.000367476
-0.000756575
0.000220084
-0.00110819
5.90925e-05
-0.00134015
-0.000104493
-0.00146365
-0.000258257
-0.00149685
-0.000391737
-0.00146044
-0.000498695
-0.00137457
-0.000577455
-0.00125709
-0.000630084
-0.001123
-0.000660924
-0.000984505
-0.000675171
-0.000851396
-0.000677832
-0.000731071
-0.000673169
-0.000628537
-0.000664547
-0.000546435
-0.000654555
-0.000485253
-0.000645194
-0.000443667
-0.000638067
-0.000419
-0.000634458
-0.000407689
-0.000635316
-0.000405713
-0.000641188
-0.000408959
-0.000652144
-0.000413552
-0.000667739
-0.000416119
-0.000687076
-0.000414032
-0.000708855
-0.000405533
-0.000731562
-0.000389764
-0.000753648
-0.000366678
-0.000773726
-0.000336848
-0.000790748
-0.000301214
-0.000804109
-0.000260807
-0.000813672
-0.000216533
-0.000819696
-0.000169021
-0.000822703
-0.000118591
-0.000823346
-6.52886e-05
-0.000822294
-8.97559e-06
-0.000820179
5.05566e-05
-0.000817585
0.000113487
-0.000815053
0.00017989
-0.000813114
0.000249694
-0.000812296
0.000322679
-0.00081314
0.000398499
-0.000816205
0.000476731
-0.000822112
0.00055694
-0.000831773
-0.000847349
0.000638374
0.000125742
-0.000307586
0.00044071
-0.000628579
0.00113112
-0.000872362
0.00224879
-0.0010973
0.0036103
-0.00110879
0.00502128
-0.000919734
0.00633359
-0.000678224
0.00749129
-0.000502867
0.00847652
-0.000400436
0.00923431
-0.000353478
0.00972385
-0.000377771
0.0100095
-0.000522482
0.0102928
-0.000845727
0.0107489
-0.00127582
0.0112216
-0.00146116
0.0112472
-0.00107761
0.0105337
-0.000310088
0.00921955
0.000366063
0.00762422
0.000737657
0.00598612
0.000887178
0.00443754
0.000931012
0.00305515
0.000925676
0.00188477
0.000892813
0.000947699
0.000844597
0.000254358
0.000782897
-0.000205011
0.000749292
-0.000480555
0.00074392
-0.000591904
0.000748913
-0.000559088
0.000762492
-0.000408961
0.000772053
-0.000186466
0.00076325
4.90386e-05
0.000727082
0.000249274
0.000665019
0.000400097
0.00058544
0.00051829
0.000492506
0.000637096
0.000383156
0.000749184
0.000255388
0.000857222
0.000112046
0.000955705
-3.93901e-05
0.00102864
-0.000177431
0.00107077
-0.000300388
0.00107921
-0.000400174
0.00105746
-0.000476944
0.0010121
-0.0005321
0.000950894
-0.000568872
0.000880983
-0.000591014
0.000807874
-0.000602062
0.000735013
-0.000604971
0.000663921
-0.000602077
0.000594615
-0.000595241
0.00052612
-0.00058606
0.000457043
-0.000576117
0.000386095
-0.000567119
0.000312563
-0.000560926
0.000236674
-0.000559427
0.00015977
-0.000564284
8.42419e-05
-0.000576616
1.3229e-05
-0.000596726
-4.99265e-05
-0.00062392
-0.000102189
-0.000656592
-0.000141328
-0.000692423
-0.000166231
-0.000728745
-0.000176984
-0.000762974
-0.00017472
-0.000793012
-0.00016129
-0.000817539
-0.000138842
-0.00083612
-0.000109432
-0.000849106
-7.47486e-05
-0.000857388
-3.59841e-05
-0.000862111
6.15747e-06
-0.000864435
5.13674e-05
-0.000865389
9.96009e-05
-0.000865818
0.000150946
-0.000866398
0.000205512
-0.00086768
0.000263349
-0.000870134
0.000324396
-0.000874187
0.000388442
-0.000880252
0.000455114
-0.000888784
0.000523797
-0.000900456
-0.000916695
0.000593143
-0.000726157
0.000418571
-0.00171827
0.000363536
-0.0027683
0.000177666
-0.0041783
0.000312695
-0.00582679
0.000539712
-0.00746136
0.000714831
-0.00899851
0.000858925
-0.010469
0.000967583
-0.0118935
0.00102414
-0.0132651
0.0010181
-0.0145697
0.000926783
-0.0157747
0.000682532
-0.0168015
0.000181121
-0.0175382
-0.000539131
-0.0179112
-0.00108815
-0.0179247
-0.0010641
-0.0176889
-0.000545881
-0.0173484
2.55706e-05
-0.0169933
0.000382491
-0.0166169
0.000510855
-0.0161342
0.000448267
-0.0154539
0.000245413
-0.0145268
-3.42844e-05
-0.0133481
-0.000334111
-0.0119604
-0.000604849
-0.0104367
-0.000774418
-0.00889674
-0.000796015
-0.00747435
-0.000673477
-0.00624655
-0.000465307
-0.00522346
-0.000251043
-0.0043613
-9.89035e-05
-0.00361877
-1.54544e-05
-0.00296095
7.20025e-06
-0.00236071
-1.47962e-05
-0.00180401
-6.41992e-05
-0.00129261
-0.000128243
-0.00083923
-0.000197989
-0.000460323
-0.000266862
-0.000166109
-0.000333604
4.83565e-05
-0.000391896
0.000191655
-0.000443687
0.000280245
-0.000488763
0.000331029
-0.000527728
0.000359964
-0.000561036
0.000379744
-0.000588653
0.000398793
-0.000610063
0.000421312
-0.000624581
0.000448039
-0.000631699
0.000477281
-0.000631318
0.000505898
-0.000623859
0.000530122
-0.000610284
0.000546126
-0.000592122
0.000550486
-0.000571479
0.00054059
-0.00055103
0.000515058
-0.000533894
0.000474128
-0.000523353
0.000419882
-0.000522371
0.000356158
-0.000533002
0.000288101
-0.000555863
0.000221351
-0.000589842
0.000161142
-0.000632214
0.000111521
-0.000679123
7.48727e-05
-0.000726326
5.18629e-05
-0.000770002
4.17333e-05
-0.000807409
4.28185e-05
-0.000837206
5.31072e-05
-0.000859395
7.06901e-05
-0.000874971
9.40227e-05
-0.000885444
0.000122008
-0.000892421
0.000153957
-0.000897338
0.000189481
-0.000901341
0.000228373
-0.00090529
0.000270505
-0.000909811
0.000315741
-0.000915369
0.000363879
-0.000922324
0.000414616
-0.000930989
0.000467511
-0.00094168
0.0005219
-0.000954845
-0.000971354
0.000576559
0.00103782
-0.000619253
0.00254479
-0.00114343
0.00382624
-0.00110379
0.00479382
-0.00065488
0.00555914
-0.000225614
0.00627974
-5.76637e-06
0.00706223
7.64323e-05
0.00791487
0.000114948
0.00877894
0.000160061
0.00953548
0.00026156
0.00995395
0.00050831
0.00973811
0.000898371
0.00868137
0.00123787
0.00676941
0.00137283
0.00432488
0.00135637
0.00194131
0.00131946
2.4269e-05
0.00137116
-0.00148758
0.00153742
-0.00278278
0.00167768
-0.0038714
0.00159948
-0.0045926
0.00116947
-0.00483393
0.00048674
-0.00464021
-0.000228005
-0.00415758
-0.000816745
-0.00354405
-0.00121837
-0.00290942
-0.00140904
-0.00232202
-0.00138342
-0.00181801
-0.00117749
-0.00140876
-0.000874557
-0.00108828
-0.000571515
-0.000851911
-0.000335277
-0.000680334
-0.000187031
-0.000554851
-0.000118283
-0.00046346
-0.000106187
-0.000397403
-0.000130256
-0.000350114
-0.000175533
-0.000316009
-0.000232093
-0.000289734
-0.000293137
-0.000265709
-0.000357628
-0.000235934
-0.000421672
-0.000195933
-0.000483688
-0.000142983
-0.000541714
-7.71147e-05
-0.000593597
-8.75769e-07
-0.000637275
8.1584e-05
-0.000671113
0.000165672
-0.000694151
0.000247289
-0.000706198
0.000323289
-0.000707698
0.000391532
-0.000699561
0.000450666
-0.000682993
0.000499801
-0.00065942
0.000538218
-0.000630539
0.000565154
-0.000598416
0.000579737
-0.000565613
0.000581119
-0.000535276
0.000568777
-0.000511012
0.00054298
-0.000496574
0.000505195
-0.000495217
0.000458258
-0.000508926
0.000406164
-0.000537748
0.000353459
-0.000579509
0.000304447
-0.000630112
0.000262492
-0.000684371
0.000229627
-0.000737137
0.000206563
-0.000784346
0.000192993
-0.000823635
0.000188014
-0.000854416
0.000190516
-0.000877472
0.000199441
-0.000894368
0.000213903
-0.000906883
0.000233211
-0.000916646
0.000256828
-0.000924959
0.000284324
-0.000932787
0.000315322
-0.00094081
0.000349462
-0.000949508
0.000386369
-0.000959232
0.000425638
-0.000970259
0.000466809
-0.000982852
0.000509307
-0.000997342
-0.00101433
0.000552286
-0.000415207
-0.000204046
-0.00117074
-0.000387894
-0.00186069
-0.00041384
-0.00213521
-0.000380361
-0.00198677
-0.000374055
-0.00157602
-0.000416512
-0.000977348
-0.000522242
-0.000175107
-0.000687292
0.000839561
-0.000854607
0.0018556
-0.000754482
0.00233589
2.80176e-05
0.00199586
0.00123841
0.00132799
0.00190574
0.000925907
0.00177491
0.00086957
0.00141271
0.0010815
0.00110753
0.00154313
0.000909528
0.00224478
0.000835781
0.00308855
0.000833904
0.00393715
0.000750879
0.00461032
0.000496309
0.0049632
0.000133855
0.00492229
-0.000187092
0.00447713
-0.00037159
0.00367908
-0.000420319
0.00265186
-0.000381826
0.00157355
-0.000305111
0.000617477
-0.000221416
-0.000108601
-0.00014848
-0.00058235
-9.77656e-05
-0.000843932
-7.36947e-05
-0.000956693
-7.42708e-05
-0.000979953
-9.50231e-05
-0.000955914
-0.000130226
-0.000916857
-0.000169314
-0.000871439
-0.000220951
-0.00081714
-0.000286392
-0.000760369
-0.000349908
-0.000703416
-0.000414581
-0.000645506
-0.000479582
-0.000586028
-0.000543166
-0.000524812
-0.000602929
-0.000462254
-0.000656156
-0.000399209
-0.00070032
-0.000336828
-0.000733493
-0.000276184
-0.000754795
-0.000217953
-0.000764429
-0.00016224
-0.000763411
-0.000108668
-0.000753134
-5.66107e-05
-0.00073505
-5.44968e-06
-0.000710581
4.52104e-05
-0.000681199
9.53925e-05
-0.000648598
0.000144648
-0.000614868
0.000191986
-0.000582615
0.000235938
-0.000554964
0.000274677
-0.000535314
0.000306352
-0.000526892
0.000329496
-0.00053207
0.000343413
-0.000551665
0.00034838
-0.000584475
0.000345603
-0.000627335
0.000336979
-0.000675748
0.000324762
-0.00072492
0.000311228
-0.000770813
0.000298432
-0.000810839
0.000288038
-0.000844022
0.000281261
-0.000870695
0.00027887
-0.000891976
0.000281248
-0.000909261
0.000288473
-0.000923871
0.000300407
-0.000936892
0.000316761
-0.000949141
0.000337159
-0.000961207
0.000361168
-0.000973518
0.000388331
-0.000986395
0.000418169
-0.0010001
0.000450187
-0.00101487
0.000483839
-0.00103099
-0.00104892
0.000518426
-0.000121386
-8.26603e-05
-1.74927e-05
-0.000491787
0.000250362
-0.000681695
0.000354364
-0.000484364
0.000141184
-0.000160875
-0.00033512
5.97917e-05
-0.000962979
0.000105617
-0.00164659
-3.68412e-06
-0.00229961
-0.000201583
-0.00283745
-0.000216641
-0.00315309
0.000343652
-0.00318665
0.00127197
-0.0029958
0.00171489
-0.00269896
0.00147807
-0.00238411
0.00109787
-0.00209768
0.0008211
-0.00180906
0.000620907
-0.00146885
0.000495576
-0.00107156
0.00043661
-0.000723079
0.000402402
-0.000564013
0.000337243
-0.000655768
0.00022561
-0.000932982
9.01223e-05
-0.00126485
-3.97235e-05
-0.00153328
-0.000151886
-0.00166026
-0.00025485
-0.0016158
-0.00034957
-0.00141638
-0.000420834
-0.0011268
-0.000438057
-0.000833303
-0.000391264
-0.000610854
-0.000296144
-0.000498183
-0.000186941
-0.000495214
-9.79923e-05
-0.000573868
-5.15715e-05
-0.000690832
-5.23504e-05
-0.000819601
-9.21814e-05
-0.000947524
-0.000158469
-0.00105764
-0.000239795
-0.00114378
-0.000328433
-0.00120386
-0.000419504
-0.00123723
-0.000509803
-0.00124371
-0.000596443
-0.00122388
-0.000675993
-0.00117993
-0.000744268
-0.00111635
-0.000797071
-0.00103946
-0.000831684
-0.000955829
-0.000848061
-0.000870577
-0.000848663
-0.000786574
-0.000837136
-0.000704642
-0.000816982
-0.000624252
-0.000790971
-0.000544214
-0.000761237
-0.000463187
-0.000729624
-0.000380058
-0.000697997
-0.000294258
-0.000668415
-0.000206062
-0.000643161
-0.000116769
-0.000624606
-2.87677e-05
-0.000614893
5.46941e-05
-0.000615532
0.000129995
-0.000626966
0.000193829
-0.000648309
0.000243893
-0.000677399
0.000279445
-0.000711299
0.000301405
-0.00074688
0.000312117
-0.000781525
0.000314788
-0.00081351
0.000312826
-0.00084206
0.00030929
-0.000867159
0.000306563
-0.000889249
0.000306261
-0.000908959
0.000309317
-0.000926927
0.000316137
-0.000943714
0.000326773
-0.000959776
0.000341049
-0.000975483
0.000358664
-0.000991133
0.000379246
-0.00100698
0.000402386
-0.00102324
0.000427649
-0.00104013
0.000454563
-0.00105791
-0.00107688
0.000482525
0.000281642
-0.000364302
0.000650882
-0.000861028
0.000915808
-0.00094662
0.00106679
-0.000635348
0.00107906
-0.000173143
0.000910639
0.000228212
0.000508894
0.000507362
-0.000171271
0.000676481
-0.00112812
0.000755263
-0.00212555
0.000780792
-0.00260273
0.000820831
-0.00223165
0.00090089
-0.00148106
0.0009643
-0.000974812
0.000971819
-0.00081729
0.000940346
-0.000889686
0.000893496
-0.00110718
0.000838399
-0.00138778
0.000776175
-0.00165619
0.000705027
-0.00187453
0.000620741
-0.0020524
0.00051511
-0.00220887
0.000382081
-0.00233705
0.000218298
-0.00240463
2.78635e-05
-0.00237042
-0.000186099
-0.00222476
-0.000400515
-0.00199277
-0.000581556
-0.00171451
-0.000699096
-0.00141561
-0.000736952
-0.00111767
-0.000689209
-0.000833861
-0.000579953
-0.000580487
-0.000440315
-0.000374328
-0.000304151
-0.000228279
-0.000197621
-0.000147316
-0.000133312
-0.000127666
-0.000111832
-0.000158966
-0.000127169
-0.000228125
-0.000170637
-0.000317254
-0.000239304
-0.000411433
-0.000325325
-0.00049677
-0.000424465
-0.000561746
-0.000531467
-0.000599073
-0.000638666
-0.000607649
-0.000735692
-0.000593206
-0.000811515
-0.000566237
-0.000858653
-0.000537559
-0.00087674
-0.000514101
-0.000872121
-0.000497414
-0.000853823
-0.00048493
-0.000829466
-0.000472232
-0.00080367
-0.000454839
-0.000778631
-0.000429144
-0.000755319
-0.000392752
-0.000734389
-0.000344585
-0.000716582
-0.000284964
-0.000702783
-0.000215644
-0.000693926
-0.000139721
-0.000690816
-6.13506e-05
-0.000693903
1.4786e-05
-0.000703103
8.42141e-05
-0.000717737
0.000143462
-0.000736647
0.000190548
-0.000758385
0.000225291
-0.000781624
0.000249055
-0.000805289
0.00026422
-0.000828675
0.00027355
-0.00085139
0.000279654
-0.000873262
0.00028465
-0.000894246
0.000290063
-0.000914372
0.000296863
-0.000933727
0.000305589
-0.000952439
0.000316476
-0.000970664
0.000329567
-0.000988574
0.000344779
-0.00100635
0.000361959
-0.00102416
0.000380901
-0.00104218
0.000401365
-0.0010606
0.000423062
-0.0010796
-0.00109941
0.00044559
-0.000461614
9.73124e-05
-0.00171529
0.000392648
-0.00337591
0.000714003
-0.00487595
0.000864688
-0.00584939
0.0008003
-0.00624968
0.000628502
-0.00618352
0.000441198
-0.0057733
0.000266262
-0.00511665
9.86121e-05
-0.00426335
-7.25077e-05
-0.00318575
-0.000256769
-0.00183407
-0.000450791
-0.000226859
-0.000642906
0.00156006
-0.000815105
0.00344713
-0.000946721
0.005362
-0.00102138
0.00723464
-0.00103424
0.00900348
-0.000992668
0.0106187
-0.000910202
0.0120406
-0.000801128
0.0132347
-0.000678964
0.0141721
-0.00055533
0.0148258
-0.00043541
0.0151706
-0.000316925
0.015174
-0.000189535
0.0148332
-5.9723e-05
0.0141677
8.39302e-05
0.0132295
0.000239127
0.0120978
0.000394711
0.0108771
0.000531528
0.00966483
0.000632308
0.00853533
0.000689185
0.00752899
0.000702198
0.00666378
0.000667581