/*--------------------------------*- C++ -*----------------------------------*\
| =========                 |                                                 |
| \\      /  F ield         | OpenFOAM: The Open Source CFD Toolbox           |
|  \\    /   O peration     | Version:  2012                                  |
|   \\  /    A nd           | Website:  www.openfoam.com                      |
|    \\/     M anipulation  |                                                 |
\*---------------------------------------------------------------------------*/
FoamFile
{
    version     2.0;
    format      ascii;
    class       volVectorField;
    location    "0.61";
    object      U;
}
// * * * * * * * * * * * * * * * * * * * * * * * * * * * * * * * * * * * * * //

dimensions      [0 1 -1 0 0 0 0];


internalField   nonuniform List<vector> 
42400
(
(-5.57014 4.06478 4.37927e-17)
(-10.04 3.78063 6.17149e-17)
(-8.02748 -0.707363 -6.31653e-17)
(-7.05523 -6.52679 0)
(-6.162 -9.55275 0)
(-4.655 -12.4468 4.66202e-20)
(-1.76466 -15.7935 0)
(2.51798 -19.5822 -1.71696e-20)
(7.85863 -23.5561 0)
(13.9036 -27.3665 3.20005e-20)
(20.3154 -30.7235 5.86008e-20)
(26.7471 -33.3194 -8.22971e-20)
(32.7076 -34.7121 -2.40521e-17)
(37.6346 -34.5163 2.45107e-17)
(41.2318 -32.7601 -1.19731e-19)
(43.5856 -29.7347 0)
(44.9359 -25.7364 0)
(45.3769 -20.9606 0)
(45.0437 -15.7264 0)
(44.0437 -10.3266 0)
(42.4719 -5.0381 0)
(40.3755 -0.0128658 -2.0426e-19)
(37.8212 4.65538 -2.27384e-17)
(34.996 8.86659 3.2821e-19)
(32.1623 12.508 2.27038e-17)
(29.5085 15.5092 -1.66642e-19)
(27.0319 17.9179 -1.5541e-19)
(24.5359 19.9171 2.87935e-19)
(21.7745 21.7243 0)
(18.6303 23.3976 0)
(15.3184 24.7502 1.55789e-17)
(12.1753 25.4143 -1.57511e-17)
(9.50547 25.1188 1.56057e-19)
(7.43505 23.8454 -9.75115e-18)
(5.92869 21.8295 9.74634e-18)
(4.89851 19.4283 0)
(4.25696 16.9146 0)
(3.95735 14.4559 0)
(3.99039 12.0979 0)
(4.37657 9.82528 3.81347e-19)
(5.13745 7.60553 -3.82771e-19)
(6.25509 5.40268 2.12849e-18)
(7.67079 3.21417 2.88164e-19)
(9.29194 1.08506 -5.33473e-18)
(11.008 -0.926662 2.69414e-18)
(12.7098 -2.76075 -2.67761e-18)
(14.2983 -4.36557 5.33539e-18)
(15.6904 -5.70005 -2.46306e-18)
(16.8193 -6.73269 -1.47042e-19)
(17.6315 -7.44075 1.41408e-18)
(18.0855 -7.81096 -2.37362e-18)
(18.1553 -7.84369 2.77422e-19)
(17.8363 -7.55676 6.33596e-19)
(17.1502 -6.98575 -4.22316e-20)
(16.1437 -6.17964 0)
(14.8824 -5.19525 0)
(13.4434 -4.09473 0)
(11.9099 -2.94824 -3.76902e-20)
(10.371 -1.83945 -4.82122e-20)
(8.91977 -0.864824 0)
(7.64562 -0.11825 -1.64362e-18)
(6.6166 0.337624 1.69136e-18)
(5.86064 0.497759 1.74024e-18)
(5.35706 0.420005 -1.7086e-18)
(5.04568 0.203705 0)
(4.84945 -0.0459303 0)
(4.69867 -0.248729 1.71155e-18)
(4.54633 -0.3641 -1.67365e-18)
(4.37149 -0.388753 -1.81328e-19)
(4.17373 -0.343929 0)
(3.96435 -0.259764 0)
(3.75829 -0.162609 -1.6945e-19)
(3.56918 -0.0682249 -1.63693e-19)
(3.40725 0.0190551 0)
(3.27951 0.103127 -1.50318e-19)
(3.19069 0.191497 -1.20115e-18)
(3.14431 0.291491 1.16519e-18)
(3.14379 0.40855 2.55409e-19)
(3.19287 0.544212 9.84474e-19)
(3.28667 0.673329 8.72101e-19)
(-7.92627 9.03195 0)
(-19.0012 23.8825 -7.85045e-17)
(-22.2187 30.5576 8.03693e-17)
(-18.4122 33.4327 0)
(-12.9962 33.8465 0)
(-6.33115 33.6772 -5.84238e-17)
(0.722424 33.1736 5.96694e-17)
(7.7054 32.3968 1.72345e-20)
(14.228 31.2897 0)
(19.8498 29.8754 -3.21989e-20)
(24.0978 28.2986 -5.90438e-20)
(26.6148 26.7638 2.78313e-18)
(27.2543 25.4241 -5.86301e-18)
(26.09 24.3087 3.1714e-18)
(23.4646 23.425 8.60558e-18)
(19.8794 22.7029 -8.85759e-18)
(15.8289 21.9436 0)
(11.7046 20.9909 -3.03904e-19)
(7.752 19.8534 0)
(4.07216 18.6852 0)
(0.747293 17.5496 0)
(-2.19077 16.5254 -2.78436e-18)
(-4.75653 15.6812 1.34936e-18)
(-6.98232 15.0631 1.7728e-18)
(-8.91991 14.692 0)
(-10.6267 14.5615 4.77774e-19)
(-12.1387 14.6431 1.57096e-19)
(-13.4427 14.8882 -2.90899e-19)
(-14.4644 15.2263 2.54206e-18)
(-15.0877 15.563 -2.57166e-18)
(-15.1822 15.781 4.52576e-19)
(-14.6594 15.7649 4.15869e-19)
(-13.5115 15.4373 2.33948e-18)
(-11.8311 14.7929 -2.90211e-18)
(-9.77808 13.8896 -3.06684e-18)
(-7.51718 12.813 3.47268e-18)
(-5.16313 11.6313 0)
(-2.76625 10.3774 -2.51279e-19)
(-0.323605 9.06719 0)
(2.17382 7.72098 -4.35004e-19)
(4.72313 6.32022 4.0459e-18)
(7.27092 4.87804 -4.45985e-18)
(9.76377 3.42172 2.17541e-19)
(12.1383 1.99093 -2.26745e-19)
(14.319 0.617198 -6.30236e-20)
(16.2395 -0.666457 -2.15541e-19)
(17.8446 -1.82843 1.97611e-19)
(19.0883 -2.84099 2.68643e-18)
(19.9313 -3.67774 -2.70251e-18)
(20.3369 -4.31162 0)
(20.2747 -4.7186 9.97336e-20)
(19.7341 -4.88773 1.25281e-19)
(18.7416 -4.82932 6.97969e-19)
(17.3673 -4.57289 -7.29042e-19)
(15.7164 -4.15724 -6.70754e-20)
(13.9077 -3.62001 3.39098e-19)
(12.0513 -2.99176 -4.18176e-19)
(10.2395 -2.2985 3.77097e-20)
(8.55074 -1.57321 4.82517e-20)
(7.05963 -0.867855 -4.38577e-19)
(5.83817 -0.253096 4.31845e-19)
(4.94293 0.200278 -7.45453e-20)
(4.39294 0.449675 -4.0979e-20)
(4.15421 0.500962 0)
(4.14406 0.407412 1.04504e-18)
(4.25595 0.248687 8.1082e-20)
(4.39116 0.102718 -1.3248e-18)
(4.48149 0.0239078 0)
(4.49615 0.034108 3.21651e-19)
(4.43571 0.125513 -1.41529e-19)
(4.32034 0.270893 -1.25307e-18)
(4.17801 0.436103 1.39002e-18)
(4.03565 0.590959 1.35719e-18)
(3.91405 0.716039 -1.29503e-18)
(3.82636 0.804626 2.80388e-19)
(3.77893 0.860578 -1.05936e-18)
(3.77353 0.894021 7.87042e-19)
(3.80967 0.917047 -2.55236e-19)
(3.88555 0.939062 1.11594e-18)
(3.98077 0.946482 -8.79284e-19)
(-7.47074 3.32241 -2.93688e-17)
(-12.9652 4.72367 -1.56644e-19)
(-10.263 -0.912403 1.48207e-20)
(-4.59539 -9.19242 -1.28068e-19)
(-0.378366 -16.5492 0)
(2.51894 -23.4827 -7.01236e-17)
(4.16509 -29.946 1.33817e-16)
(4.55675 -35.7574 -6.35411e-17)
(3.59187 -40.7484 4.12222e-17)
(1.24176 -44.6341 -1.33012e-17)
(-2.38512 -47.217 -2.97492e-17)
(-6.94955 -48.5609 -1.25776e-20)
(-11.9173 -48.913 1.12265e-20)
(-16.7164 -48.5104 -2.11162e-17)
(-20.7609 -47.4204 2.15526e-17)
(-23.5753 -45.794 -1.90244e-19)
(-25.0269 -44.0273 4.50734e-17)
(-25.2828 -42.413 3.42699e-18)
(-24.635 -40.8989 -4.82737e-17)
(-23.397 -39.2842 -7.5452e-19)
(-21.8695 -37.4305 7.19096e-19)
(-20.2939 -35.2862 6.80203e-19)
(-18.8268 -32.8538 0)
(-17.5406 -30.1701 -2.63952e-19)
(-16.4422 -27.2935 -4.00872e-17)
(-15.4951 -24.2928 7.7377e-17)
(-14.6385 -21.2401 -3.80509e-17)
(-13.7974 -18.204 3.23608e-17)
(-12.8913 -15.2431 -3.27481e-17)
(-11.8433 -12.4105 -2.79942e-17)
(-10.5911 -9.7567 5.20003e-17)
(-9.10582 -7.32541 -2.40857e-18)
(-7.38074 -5.14079 -2.28795e-17)
(-5.45344 -3.22167 0)
(-3.35535 -1.56905 0)
(-1.13455 -0.192278 -2.93299e-19)
(1.17776 0.910364 0)
(3.55517 1.75927 -6.56716e-21)
(5.96619 2.36807 1.02587e-17)
(8.35144 2.75447 -1.93467e-17)
(10.6721 2.91718 9.51431e-18)
(12.8759 2.88931 0)
(14.899 2.69204 0)
(16.6756 2.34384 5.39029e-18)
(18.1462 1.86779 -5.10015e-18)
(19.2608 1.28763 -2.06011e-19)
(19.9871 0.627671 0)
(20.3092 -0.0832314 0)
(20.2118 -0.803619 2.11355e-18)
(19.6695 -1.47445 -2.10506e-18)
(18.6604 -2.03412 -9.95823e-20)
(17.1969 -2.44966 0)
(15.3549 -2.72867 -1.02654e-18)
(13.2803 -2.89739 9.0877e-19)
(11.1612 -2.9749 -1.1273e-18)
(9.17166 -2.96695 1.16356e-18)
(7.42296 -2.87071 -7.15921e-19)
(5.95833 -2.68177 1.28877e-18)
(4.78504 -2.40483 -8.74319e-19)
(3.90623 -2.06351 2.19715e-19)
(3.32871 -1.70055 1.08014e-19)
(3.04985 -1.36556 -3.30556e-19)
(3.04015 -1.09718 3.65737e-19)
(3.2363 -0.910094 0)
(3.5506 -0.793023 -6.73081e-19)
(3.89189 -0.716463 -1.03014e-19)
(4.18653 -0.6446 1.09116e-18)
(4.39032 -0.546254 0)
(4.48951 -0.402244 -2.52791e-19)
(4.49434 -0.208467 -8.79847e-19)
(4.42998 0.0249941 8.78909e-19)
(4.32775 0.277912 0)
(4.21823 0.525835 0)
(4.12649 0.746246 1.34219e-19)
(4.06955 0.923324 -1.30159e-19)
(4.05606 1.05023 -7.14215e-19)
(4.08739 1.12873 1.14942e-18)
(4.15987 1.16678 0)
(4.26683 1.1749 -2.17811e-19)
(4.39285 1.16223 -7.88422e-19)
(7.64757 -4.29146 1.15266e-16)
(24.7336 -6.72543 -1.66387e-16)
(25.9684 -10.9808 8.27236e-17)
(22.409 -5.41294 7.18352e-17)
(13.219 -3.22958 -7.36974e-17)
(4.82482 -1.55245 0)
(-3.01968 -0.752818 1.16966e-16)
(-10.6504 -0.151131 -1.19223e-16)
(-17.8708 0.354324 1.03379e-16)
(-24.0237 0.218128 -1.05618e-16)
(-28.3462 -1.22911 9.1735e-17)
(-30.3335 -4.26807 -1.79996e-16)
(-29.98 -8.58455 1.68452e-16)
(-27.7433 -13.4829 -1.57585e-16)
(-24.2631 -18.2244 1.46631e-16)
(-20.1626 -22.2221 -7.08106e-17)
(-15.9914 -25.0933 -5.96655e-17)
(-12.1868 -26.6694 1.1284e-16)
(-9.00595 -26.9911 -5.46891e-17)
(-6.5084 -26.2408 7.56781e-19)
(-4.61837 -24.6512 -4.74629e-19)
(-3.19555 -22.4323 -3.81179e-17)
(-2.11787 -19.769 3.77825e-17)
(-1.28175 -16.8238 5.96202e-19)
(-0.603324 -13.7282 0)
(-0.0309317 -10.5968 5.10178e-19)
(0.468475 -7.54173 0)
(0.903419 -4.67491 1.96e-17)
(1.3156 -2.08787 -2.61017e-18)
(1.78595 0.145607 -1.67537e-17)
(2.40164 1.98776 -1.29324e-17)
(3.20969 3.44538 1.25001e-17)
(4.21579 4.56089 4.65364e-19)
(5.37936 5.36089 -2.43919e-20)
(6.66174 5.85685 -6.53385e-18)
(8.0223 6.07386 6.59716e-18)
(9.45507 6.07477 0)
(10.9297 5.90821 4.10713e-18)
(12.4028 5.60225 -3.86759e-18)
(13.8279 5.18032 3.97615e-19)
(15.1523 4.66118 -6.71459e-20)
(16.3133 4.05953 0)
(17.2355 3.38808 0)
(17.828 2.65712 0)
(17.9959 1.87091 -1.03274e-19)
(17.668 1.02461 2.44971e-18)
(16.8288 0.106992 -2.24203e-18)
(15.5114 -0.878361 0)
(13.7659 -1.87083 0)
(11.6777 -2.73486 1.05202e-18)
(9.41353 -3.33604 -9.84736e-19)
(7.21524 -3.66293 8.09121e-19)
(5.33699 -3.84243 -5.91701e-19)
(3.95267 -4.01605 8.88486e-20)
(3.08664 -4.22672 -5.39083e-19)
(2.63048 -4.42265 6.78613e-19)
(2.4325 -4.5297 -8.48556e-19)
(2.37758 -4.50608 7.98998e-19)
(2.41061 -4.35163 0)
(2.51899 -4.09321 -1.34486e-20)
(2.70474 -3.76914 3.56781e-20)
(2.96411 -3.41761 1.80456e-19)
(3.27805 -3.06895 -6.25344e-19)
(3.61295 -2.7417 8.69455e-19)
(3.92896 -2.442 -4.40859e-19)
(4.19097 -2.16601 -7.00501e-19)
(4.37676 -1.90378 4.98734e-19)
(4.47945 -1.6433 9.09437e-20)
(4.5055 -1.37403 8.53695e-19)
(4.47054 -1.08962 -8.16592e-19)
(4.3953 -0.789785 2.18539e-19)
(4.30227 -0.480779 9.83849e-19)
(4.21293 -0.174258 -8.57096e-19)
(4.14541 0.115243 0)
(4.11266 0.373529 8.62819e-19)
(4.12148 0.589682 -2.15364e-19)
(4.17252 0.757894 -1.83977e-18)
(4.2612 0.877716 7.96806e-19)
(4.37945 0.953459 -7.64608e-19)
(4.52139 1.00569 7.46461e-19)
(-5.74129 3.29332 -1.24806e-17)
(-37.3596 21.2955 0)
(-82.3663 49.976 0)
(-120.458 70.922 -7.36833e-20)
(-138.187 80.0889 0)
(-139.927 78.9076 0)
(-132.219 71.835 0)
(-121.296 63.1705 -9.62161e-19)
(-110.762 55.4003 0)
(-101.353 49.0737 5.05116e-19)
(-92.03 43.434 1.52494e-18)
(-81.2722 37.3124 -2.10045e-18)
(-68.0868 29.8336 1.77291e-18)
(-52.5114 20.829 0)
(-35.5804 10.8654 -2.84293e-19)
(-18.8871 0.950785 5.76609e-19)
(-3.98893 -7.87189 0)
(8.07763 -14.8805 -6.5095e-18)
(16.9974 -19.7956 1.5768e-17)
(23.0668 -22.7704 2.26774e-18)
(26.91 -24.1835 -1.09967e-17)
(29.1697 -24.4345 2.04289e-19)
(30.2934 -23.793 0)
(30.5147 -22.38 1.5243e-17)
(29.8967 -20.2234 -1.61843e-17)
(28.4292 -17.3943 1.60966e-17)
(26.1393 -14.0805 -1.65792e-17)
(23.2069 -10.6921 -1.47344e-17)
(20.0938 -7.74733 1.49507e-17)
(17.3667 -5.64792 0)
(15.3289 -4.47452 1.06764e-17)
(13.8823 -3.98824 -1.0776e-17)
(12.794 -3.85875 2.76088e-20)
(11.9429 -3.92257 6.38146e-18)
(11.3348 -4.13204 -6.40381e-18)
(10.9686 -4.45693 -1.32006e-19)
(10.7758 -4.87131 8.22389e-20)
(10.6616 -5.34051 2.35206e-18)
(10.5327 -5.82648 -2.36485e-18)
(10.2994 -6.29556 -9.68557e-19)
(9.87266 -6.70846 6.10257e-19)
(9.15582 -7.01041 4.29465e-19)
(8.04605 -7.13187 0)
(6.46609 -7.00601 5.26612e-20)
(4.44122 -6.61031 -7.65278e-19)
(2.19131 -6.03356 2.09987e-18)
(0.152325 -5.51235 -2.29687e-18)
(-1.17896 -5.34936 1.1283e-18)
(-1.52987 -5.69328 0)
(-1.02744 -6.39168 5.9832e-20)
(-0.0828029 -7.11933 -1.04295e-18)
(0.905815 -7.61944 1.02776e-18)
(1.73157 -7.8097 -1.24131e-20)
(2.3555 -7.73652 -6.58874e-19)
(2.81116 -7.49142 4.98769e-19)
(3.14313 -7.15488 -4.10039e-19)
(3.3893 -6.77729 -2.46875e-19)
(3.58066 -6.38285 6.43733e-19)
(3.74179 -5.98095 -2.37715e-19)
(3.88982 -5.57617 2.4757e-19)
(4.03366 -5.17353 0)
(4.17407 -4.77931 9.23916e-21)
(4.30542 -4.39968 3.46746e-19)
(4.4187 -4.03872 -2.88271e-19)
(4.50507 -3.6972 -1.26469e-19)
(4.5584 -3.37249 0)
(4.57656 -3.05918 -6.53463e-19)
(4.56129 -2.75049 5.55442e-19)
(4.51744 -2.4401 9.57557e-20)
(4.45247 -2.12351 9.13785e-20)
(4.37591 -1.7992 -1.9569e-19)
(4.29865 -1.46934 -7.47219e-21)
(4.2319 -1.13978 8.99562e-19)
(4.18587 -0.81917 -7.80684e-19)
(4.16834 -0.517518 9.611e-20)
(4.18356 -0.24439 0)
(4.23172 -0.00735289 9.62956e-19)
(4.3092 0.18893 -7.41212e-19)
(4.41115 0.34559 0)
(4.53627 0.476144 6.92039e-19)
(-12.0836 5.9534 6.57401e-20)
(-24.2957 11.7317 6.38627e-17)
(-29.1736 14.7892 -6.47594e-17)
(-30.2655 17.0017 1.31943e-16)
(-29.7534 20.0078 -6.68302e-17)
(-28.1212 22.4433 3.67027e-20)
(-25.7884 24.0981 -6.514e-17)
(-23.1306 25.071 6.69122e-17)
(-20.2169 25.6088 -2.84752e-21)
(-16.7827 25.9689 -4.81695e-19)
(-12.4589 26.3125 5.7612e-17)
(-7.03645 26.6634 4.99446e-17)
(-0.631958 26.9011 -1.11115e-16)
(6.31361 26.8037 9.15479e-17)
(13.1733 26.1257 -1.75213e-16)
(19.3398 24.6851 8.33238e-17)
(24.4119 22.4131 0)
(28.2629 19.3666 0)
(31.0323 15.7024 -5.27845e-17)
(33.0236 11.602 5.62479e-18)
(34.5306 7.30069 4.77855e-17)
(35.734 2.99621 -3.7944e-17)
(36.7147 -1.11361 7.22537e-17)
(37.4299 -4.7983 -3.38779e-17)
(37.6018 -7.83725 -2.47824e-17)
(36.7164 -9.82402 4.5997e-18)
(33.8278 -10.3191 2.16261e-17)
(28.0028 -9.29728 -1.18646e-19)
(20.5369 -6.72707 8.68093e-20)
(13.7708 -4.02781 -1.21889e-19)
(7.71706 -3.34999 0)
(2.31526 -4.05784 -6.61834e-18)
(-1.3308 -4.97156 1.21141e-17)
(-3.14424 -6.23566 -5.43664e-18)
(-3.76968 -7.69764 0)
(-3.73463 -8.99753 2.22093e-18)
(-3.38059 -10.0478 -2.20614e-18)
(-2.8774 -10.8796 0)
(-2.29732 -11.5343 0)
(-1.67741 -12.0388 -3.78362e-19)
(-1.04275 -12.4053 3.61719e-19)
(-0.410203 -12.6372 -8.57584e-20)
(0.212369 -12.7286 0)
(0.825214 -12.6603 1.10002e-18)
(1.43194 -12.4039 -8.36858e-20)
(2.03302 -11.9432 -1.19589e-18)
(2.62579 -11.3071 -7.37934e-20)
(3.20843 -10.5815 1.31445e-19)
(3.76215 -9.87075 0)
(4.23167 -9.24308 -7.81628e-19)
(4.554 -8.71689 1.38052e-18)
(4.71555 -8.2836 -7.0934e-19)
(4.75861 -7.92366 -8.88465e-20)
(4.7424 -7.61422 -5.48683e-19)
(4.71134 -7.33499 1.37519e-19)
(4.68791 -7.07068 7.02058e-19)
(4.67905 -6.81043 -2.3918e-19)
(4.68431 -6.547 0)
(4.70076 -6.27633 0)
(4.72502 -5.99717 2.32606e-21)
(4.7536 -5.71039 -5.92692e-21)
(4.78288 -5.41801 0)
(4.80905 -5.12229 -3.21813e-19)
(4.82828 -4.82486 3.08875e-19)
(4.83689 -4.5263 5.71379e-19)
(4.83183 -4.22611 1.47111e-19)
(4.8111 -3.923 -4.88095e-19)
(4.77437 -3.61538 6.75789e-19)
(4.72318 -3.30191 -6.59931e-19)
(4.66104 -2.98201 -1.40901e-21)
(4.5932 -2.65628 -6.58308e-19)
(4.52611 -2.32689 6.36966e-19)
(4.46668 -1.99768 6.69434e-19)
(4.42145 -1.67404 -8.38374e-19)
(4.39564 -1.36239 6.59487e-19)
(4.3925 -1.06938 -7.335e-19)
(4.41289 -0.801142 7.25224e-19)
(4.45581 -0.56228 -1.40696e-18)
(4.52118 -0.352369 2.49671e-21)
(4.61169 -0.173927 8.65567e-21)
(1.10064 2.3361 4.88295e-17)
(6.73766 3.52527 3.20923e-20)
(8.60928 7.68096 -7.16938e-17)
(7.45923 12.9859 1.44836e-16)
(6.88134 16.8877 -7.3157e-17)
(8.87369 18.4392 7.01734e-17)
(13.746 17.188 -2.38641e-18)
(21.7242 12.8573 -6.93417e-17)
(33.1959 5.47496 6.38332e-17)
(47.8022 -4.25427 -6.37431e-17)
(63.9082 -14.6186 5.48795e-17)
(78.6886 -23.2822 -5.53777e-17)
(88.9656 -28.1766 4.52819e-17)
(92.5764 -28.3473 -4.62626e-17)
(89.356 -24.2293 -5.2409e-20)
(81.0581 -17.3072 -5.28596e-20)
(70.274 -9.36703 5.27633e-17)
(59.353 -1.90604 -5.3717e-17)
(49.7823 4.1667 1.30173e-19)
(42.134 8.49527 6.62199e-19)
(36.3322 11.0746 2.28028e-17)
(31.944 12.0853 -2.20464e-17)
(28.4038 11.8033 0)
(25.1371 10.6167 -3.69734e-19)
(21.5798 9.02495 0)
(17.1682 7.54236 0)
(11.4099 6.59291 -2.02397e-19)
(4.12108 6.45871 4.58503e-20)
(-3.99275 7.32166 1.56751e-19)
(-11.385 8.58341 2.38014e-18)
(-16.3279 8.72112 -2.28736e-18)
(-17.178 7.04553 -5.07619e-20)
(-13.8698 4.11167 1.78416e-20)
(-8.57442 0.901386 0)
(-3.58239 -1.7915 -1.7516e-19)
(0.168637 -3.67305 0)
(2.74352 -4.8838 0)
(4.48643 -5.70121 -1.55013e-19)
(5.68574 -6.3388 0)
(6.51956 -6.88515 0)
(7.07449 -7.34034 2.66188e-18)
(7.38126 -7.67692 -2.5647e-18)
(7.45381 -7.87531 0)
(7.31571 -7.9348 0)
(7.01307 -7.8731 0)
(6.61537 -7.72177 -1.4641e-19)
(6.20419 -7.5201 7.33273e-20)
(5.85119 -7.30857 1.06334e-18)
(5.59686 -7.12141 -1.12392e-18)
(5.44508 -6.97819 8.75676e-19)
(5.37492 -6.87874 -9.78473e-19)
(5.35759 -6.80792 9.19196e-20)
(5.36852 -6.74747 4.00853e-20)
(5.39215 -6.68422 0)
(5.42084 -6.61115 0)
(5.45162 -6.52476 -2.35848e-19)
(5.48333 -6.42273 5.12597e-20)
(5.51499 -6.30277 1.82553e-19)
(5.54513 -6.16268 -3.10569e-20)
(5.57163 -6.0007 2.19902e-20)
(5.59179 -5.81598 -1.90455e-19)
(5.60263 -5.60887 -1.12928e-19)
(5.6013 -5.38092 6.76492e-19)
(5.58546 -5.13465 -3.94676e-19)
(5.55374 -4.87318 -3.54507e-20)
(5.50592 -4.59967 -7.02235e-20)
(5.44304 -4.31695 -6.6023e-19)
(5.36725 -4.02721 1.34182e-18)
(5.28162 -3.73206 -6.80151e-19)
(5.18998 -3.43274 -9.00832e-20)
(5.09664 -3.13044 -7.52224e-19)
(5.00623 -2.82676 8.26565e-19)
(4.92339 -2.52391 0)
(4.85244 -2.22486 9.35435e-20)
(4.79705 -1.93321 0)
(4.75998 -1.65296 -7.17352e-19)
(4.74301 -1.38812 -1.49758e-21)
(4.74756 -1.14182 6.75761e-19)
(4.77685 -0.915319 -4.88569e-19)
(4.83782 -0.72153 -1.45441e-19)
(7.48165 -3.67016 -1.08865e-17)
(3.84092 -3.43861 1.63676e-17)
(-15.9545 9.32236 -9.92446e-20)
(-39.3989 21.3665 1.93162e-17)
(-58.7716 32.6207 -1.97414e-17)
(-77.1512 42.9279 2.3036e-17)
(-94.3825 52.5595 -5.0012e-17)
(-108.432 60.9871 2.53862e-17)
(-114.61 66.0715 -3.06286e-17)
(-108.16 64.9112 2.98323e-17)
(-89.1633 56.6509 0)
(-63.6034 43.9896 -1.1536e-18)
(-39.1035 31.1717 4.70629e-19)
(-20.2838 21.1807 0)
(-7.78271 14.8602 0)
(-0.029032 11.6269 0)
(4.78139 10.4404 0)
(7.85405 10.4961 -2.33975e-19)
(9.70281 11.405 0)
(10.4582 13.0038 -2.61127e-17)
(10.2339 15.0656 2.52764e-17)
(9.32659 17.2501 4.43016e-17)
(8.10972 19.1708 -4.54945e-17)
(6.73899 20.5039 -3.67326e-17)
(5.11577 21.1654 3.78544e-17)
(3.00845 21.2942 -2.81435e-17)
(0.233315 21.1625 2.86906e-17)
(-3.17358 21.02 -1.95784e-17)
(-6.76968 20.9856 3.73129e-18)
(-9.60222 20.7948 1.6315e-17)
(-10.4356 19.7165 0)
(-8.50807 17.2187 3.3636e-19)
(-4.57783 13.3971 3.02169e-19)
(-0.563375 8.92205 0)
(2.0479 4.64292 1.75081e-19)
(3.00108 1.05512 0)
(2.92128 -1.79771 0)
(2.58981 -4.07202 6.25834e-18)
(2.50013 -5.8966 -1.20261e-17)
(2.81392 -7.33912 6.11406e-18)
(3.43763 -8.40606 5.41015e-18)
(4.20444 -9.08812 -5.58835e-18)
(4.97198 -9.40953 -1.25583e-19)
(5.65273 -9.42319 0)
(6.2071 -9.19789 3.60911e-18)
(6.62727 -8.80536 -3.27911e-18)
(6.92223 -8.31198 0)
(7.10778 -7.77478 0)
(7.20131 -7.23966 -1.5209e-18)
(7.21999 -6.74102 1.64662e-18)
(7.18076 -6.30224 1.11618e-18)
(7.10066 -5.93679 -1.05378e-18)
(6.99661 -5.64946 -6.36788e-19)
(6.88434 -5.43768 1.02892e-18)
(6.77691 -5.29307 -4.3315e-19)
(6.68367 -5.20302 -3.96799e-20)
(6.60974 -5.15223 0)
(6.55602 -5.12425 -1.18473e-20)
(6.51986 -5.10295 4.44499e-20)
(6.49576 -5.07381 -1.80503e-19)
(6.4766 -5.0252 1.22785e-19)
(6.45484 -4.9491 0)
(6.42373 -4.8414 2.62719e-20)
(6.37826 -4.70167 0)
(6.31577 -4.53247 3.54412e-20)
(6.23601 -4.3383 4.51853e-20)
(6.1408 -4.1244 9.35166e-20)
(6.03341 -3.89587 7.45235e-19)
(5.91789 -3.65698 -6.30917e-19)
(5.79858 -3.41103 9.72393e-20)
(5.67974 -3.16047 7.68737e-19)
(5.56543 -2.90725 -9.38487e-19)
(5.45943 -2.65314 7.53672e-19)
(5.36519 -2.40002 -7.32797e-19)
(5.28577 -2.14999 8.10431e-19)
(5.22378 -1.90547 -6.13139e-19)
(5.18149 -1.66896 -6.75304e-19)
(5.16125 -1.44272 6.54488e-19)
(5.16669 -1.23003 -1.59589e-19)
(5.20531 -1.04507 1.5479e-19)
(15.1171 -7.66309 -2.31988e-17)
(32.8316 -12.4476 -4.05625e-17)
(36.0687 -14.3684 8.68167e-17)
(37.2802 -8.56717 -9.90884e-17)
(31.6836 0.514453 5.3568e-17)
(25.2127 12.0936 1.62643e-19)
(26.5181 19.2844 -7.56229e-17)
(34.9469 21.7283 1.6068e-16)
(44.2717 22.6731 5.23031e-18)
(50.4279 23.7728 -9.13682e-17)
(52.8573 25.2257 9.89606e-19)
(52.1669 27.0243 9.46638e-17)
(49.5345 29.2967 -9.64522e-17)
(46.9897 32.3366 8.661e-17)
(44.9162 36.0917 -8.81139e-17)
(41.0499 39.4389 -7.23044e-17)
(34.2652 40.4581 7.34726e-17)
(26.3694 38.4154 2.34011e-19)
(19.1586 33.9989 0)
(12.6327 28.5191 3.45121e-17)
(6.21842 23.1295 -3.48605e-17)
(-0.278862 18.5618 -1.04143e-19)
(-6.63799 15.1196 -1.04221e-17)
(-12.4695 12.7368 1.05188e-17)
(-17.4407 11.2187 -1.48967e-19)
(-21.4095 10.4165 0)
(-24.46 10.2278 -1.17785e-19)
(-26.8144 10.5163 -3.67917e-19)
(-28.5518 11.2039 -1.21475e-17)
(-29.5413 12.1348 1.23788e-17)
(-29.5622 13.0201 1.18004e-17)
(-28.5335 13.5923 -1.21605e-17)
(-26.6997 13.735 -1.4411e-19)
(-24.4222 13.4579 -1.02912e-17)
(-21.7413 12.7894 1.97034e-17)
(-18.3743 11.7115 -9.54657e-18)
(-14.1675 10.2091 -7.68148e-18)
(-9.33945 8.3576 7.85074e-18)
(-4.34937 6.37277 -1.04333e-19)
(0.307334 4.47218 -7.94267e-20)
(4.27117 2.77068 1.61891e-19)
(7.35818 1.33691 -3.50486e-18)
(9.52815 0.19756 7.92e-19)
(10.8535 -0.6535 2.84952e-18)
(11.4818 -1.24859 -1.96604e-18)
(11.5899 -1.63678 1.7876e-18)
(11.3483 -1.87161 0)
(10.8986 -2.00242 7.97354e-19)
(10.3458 -2.0703 -8.47344e-19)
(9.76084 -2.1077 3.13561e-19)
(9.18842 -2.13956 -1.88503e-19)
(8.65642 -2.18499 -1.17031e-19)
(8.1826 -2.25868 -9.49308e-20)
(7.77884 -2.37067 -7.70566e-20)
(7.45258 -2.52536 6.53869e-20)
(7.20671 -2.72047 2.54674e-20)
(7.03886 -2.94675 0)
(6.94098 -3.18941 2.64062e-19)
(6.90018 -3.42963 -2.30332e-19)
(6.90008 -3.64739 0)
(6.92227 -3.82508 3.77609e-19)
(6.94868 -3.94939 -2.70699e-19)
(6.96368 -4.01289 0)
(6.95585 -4.01446 5.24993e-20)
(6.91905 -3.9586 0)
(6.85242 -3.85385 7.52575e-19)
(6.75938 -3.7107 -1.62947e-18)
(6.64606 -3.5397 7.9035e-19)
(6.51962 -3.34999 -9.68554e-20)
(6.38701 -3.14865 -9.72246e-20)
(6.25429 -2.94068 7.92658e-19)
(6.12642 -2.72941 -6.76257e-19)
(6.00739 -2.51703 9.49118e-20)
(5.90038 -2.30513 9.16847e-20)
(5.80795 -2.09512 -1.77753e-19)
(5.73215 -1.88845 -8.6646e-20)
(5.6747 -1.68666 -7.34463e-19)
(5.63725 -1.49154 9.83255e-21)
(5.62192 -1.30706 6.77007e-19)
(5.63389 -1.14361 1.40111e-19)
(-9.98595 3.06141 0)
(-7.70173 -5.38831 5.46727e-19)
(15.3298 -16.308 -5.96703e-20)
(37.2361 -37.6123 9.13454e-17)
(46.8164 -50.548 -1.75443e-16)
(40.3042 -56.6402 1.54721e-16)
(24.347 -57.1488 -7.25526e-17)
(8.42216 -56.9617 0)
(-2.18415 -59.1808 -1.02679e-18)
(-5.88059 -64.3049 3.35716e-17)
(-1.30995 -72.8219 -3.51936e-17)
(14.8072 -86.7521 -1.71135e-17)
(46.0099 -108.279 2.37771e-17)
(85.1609 -132.236 -1.14313e-17)
(105.299 -141.743 -8.45057e-18)
(82.8976 -127.894 1.25572e-17)
(31.6521 -103.616 3.89375e-19)
(-13.4492 -83.968 -1.84794e-17)
(-37.3487 -72.0473 1.85913e-17)
(-46.7487 -65.4992 -1.70533e-19)
(-49.7313 -61.7068 2.09293e-19)
(-49.4774 -58.5657 4.96865e-19)
(-47.139 -55.0536 -1.16207e-17)
(-43.5591 -50.8579 2.93825e-18)
(-39.4728 -45.8009 9.00781e-18)
(-35.4596 -39.8995 2.42121e-19)
(-31.832 -33.5487 -2.80456e-18)
(-28.5997 -27.4451 4.24626e-18)
(-25.559 -22.1531 -1.91085e-18)
(-22.4827 -17.8975 4.08472e-19)
(-19.2423 -14.6162 0)
(-15.8355 -12.1219 1.00689e-18)
(-12.3434 -10.1976 -2.49466e-18)
(-8.88506 -8.65072 1.39311e-18)
(-5.54313 -7.32479 -1.13868e-18)
(-2.41173 -6.13816 1.31919e-18)
(0.405617 -5.06942 -1.14479e-19)
(2.81528 -4.15914 0)
(4.77415 -3.4524 -1.66008e-19)
(6.24443 -2.9373 3.513e-19)
(7.26858 -2.58929 -3.40079e-19)
(7.935 -2.38297 5.32843e-20)
(8.35017 -2.28069 -4.74813e-20)
(8.60683 -2.24245 0)
(8.76781 -2.22881 0)
(8.8624 -2.20542 -3.28186e-20)
(8.89597 -2.14791 1.68664e-19)
(8.86311 -2.04483 -2.23915e-20)
(8.758 -1.8972 2.63941e-19)
(8.58033 -1.71603 -6.35599e-19)
(8.33754 -1.51926 2.63344e-19)
(8.04509 -1.32904 0)
(7.72553 -1.16929 -4.91378e-19)
(7.40665 -1.0632 4.38477e-19)
(7.11837 -1.03041 0)
(6.88852 -1.08364 -5.18825e-19)
(6.73805 -1.22555 4.92845e-19)
(6.6768 -1.44685 -5.04701e-19)
(6.70123 -1.72678 4.17956e-19)
(6.79518 -2.03641 0)
(6.93303 -2.3436 -1.23862e-19)
(7.08463 -2.61856 -5.11209e-20)
(7.22094 -2.83832 4.78593e-19)
(7.31902 -2.9894 -4.93694e-20)
(7.3653 -3.06838 -4.63565e-19)
(7.35639 -3.08022 0)
(7.29757 -3.03537 -5.30717e-20)
(7.19955 -2.94663 0)
(7.07513 -2.82644 0)
(6.93645 -2.68527 8.40647e-19)
(6.79356 -2.53101 -8.19544e-19)
(6.654 -2.36915 -6.87309e-19)
(6.52296 -2.20333 -8.62035e-20)
(6.4039 -2.03598 6.43925e-19)
(6.29896 -1.86886 7.81797e-19)
(6.20946 -1.70345 -6.733e-19)
(6.13621 -1.5411 8.0811e-20)
(6.0798 -1.38345 5.95076e-19)
(6.04089 -1.23415 -1.28031e-18)
(6.02255 -1.09933 4.12041e-19)
(23.1795 -4.81958 1.66777e-16)
(59.8885 -8.97324 -1.24312e-16)
(59.4601 -5.38081 -1.13315e-16)
(20.1259 17.4117 1.16283e-16)
(-18.1652 36.5396 6.75211e-20)
(-35.9129 47.352 8.5049e-20)
(-41.093 52.7774 0)
(-42.1419 57.1591 8.30976e-17)
(-42.8468 62.098 -8.48737e-17)
(-44.3564 67.2535 0)
(-47.1365 71.1826 -6.6137e-17)
(-50.3926 71.963 1.29037e-16)
(-51.2652 68.1169 -4.84651e-18)
(-47.4698 59.1432 -1.09924e-16)
(-40.0078 46.0352 5.27058e-17)
(-32.9931 31.207 4.35117e-19)
(-31.137 18.3325 -3.79401e-20)
(-35.1779 9.87376 0)
(-40.5689 4.32406 1.36944e-17)
(-40.5935 -1.92529 -1.36989e-17)
(-31.335 -10.5348 -8.24172e-20)
(-13.775 -20.0042 9.63433e-18)
(8.16462 -28.1793 -1.0129e-17)
(30.1881 -34.1407 1.04564e-17)
(48.3348 -37.609 -1.06907e-17)
(59.0197 -38.2059 -2.35841e-19)
(60.2184 -35.6104 6.79184e-18)
(52.8532 -30.2263 -2.12636e-18)
(40.586 -23.391 -7.37853e-18)
(27.824 -16.7478 1.56817e-18)
(17.5955 -11.4518 1.2806e-18)
(10.8476 -7.8434 -8.40508e-19)
(7.10085 -5.67068 9.0078e-19)
(5.43093 -4.51492 0)
(5.02054 -3.98546 -8.52141e-20)
(5.28983 -3.82022 -8.87457e-20)
(5.88907 -3.85487 0)
(6.62028 -3.9953 -4.32271e-18)
(7.3925 -4.17122 4.4191e-18)
(8.15143 -4.33496 6.78585e-20)
(8.86588 -4.44748 0)
(9.51071 -4.48344 -5.36187e-20)
(10.0613 -4.42926 -2.89957e-18)
(10.4927 -4.28253 2.83453e-18)
(10.7829 -4.05093 0)
(10.9179 -3.74899 1.92471e-18)
(10.8942 -3.39444 -2.14288e-18)
(10.7191 -3.00518 0)
(10.4084 -2.59767 0)
(9.98397 -2.18649 5.50727e-20)
(9.47186 -1.78499 5.27572e-20)
(8.90141 -1.40641 0)
(8.30533 -1.0651 -1.06027e-18)
(7.71991 -0.777227 1.09946e-18)
(7.18434 -0.560342 9.69653e-19)
(6.73799 -0.431428 -1.16449e-19)
(6.41546 -0.403327 -1.75893e-18)
(6.23973 -0.480195 1.65531e-18)
(6.21586 -0.653996 4.32136e-20)
(6.32789 -0.903711 -6.46803e-19)
(6.54072 -1.19825 7.35645e-20)
(6.80699 -1.50228 0)
(7.07678 -1.78291 0)
(7.30749 -2.01521 -5.69316e-19)
(7.47097 -2.18503 6.30768e-19)
(7.55605 -2.28895 0)
(7.56643 -2.3319 -6.45781e-20)
(7.51566 -2.32375 0)
(7.42131 -2.27597 -4.52309e-19)
(7.30051 -2.1993 4.41371e-19)
(7.16737 -2.10253 -1.03851e-19)
(7.0322 -1.99229 -8.82975e-19)
(6.90186 -1.87334 7.63037e-19)
(6.78057 -1.74909 -8.77398e-20)
(6.67072 -1.62205 0)
(6.57354 -1.4942 0)
(6.48963 -1.36718 0)
(6.41928 -1.24273 6.30045e-19)
(6.3627 -1.12407 5.23824e-20)
(6.32218 -1.01444 -1.01914e-18)
(11.6099 -5.88365 1.36973e-18)
(16.2102 -8.40002 -8.08338e-19)
(6.60198 -11.6509 8.26519e-19)
(-4.25675 -8.56496 -7.35903e-18)
(-11.5881 -7.08838 7.78005e-18)
(-13.8765 -4.88972 2.76231e-19)
(-12.6039 -2.8237 2.73277e-19)
(-9.75742 -0.171212 0)
(-6.61114 3.79396 2.5858e-19)
(-7.08985 9.09096 0)
(-19.1265 16.422 1.50043e-19)
(-42.8887 25.2588 -3.91704e-18)
(-64.4179 30.957 4.10614e-18)
(-73.5908 31.438 1.0822e-17)
(-73.7654 30.0576 -1.11266e-17)
(-71.3882 29.5229 1.3161e-17)
(-70.3136 30.6929 -1.36132e-17)
(-71.2293 33.7748 0)
(-70.3496 37.8048 0)
(-60.7828 39.8117 0)
(-40.096 36.8269 -3.98432e-18)
(-14.9867 29.7887 4.82091e-18)
(5.11026 22.5856 -1.85295e-18)
(15.9022 17.2605 2.50119e-18)
(18.6302 13.1577 -1.86397e-18)
(16.3796 9.3633 0)
(11.7429 5.77453 -1.96657e-19)
(6.52228 2.66914 0)
(2.00232 0.261972 1.02656e-18)
(-1.0802 -1.42364 -8.97452e-19)
(-2.59731 -2.5285 1.51352e-19)
(-2.84309 -3.23597 0)
(-2.23717 -3.69706 -2.23573e-18)
(-1.11704 -4.03567 4.73873e-18)
(0.247706 -4.331 -2.54525e-18)
(1.67958 -4.60477 2.61245e-18)
(3.08497 -4.83971 -5.26229e-18)
(4.41832 -5.03203 2.64799e-18)
(5.66182 -5.1913 0)
(6.80991 -5.31767 0)
(7.85256 -5.40457 0)
(8.76784 -5.44299 -2.21105e-18)
(9.52691 -5.42289 6.46944e-18)
(10.1025 -5.33783 -4.14342e-18)
(10.4773 -5.18681 0)
(10.6488 -4.97449 3.33675e-18)
(10.6292 -4.70914 -3.24151e-18)
(10.4417 -4.40014 -2.68015e-18)
(10.1147 -4.0568 4.14508e-19)
(9.678 -3.68714 2.26075e-19)
(9.16036 -3.29841 2.01987e-19)
(8.59018 -2.8982 1.95145e-18)
(7.99664 -2.49574 0)
(7.41145 -2.10292 0)
(6.86977 -1.73448 1.24074e-18)
(6.40911 -1.40824 -1.33407e-18)
(6.06591 -1.14347 0)
(5.86967 -0.956914 0)
(5.83537 -0.858976 -6.50058e-20)
(5.95693 -0.850033 -1.02544e-19)
(6.20508 -0.918915 0)
(6.5315 -1.04469 0)
(6.87907 -1.2011 9.16943e-20)
(7.19474 -1.36207 8.42712e-20)
(7.44043 -1.50638 -6.69247e-19)
(7.59816 -1.62019 1.14183e-18)
(7.66859 -1.69736 4.11795e-20)
(7.66524 -1.73787 -1.0003e-18)
(7.60733 -1.74549 9.97001e-19)
(7.51411 -1.72564 -8.82325e-19)
(7.4016 -1.68384 1.69415e-19)
(7.28153 -1.62499 3.96758e-19)
(7.1617 -1.55317 -7.20318e-19)
(7.04692 -1.4717 2.82154e-20)
(6.93998 -1.38332 1.29284e-18)
(6.84236 -1.29034 -6.89541e-19)
(6.75487 -1.19472 0)
(6.67791 -1.09852 -1.32225e-19)
(6.61169 -1.00491 0)
(6.55821 -0.915464 4.61086e-19)
(3.81016 -2.05831 0)
(15.8252 -6.079 -8.99449e-20)
(26.2253 -7.16269 1.0093e-19)
(33.523 -9.11236 5.99423e-17)
(40.7661 -11.1416 -1.19738e-16)
(49.0163 -14.9997 5.95075e-17)
(59.408 -21.2633 -2.71906e-19)
(72.7701 -28.7985 0)
(85.1437 -36.1018 0)
(74.8297 -38.6488 0)
(15.1913 -23.9973 -1.51347e-19)
(-65.6745 4.83141 7.05992e-20)
(-99.5046 17.3036 0)
(-78.9417 8.70558 -1.75218e-19)
(-48.4496 1.18836 -2.42304e-19)
(-27.2062 -2.64196 -2.37761e-17)
(-12.9764 -6.02308 2.41554e-17)
(-4.7192 -6.76465 2.99173e-19)
(-1.60178 -5.43087 0)
(-0.934612 -3.81208 -2.76629e-19)
(0.56059 -3.3956 1.21258e-19)
(3.6135 -4.38318 -1.83646e-17)
(6.87674 -6.28137 2.0718e-18)
(8.61702 -8.22935 1.64226e-17)
(8.22555 -9.42106 2.40528e-19)
(6.36173 -9.59602 -1.96766e-19)
(4.11986 -8.96976 1.17576e-17)
(2.14766 -7.73743 -1.09459e-17)
(0.599321 -6.09423 -3.18278e-19)
(-0.468765 -4.40273 -1.72357e-19)
(-1.00599 -3.04709 -1.65949e-19)
(-1.0301 -2.275 7.91595e-18)
(-0.613626 -2.14015 -7.981e-18)
(0.153508 -2.53521 -2.84778e-19)