/*--------------------------------*- C++ -*----------------------------------*\
| =========                 |                                                 |
| \\      /  F ield         | OpenFOAM: The Open Source CFD Toolbox           |
|  \\    /   O peration     | Version:  2012                                  |
|   \\  /    A nd           | Website:  www.openfoam.com                      |
|    \\/     M anipulation  |                                                 |
\*---------------------------------------------------------------------------*/
FoamFile
{
    version     2.0;
    format      ascii;
    class       volVectorField;
    location    "1.3";
    object      U;
}
// * * * * * * * * * * * * * * * * * * * * * * * * * * * * * * * * * * * * * //

dimensions      [0 1 -1 0 0 0 0];


internalField   nonuniform List<vector> 
42400
(
(-14.7548 13.6927 3.13649e-17)
(-50.6109 44.5583 4.31794e-17)
(-74.8651 66.3169 -4.38469e-17)
(-63.7928 52.8695 0)
(-22.3924 14.5533 0)
(19.7829 -23.0808 -7.5039e-19)
(45.657 -43.9246 0)
(57.631 -49.3129 7.40935e-19)
(62.0583 -44.7737 0)
(57.9829 -31.0877 7.37712e-19)
(46.5959 -11.0632 7.35561e-19)
(36.2189 7.97187 -7.28385e-19)
(31.691 20.2707 -7.36277e-17)
(31.5723 25.4794 7.50549e-17)
(33.1912 27.011 -6.6389e-19)
(34.659 27.1608 0)
(34.7998 26.6459 0)
(33.2415 25.9877 0)
(30.1164 25.5531 0)
(25.8406 25.3068 0)
(21.17 24.7908 0)
(17.0012 23.4506 -6.93833e-19)
(13.8524 21.1395 -4.36851e-17)
(11.5754 18.2723 5.82897e-18)
(9.79478 15.5615 3.75925e-17)
(8.27821 13.5275 -4.06062e-19)
(6.83902 12.3212 -3.47785e-19)
(5.48259 11.824 5.82553e-19)
(4.26578 11.6259 0)
(3.33056 11.2482 0)
(2.76391 10.4374 1.24967e-17)
(2.50627 9.31581 -1.26035e-17)
(2.40551 8.16727 1.65265e-19)
(2.29188 7.19666 -6.01039e-18)
(2.0365 6.48036 5.95146e-18)
(1.57905 6.03821 0)
(0.951696 5.87103 0)
(0.232065 5.92973 0)
(-0.480467 6.10455 0)
(-1.09957 6.25496 -4.74914e-19)
(-1.54122 6.27593 4.76588e-19)
(-1.75799 6.10795 4.42501e-21)
(-1.74643 5.74459 1.67528e-19)
(-1.54264 5.22461 -4.49505e-19)
(-1.20365 4.61346 2.82424e-19)
(-0.790014 3.97901 -4.94666e-19)
(-0.351334 3.37576 1.09334e-18)
(0.0783138 2.84039 -5.78108e-19)
(0.478276 2.39276 -3.49992e-20)
(0.838798 2.03815 8.68321e-19)
(1.1571 1.77337 -1.79957e-18)
(1.43428 1.59067 -1.69056e-19)
(1.66949 1.47461 1.09937e-18)
(1.85959 1.40596 -1.19217e-19)
(2.00819 1.37219 0)
(2.12553 1.36288 0)
(2.22476 1.36474 0)
(2.32272 1.36447 1.35062e-19)
(2.43998 1.34818 1.36753e-19)
(2.59901 1.30266 0)
(2.82067 1.21532 2.32573e-18)
(3.11989 1.07529 -2.42473e-18)
(3.5025 0.874851 -2.28545e-18)
(3.96286 0.611076 2.24262e-18)
(4.48372 0.286843 0)
(5.03919 -0.088839 0)
(5.60042 -0.501881 -2.11607e-18)
(6.14182 -0.935596 2.06871e-18)
(6.64526 -1.3738 2.44387e-19)
(7.10104 -1.80336 0)
(7.50663 -2.21524 0)
(7.86416 -2.60399 2.16201e-19)
(8.17746 -2.96602 2.05571e-19)
(8.44907 -3.29765 0)
(8.67805 -3.59397 1.83137e-19)
(8.85969 -3.84933 1.3492e-18)
(8.98731 -4.05877 -1.30896e-18)
(9.05538 -4.21945 -2.97228e-19)
(9.05513 -4.3402 -1.06364e-18)
(8.94487 -4.47921 -9.20478e-19)
(-18.7357 13.8742 0)
(-38.6692 30.3441 1.54434e-16)
(-44.2842 34.6108 -1.57965e-16)
(-38.2255 29.0873 0)
(-27.1458 18.6035 0)
(-14.0652 3.87507 1.53484e-16)
(-0.44877 -12.6804 -1.56138e-16)
(10.7043 -26.7759 -7.16035e-19)
(16.2335 -34.3026 0)
(16.4301 -34.8985 -7.02957e-19)
(14.6486 -31.304 -6.9661e-19)
(13.7071 -26.4255 -1.09302e-16)
(13.8691 -21.849 1.3957e-17)
(13.9378 -18.0708 1.00538e-16)
(12.8867 -15.0025 7.76589e-17)
(10.5323 -12.2135 -7.76274e-17)
(7.22587 -9.39904 0)
(3.43206 -6.5421 6.43395e-19)
(-0.512523 -3.68668 0)
(-4.40428 -0.889824 0)
(-8.00235 1.64594 0)
(-10.9087 3.4655 -3.0546e-17)
(-12.6703 3.96674 4.31873e-18)
(-13.0658 2.74714 2.93166e-17)
(-12.1647 -0.142132 0)
(-10.3795 -4.118 2.06462e-20)
(-8.34073 -8.28279 3.34171e-19)
(-6.59375 -11.7097 -5.64144e-19)
(-5.90181 -13.6477 -8.82704e-18)
(-6.82137 -13.2812 8.98036e-18)
(-8.39337 -10.9133 -1.7311e-19)
(-9.34202 -8.52267 -1.16079e-19)
(-9.75521 -6.9269 -1.60426e-18)
(-10.1041 -5.46773 1.54231e-18)
(-10.3876 -3.98033 1.32669e-18)
(-10.454 -2.78243 -1.28854e-18)
(-10.2364 -1.98785 0)
(-9.79257 -1.50207 3.80857e-20)
(-9.185 -1.17917 0)
(-8.46433 -0.936371 5.32633e-20)
(-7.65353 -0.746461 -6.65159e-19)
(-6.76992 -0.604921 7.09993e-19)
(-5.83484 -0.509685 -1.36697e-20)
(-4.87628 -0.454569 4.91558e-21)
(-3.92545 -0.430544 1.13609e-20)
(-3.01146 -0.426153 -1.21822e-20)
(-2.15149 -0.423269 2.0341e-20)
(-1.35104 -0.399992 2.77137e-19)
(-0.619337 -0.344761 -2.68651e-19)
(0.034071 -0.256638 0)
(0.603233 -0.135492 3.51832e-20)
(1.08653 0.0144815 1.04234e-19)
(1.48978 0.188379 7.03367e-19)
(1.82538 0.382118 -6.89021e-19)
(2.10466 0.585291 -1.02648e-19)
(2.33962 0.78156 1.82113e-18)
(2.54724 0.956824 -2.01927e-18)
(2.74786 1.09934 -1.35059e-19)
(2.96234 1.19891 -1.3673e-19)
(3.2097 1.24648 2.11405e-18)
(3.50457 1.23424 -2.0804e-18)
(3.85537 1.15677 1.38027e-19)
(4.26278 1.0122 1.26482e-19)
(4.71938 0.802986 0)
(5.21047 0.536168 -1.8453e-18)
(5.71656 0.222754 -8.78173e-21)
(6.21674 -0.123812 2.26088e-18)
(6.69239 -0.489831 0)
(7.13058 -0.863535 -4.76261e-19)
(7.52626 -1.2365 2.24878e-19)
(7.88213 -1.6036 1.76441e-18)
(8.20556 -1.96142 -1.93504e-18)
(8.50319 -2.30586 -1.81002e-18)
(8.77592 -2.6302 1.75023e-18)
(9.01709 -2.92511 -3.62791e-19)
(9.21486 -3.18037 1.34359e-18)
(9.35731 -3.38724 -9.85361e-19)
(9.43734 -3.54017 2.97132e-19)
(9.45207 -3.64174 -1.36475e-18)
(9.37243 -3.74076 1.06414e-18)
(-2.64951 4.44687 4.65408e-17)
(-2.29727 10.389 -2.74498e-19)
(0.190764 8.56729 4.66083e-20)
(12.8776 3.44344 -2.75664e-19)
(32.3469 -8.48876 0)
(58.7811 -24.0694 1.11926e-16)
(87.2087 -41.0638 -2.1564e-16)
(112.239 -56.3563 1.03483e-16)
(129.962 -66.9658 -7.39173e-17)
(138.142 -70.7468 1.76619e-17)
(135.13 -66.381 5.87293e-17)
(119.641 -53.4588 -3.36637e-19)
(93.1614 -33.8008 -3.56112e-19)
(61.8576 -12.0157 3.78055e-18)
(33.4478 6.57475 -3.85895e-18)
(12.2504 19.0469 -9.08424e-19)
(-1.78629 25.57 -2.52162e-17)
(-10.7598 27.933 -3.1591e-18)
(-16.7171 28.0963 2.92873e-17)
(-21.0763 27.5828 -1.24381e-19)
(-24.7883 27.2598 6.86353e-20)
(-28.3018 27.3679 1.32312e-20)
(-31.4724 27.5382 0)
(-33.6568 26.984 -3.75266e-19)
(-34.1831 25.0133 2.80761e-17)
(-32.9179 21.5626 -5.30274e-17)
(-30.3016 17.0098 2.53904e-17)
(-26.855 11.8191 -1.66368e-17)
(-22.7659 6.4882 1.68342e-17)
(-18.0542 1.48457 8.84862e-18)
(-13.0871 -2.98337 -1.4807e-17)
(-8.84166 -6.58299 1.73039e-18)
(-6.16508 -8.71773 4.56368e-18)
(-4.9633 -9.39396 0)
(-4.55911 -9.10674 0)
(-4.42791 -8.35318 5.28054e-20)
(-4.3351 -7.46206 0)
(-4.19709 -6.58974 2.81142e-21)
(-3.98295 -5.79133 -9.85781e-19)
(-3.6754 -5.08203 1.72012e-18)
(-3.26753 -4.46301 -7.86573e-19)
(-2.76397 -3.9314 0)
(-2.17883 -3.48037 0)
(-1.53468 -3.10151 -7.78432e-20)
(-0.852837 -2.77782 7.01016e-20)
(-0.156385 -2.48999 -2.40198e-20)
(0.529525 -2.22404 0)
(1.17902 -1.97235 0)
(1.77291 -1.71949 4.1362e-19)
(2.30104 -1.44706 -4.11345e-19)
(2.75252 -1.14406 -3.51647e-20)
(3.12065 -0.807466 0)
(3.40477 -0.441852 -7.60832e-19)
(3.61209 -0.0598925 6.63437e-19)
(3.7573 0.319223 -1.44055e-18)
(3.86003 0.674141 1.53188e-18)
(3.94293 0.984792 -1.59917e-18)
(4.02929 1.23468 3.47087e-18)
(4.14043 1.41221 -3.59421e-18)
(4.2936 1.5108 -7.24751e-20)
(4.50023 1.52852 1.85327e-18)
(4.76489 1.46746 1.93687e-18)
(5.08493 1.33322 -2.02888e-18)
(5.45083 1.13441 0)
(5.8477 0.882122 1.68126e-18)
(6.25785 0.588945 1.76157e-20)
(6.66445 0.267623 -2.33884e-18)
(7.05536 -0.0705429 0)
(7.42598 -0.416918 4.49775e-19)
(7.77915 -0.765716 1.51722e-18)
(8.12148 -1.11283 -1.4924e-18)
(8.45715 -1.45379 0)
(8.78257 -1.7821 0)
(9.08491 -2.089 -1.89694e-19)
(9.34564 -2.36497 1.79668e-19)
(9.54683 -2.60199 9.92006e-19)
(9.67702 -2.7954 -1.60267e-18)
(9.73415 -2.94441 0)
(9.72282 -3.05429 2.77765e-19)
(9.63191 -3.16339 1.02566e-18)
(-17.4733 13.1087 2.94079e-18)
(-55.8668 41.7946 -4.68166e-18)
(-78.2452 55.6992 2.83546e-18)
(-65.1255 44.9747 6.74127e-18)
(-36.4832 22.1686 -6.49828e-18)
(-13.9696 1.81197 0)
(-2.98646 -12.4932 2.98992e-17)
(-1.55781 -21.5083 -3.06871e-17)
(-7.13131 -26.2827 4.56247e-17)
(-17.599 -27.7927 -4.66339e-17)
(-30.5523 -27.1674 5.96636e-17)
(-43.169 -25.6218 -1.24379e-16)
(-52.7313 -24.1848 1.31656e-16)
(-57.6331 -23.3666 -1.35653e-16)
(-57.9216 -23.0457 1.3627e-16)
(-54.8225 -22.8223 -6.83928e-17)
(-49.8622 -22.4268 -6.15837e-17)
(-44.1477 -21.8325 1.18726e-16)
(-38.2071 -20.9708 -5.75755e-17)
(-32.3914 -19.5778 1.26299e-19)
(-27.1925 -17.4345 2.30271e-19)
(-22.919 -14.4186 -3.07494e-17)
(-19.4868 -10.5842 3.09095e-17)
(-16.5691 -6.21486 -8.61844e-20)
(-13.785 -1.72772 0)
(-10.824 2.45036 -1.35238e-19)
(-7.56159 5.92519 0)
(-4.06504 8.38146 3.2304e-18)
(-0.470859 9.69023 -8.25646e-19)
(3.02915 10.0043 -2.69864e-18)
(6.00974 9.68214 -1.60264e-18)
(7.88815 9.1073 1.67718e-18)
(8.37064 8.49871 -2.83713e-19)
(7.6425 7.87133 -1.9971e-19)
(6.25473 7.20582 1.30553e-18)
(4.79183 6.47925 -1.17255e-18)
(3.60499 5.6743 0)
(2.79723 4.81036 -1.05866e-18)
(2.34639 3.94139 1.02333e-18)
(2.18992 3.12268 -4.27319e-20)
(2.25765 2.38844 -1.45786e-19)
(2.48656 1.74959 0)
(2.82623 1.2046 0)
(3.23378 0.743761 0)
(3.67669 0.357895 -1.00093e-19)
(4.12638 0.0374977 7.29407e-19)
(4.56015 -0.222626 -7.03895e-19)
(4.95877 -0.422917 0)
(5.30359 -0.558223 0)
(5.5793 -0.619639 8.20733e-19)
(5.77334 -0.597881 -7.51361e-19)
(5.8771 -0.487813 8.21238e-19)
(5.88863 -0.293014 -6.08682e-19)
(5.81548 -0.02831 1.10651e-19)
(5.67592 0.281126 -7.34026e-19)
(5.49727 0.604015 9.35023e-19)
(5.31206 0.908795 -1.74323e-18)
(5.15303 1.16869 1.61392e-18)
(5.04853 1.36453 0)
(5.01908 1.48535 -1.07492e-19)
(5.0755 1.52748 -1.8195e-18)
(5.21853 1.49317 7.42548e-20)
(5.43989 1.3892 3.71748e-18)
(5.72446 1.22551 -3.48928e-18)
(6.05354 1.01385 1.56194e-18)
(6.40887 0.766336 1.77807e-18)
(6.77647 0.494022 -1.30358e-18)
(7.14903 0.205774 -2.07278e-19)
(7.52547 -0.091993 -1.70335e-18)
(7.90724 -0.3946 1.6488e-18)
(8.29294 -0.697675 -4.01484e-19)
(8.67381 -0.995805 -1.74058e-18)
(9.03305 -1.28208 1.50939e-18)
(9.34933 -1.54878 0)
(9.60293 -1.78884 -1.36589e-18)
(9.78127 -1.99726 3.59744e-19)
(9.88159 -2.17174 2.79876e-18)
(9.91021 -2.31248 -1.19291e-18)
(9.87807 -2.4234 1.09802e-18)
(9.78279 -2.5358 -1.07113e-18)
(-5.44574 3.80306 -2.79072e-17)
(-8.79496 3.84804 0)
(-1.46248 3.08004 0)
(3.52339 -0.397951 -1.50171e-19)
(3.68944 0.485124 0)
(0.0792276 1.48147 0)
(-3.87639 1.3144 0)
(-7.2681 0.0540453 4.42553e-20)
(-10.0661 -1.59914 0)
(-12.4368 -3.08258 3.85743e-20)
(-14.4808 -4.07659 -3.89264e-17)
(-16.2672 -4.45425 7.45088e-17)
(-17.9375 -4.18584 -3.52848e-17)
(-19.5116 -3.27847 0)
(-20.7028 -1.91076 -1.63696e-19)
(-21.2027 -0.359272 1.47173e-19)
(-20.8982 1.17284 0)
(-19.793 2.52088 -1.00096e-17)
(-17.9471 3.49638 1.71124e-17)
(-15.3139 4.04063 -2.99318e-18)
(-11.6669 4.22937 -4.5451e-18)
(-6.76082 4.01475 2.51179e-19)
(-0.689594 3.12952 0)
(5.75497 1.34968 -5.28495e-18)
(11.2454 -1.24218 5.32847e-18)
(14.6546 -4.08188 -8.48505e-18)
(15.7003 -6.30303 8.60872e-18)
(14.8791 -7.40588 1.1704e-17)
(12.8974 -7.48612 -1.17693e-17)
(10.261 -6.84983 0)
(7.24067 -5.72419 -1.43973e-17)
(4.05502 -4.24826 1.45864e-17)
(1.06272 -2.59892 2.26607e-19)
(-1.28374 -1.02769 -1.23301e-17)
(-2.64618 0.247367 1.26493e-17)
(-2.95082 1.1556 1.81517e-20)
(-2.37525 1.76833 -1.46809e-19)
(-1.22692 2.19663 -7.30064e-18)
(0.17931 2.5185 7.33791e-18)
(1.61911 2.79967 5.16721e-18)
(2.96929 3.08601 -6.72376e-19)
(4.16461 3.38303 -4.6654e-18)
(5.17687 3.67578 0)
(6.001 3.94245 1.44972e-19)
(6.64366 4.15678 -2.21618e-18)
(7.11937 4.29402 4.70098e-18)
(7.44791 4.33427 -4.02114e-18)
(7.65079 4.26531 1.78439e-18)
(7.74655 4.08627 0)
(7.74614 3.81186 7.74469e-20)
(7.65098 3.47426 -1.17006e-18)
(7.45649 3.11829 1.16939e-18)
(7.16092 2.78965 8.47742e-21)
(6.77599 2.52157 -9.193e-19)
(6.33278 2.32633 6.96744e-19)
(5.87853 2.19531 -8.60574e-19)
(5.46588 2.10622 -9.47515e-19)
(5.14053 2.03296 1.77664e-18)
(4.93282 1.95341 -1.66516e-18)
(4.85493 1.85299 1.74828e-18)
(4.90287 1.72477 0)
(5.06101 1.56773 -1.07799e-19)
(5.30739 1.38463 -1.66009e-18)
(5.61862 1.18023 1.41479e-18)
(5.97413 0.959812 4.12737e-19)
(6.35885 0.728157 0)
(6.76407 0.488938 1.60835e-18)
(7.18569 0.244622 -1.37821e-18)
(7.62035 -0.00302618 -2.03999e-19)
(8.06108 -0.252068 -1.89501e-19)
(8.49436 -0.499593 3.81183e-19)
(8.90051 -0.741429 8.28016e-21)
(9.25743 -0.972543 -1.60865e-18)
(9.54598 -1.18795 1.39271e-18)
(9.75478 -1.38369 -1.64967e-19)
(9.88228 -1.55749 0)
(9.93578 -1.70874 -1.52096e-18)
(9.92822 -1.83813 1.17545e-18)
(9.87321 -1.94887 0)
(9.77635 -2.05775 -1.04592e-18)
(-4.74339 4.12852 -2.0049e-19)
(-7.72554 6.88274 -3.23143e-17)
(-8.50828 7.4904 3.11761e-17)
(-11.1588 7.75126 -6.13627e-17)
(-14.5847 7.85333 3.0463e-17)
(-14.7916 6.87281 5.17629e-19)
(-11.3305 5.02901 2.28343e-17)
(-5.38291 3.23234 -2.37018e-17)
(1.53542 2.20797 -3.6864e-19)
(8.11619 2.17638 -3.62036e-19)
(13.9247 3.10308 -1.56566e-17)
(19.9205 4.50558 -1.3906e-17)
(27.0533 4.67576 3.03963e-17)
(35.4859 3.94641 -2.84719e-17)
(44.347 3.486 5.56176e-17)
(52.418 3.05571 -2.77652e-17)
(59.1984 2.85988 0)
(64.4534 3.19514 0)
(68.1494 3.95425 1.62551e-17)
(70.301 4.93259 -4.34487e-18)
(70.5807 6.16957 -1.19699e-17)
(67.2385 8.68223 1.72945e-18)
(56.7221 14.4021 1.88503e-18)
(37.4431 23.6557 -3.69911e-18)
(14.516 33.2547 -1.08467e-17)
(-3.7764 39.0916 -5.14132e-19)
(-13.786 39.8142 1.17458e-17)
(-17.3222 36.8414 -6.53134e-20)
(-17.4505 32.192 7.00756e-20)
(-16.1075 27.2184 -1.38426e-19)
(-14.1308 22.5359 0)
(-11.8173 18.3493 -2.62174e-18)
(-9.27447 14.7095 4.50594e-18)
(-6.59232 11.6099 -1.8671e-18)
(-3.88556 9.03423 0)
(-1.27799 6.95784 -1.25913e-19)
(1.0998 5.31656 1.1169e-19)
(3.15149 4.0479 0)
(4.83316 3.12588 0)
(6.11829 2.50794 -1.29262e-18)
(6.99031 2.11834 1.40721e-18)
(7.47039 1.90015 1.9398e-19)
(7.60732 1.81461 0)
(7.45781 1.82475 1.45147e-18)
(7.08339 1.89653 -2.09031e-19)
(6.54889 1.99812 -1.6349e-18)
(5.92161 2.09805 -4.77642e-20)
(5.26975 2.16597 1.46375e-19)
(4.6563 2.17592 0)
(4.12927 2.11125 -1.14912e-18)
(3.71661 1.97105 2.06523e-18)
(3.42482 1.77106 -1.06392e-18)
(3.24292 1.53806 -1.23309e-19)
(3.15171 1.30252 -1.03845e-18)
(3.1333 1.09083 1.23666e-19)
(3.17662 0.919522 1.7755e-18)
(3.27788 0.793268 -6.63307e-19)
(3.43737 0.706773 0)
(3.65551 0.648816 0)
(3.93016 0.606462 9.8492e-20)
(4.25592 0.568083 9.74225e-20)
(4.62513 0.524855 0)
(5.02954 0.47102 1.48797e-18)
(5.462 0.403408 -1.45868e-18)
(5.91714 0.320672 -1.76624e-18)
(6.39091 0.222595 -2.1081e-19)
(6.87883 0.109649 1.32644e-18)
(7.37359 -0.0171507 -1.52994e-18)
(7.86331 -0.156187 1.49421e-18)
(8.33127 -0.305123 7.36272e-21)
(8.75784 -0.460886 1.27352e-18)
(9.12419 -0.619852 -1.24007e-18)
(9.41638 -0.778204 -1.21102e-18)
(9.62843 -0.932369 1.5165e-18)
(9.76302 -1.07937 -1.13482e-18)
(9.82982 -1.21695 1.26207e-18)
(9.8423 -1.34353 -1.20289e-18)
(9.81437 -1.45799 2.31927e-18)
(9.757 -1.56097 -1.38918e-20)
(9.67445 -1.65982 -1.66864e-20)
(3.42322 -0.390063 2.99286e-17)
(-7.59023 7.17533 2.95918e-19)
(-33.0437 21.6446 -4.32292e-17)
(-47.6831 29.636 8.58824e-17)
(-41.9707 26.326 -4.29205e-17)
(-22.1996 16.0856 3.69262e-17)
(2.36545 3.45979 -3.89835e-18)
(24.1864 -7.27631 -3.49008e-17)
(39.3864 -14.1657 2.6577e-17)
(47.1721 -18.5353 -2.66236e-17)
(48.9057 -20.2637 2.11048e-17)
(46.9819 -17.5327 -2.16537e-17)
(43.0968 -13.2492 1.75872e-17)
(38.2676 -11.2407 -1.77079e-17)
(33.654 -10.2029 2.38053e-19)
(29.2883 -8.75191 2.24719e-19)
(24.3359 -7.72045 2.77712e-17)
(18.698 -7.04627 -2.82741e-17)
(12.5259 -6.19636 -3.54493e-19)
(5.70693 -5.08967 5.86747e-21)
(-1.82327 -3.6701 2.43927e-17)
(-9.80835 -1.84509 -2.47086e-17)
(-17.4056 0.452339 0)
(-23.258 3.11934 -2.66621e-20)
(-26.1815 5.83753 0)
(-25.9426 8.23083 0)
(-23.3066 10.0615 3.15825e-20)
(-19.3638 11.2715 -4.07943e-19)
(-14.9624 11.9174 3.62159e-19)
(-10.6077 12.1046 -3.09224e-18)
(-6.57829 11.9462 3.26103e-18)
(-3.03777 11.5466 -1.23407e-19)
(-0.0853615 10.9956 1.14862e-19)
(2.22796 10.3675 0)
(3.88758 9.69638 7.67993e-20)
(4.91996 8.97365 0)
(5.40541 8.19288 0)
(5.46363 7.35469 4.90532e-20)
(5.22126 6.44998 0)
(4.80096 5.48728 0)
(4.30316 4.50215 -2.43476e-18)
(3.79529 3.53838 2.42654e-18)
(3.32186 2.64088 0)
(2.90873 1.84425 0)
(2.56934 1.16882 0)
(2.31122 0.622921 -2.75528e-20)
(2.13798 0.204279 4.80335e-20)
(2.0492 -0.0980113 4.04452e-19)
(2.0398 -0.300312 -4.54349e-19)
(2.09847 -0.423145 6.72855e-19)
(2.20988 -0.487609 -7.71141e-19)
(2.35738 -0.512225 1.027e-19)
(2.52651 -0.511256 4.8686e-20)
(2.70856 -0.494046 0)
(2.9018 -0.466053 0)
(3.11027 -0.430463 -6.8304e-19)
(3.3412 -0.38959 -1.07256e-19)
(3.60214 -0.345723 7.64521e-19)
(3.89883 -0.30146 -7.63705e-19)
(4.23411 -0.259644 7.4718e-19)
(4.60793 -0.223118 1.41289e-18)
(5.01779 -0.194483 1.98342e-20)
(5.45929 -0.175984 -2.88587e-18)
(5.92639 -0.169489 1.47217e-18)
(6.41119 -0.176528 9.1898e-20)
(6.90352 -0.198308 1.88871e-19)
(7.3907 -0.235668 1.48191e-18)
(7.85785 -0.288941 -2.92057e-18)
(8.28904 -0.357763 1.43761e-18)
(8.66937 -0.440906 1.82203e-19)
(8.9874 -0.536213 1.41776e-18)
(9.23723 -0.640706 -1.554e-18)
(9.41944 -0.750861 0)
(9.54032 -0.862979 -1.67059e-19)
(9.60991 -0.973562 0)
(9.63939 -1.07962 1.24613e-18)
(9.63897 -1.17879 -5.33853e-21)
(9.61656 -1.26944 -1.16689e-18)
(9.57674 -1.35168 8.32714e-19)
(9.52024 -1.42785 2.62203e-19)
(-2.99572 1.71617 3.52675e-17)
(-25.4068 7.21889 -5.3075e-17)
(-50.0803 21.7942 -4.49406e-19)
(-55.5979 21.7121 -4.6919e-17)
(-39.2786 15.6395 4.81305e-17)
(-23.1829 9.85421 -4.30571e-17)
(-13.7538 7.5557 8.4075e-17)
(-7.53732 6.29816 -4.12427e-17)
(-2.10003 4.55091 3.47042e-17)
(2.06654 3.3616 -3.54295e-17)
(3.87872 3.50435 0)
(3.20728 2.94867 -4.41229e-19)
(1.78168 1.67049 4.63349e-19)
(0.526272 0.844684 0)
(-0.86796 -0.2238 0)
(-2.13817 -1.6065 0)
(-3.22065 -3.02791 0)
(-4.22683 -4.42633 -2.6197e-19)
(-5.27206 -5.69529 0)
(-6.42257 -6.68193 1.18011e-17)
(-7.74866 -7.29055 -1.20239e-17)
(-9.30284 -7.47201 -1.81346e-17)
(-10.9696 -7.22288 1.83813e-17)
(-12.4466 -6.63767 1.36703e-17)
(-13.4327 -5.8852 -1.39771e-17)
(-13.8 -5.09995 9.97383e-18)
(-13.6251 -4.34599 -1.01281e-17)
(-13.0774 -3.63863 6.74901e-18)
(-12.309 -3.00159 -1.5711e-18)
(-11.4193 -2.49091 -5.28314e-18)
(-10.4602 -2.15821 0)
(-9.46268 -2.01949 1.0486e-19)
(-8.45617 -2.0447 1.17228e-19)
(-7.47024 -2.17308 0)
(-6.52539 -2.34147 -7.7316e-20)
(-5.63078 -2.4988 0)
(-4.78353 -2.6144 0)
(-3.9742 -2.67839 1.37599e-18)
(-3.19611 -2.69556 -2.80134e-18)
(-2.44939 -2.67522 1.46659e-18)
(-1.73811 -2.62415 1.2982e-18)
(-1.07422 -2.55206 -1.37368e-18)
(-0.473354 -2.47164 -5.59248e-20)
(0.0544216 -2.38844 0)
(0.506107 -2.30275 1.14175e-18)
(0.884972 -2.21357 -1.02576e-18)
(1.19973 -2.12028 0)
(1.46306 -2.0233 0)
(1.68968 -1.92419 -8.07858e-19)
(1.89468 -1.82542 9.17579e-19)
(2.09217 -1.72943 9.20052e-19)
(2.29442 -1.6377 -8.62662e-19)
(2.51149 -1.55031 -8.39561e-19)
(2.75125 -1.46606 1.56409e-18)
(3.01944 -1.38302 -7.72575e-19)
(3.3196 -1.29929 -1.89077e-19)
(3.65312 -1.2136 0)
(4.01931 -1.12574 9.16063e-20)
(4.41556 -1.03664 -6.56776e-19)
(4.83761 -0.94821 1.38806e-18)
(5.27974 -0.86311 -7.32786e-19)
(5.73503 -0.784421 0)
(6.19546 -0.715367 -9.23538e-20)
(6.65207 -0.659036 0)
(7.09519 -0.618121 -9.19263e-20)
(7.51483 -0.59466 -9.11822e-20)
(7.90139 -0.589794 -1.81931e-19)
(8.24659 -0.603572 -1.45616e-18)
(8.54451 -0.634841 1.24218e-18)
(8.79253 -0.681289 -1.78375e-19)
(8.99159 -0.739668 -1.40938e-18)
(9.14578 -0.806157 1.71965e-18)
(9.26122 -0.876822 -1.35902e-18)
(9.34458 -0.94806 1.32168e-18)
(9.40187 -1.01694 -1.45781e-18)
(9.43776 -1.08139 1.09811e-18)
(9.45542 -1.14015 1.21919e-18)
(9.45676 -1.19261 -1.18189e-18)
(9.4423 -1.2396 2.82426e-19)
(9.41111 -1.283 -2.73457e-19)
(-21.1565 9.93609 -4.4634e-17)
(-44.9297 17.4946 -6.43305e-17)
(-43.1975 18.7354 1.28834e-16)
(-22.9858 8.01619 -1.23964e-16)
(10.8349 -5.23671 6.12522e-17)
(45.221 -19.454 3.86052e-19)
(68.104 -29.4772 -4.93818e-17)
(76.6545 -34.2625 9.67032e-17)
(74.7708 -35.2931 -3.97953e-18)
(66.6947 -34.0246 -4.39738e-17)
(55.0667 -31.2464 1.98118e-19)
(42.1042 -27.7156 3.35178e-17)
(29.9589 -24.3909 -3.41435e-17)
(19.9498 -21.9418 2.6495e-17)
(12.3441 -20.5105 -2.69944e-17)
(6.74123 -19.9315 -2.06775e-17)
(2.4864 -19.9397 2.10414e-17)
(-1.04025 -20.2776 2.56096e-19)
(-4.3504 -20.7464 0)
(-7.69828 -21.1712 1.16005e-17)
(-11.2005 -21.4162 -1.17507e-17)
(-14.6981 -21.4356 2.06993e-20)
(-17.6323 -21.3459 -5.60221e-18)
(-19.2778 -21.3338 5.58652e-18)
(-19.2746 -21.4961 2.75283e-19)
(-17.8665 -21.7652 0)
(-15.6801 -21.9199 -1.82966e-19)
(-13.3899 -21.6811 -1.70612e-19)
(-11.4661 -20.8852 -6.70991e-18)
(-10.0525 -19.5648 6.9967e-18)
(-9.02208 -17.8958 8.48825e-18)
(-8.14569 -16.1089 -8.50845e-18)
(-7.23799 -14.3727 2.04712e-19)
(-6.2252 -12.7651 -7.90232e-18)
(-5.14028 -11.3153 1.46088e-17)
(-4.05807 -10.0177 -6.97999e-18)
(-3.04471 -8.85308 -5.25488e-18)
(-2.13868 -7.80579 5.46884e-18)
(-1.35101 -6.86702 3.51849e-20)
(-0.675095 -6.03218 -1.04639e-19)
(-0.0963801 -5.29795 7.22781e-20)
(0.4015 -4.66026 -2.53676e-18)
(0.832193 -4.11264 4.35066e-19)
(1.20631 -3.64618 2.16292e-18)
(1.53267 -3.25049 -1.67345e-18)
(1.81914 -2.91461 1.58438e-18)
(2.07354 -2.62814 0)
(2.30387 -2.38244 1.12046e-18)
(2.51864 -2.17108 -1.12247e-18)
(2.72713 -1.98944 8.2983e-19)
(2.93909 -1.83414 -1.04711e-19)
(3.1639 -1.70233 -3.51784e-20)
(3.40943 -1.59093 -2.16791e-20)
(3.68106 -1.49639 -1.13335e-20)
(3.98112 -1.41477 -7.32765e-19)
(4.30882 -1.34228 5.04535e-20)
(4.66071 -1.2758 0)
(5.0313 -1.21329 -8.12733e-19)
(5.41389 -1.15398 6.19726e-19)
(5.80122 -1.09826 0)
(6.18609 -1.04744 -8.18286e-19)
(6.56167 -1.00335 6.25354e-19)
(6.92191 -0.967945 0)
(7.26164 -0.942906 -9.20393e-20)
(7.57686 -0.929294 0)
(7.86481 -0.927331 -1.3849e-18)
(8.12412 -0.936295 3.00729e-18)
(8.3548 -0.954565 -1.44057e-18)
(8.55802 -0.979809 1.80098e-19)
(8.73573 -1.00928 1.78485e-19)
(8.89002 -1.0402 -1.42802e-18)
(9.0227 -1.0701 1.21727e-18)
(9.13495 -1.09712 -1.7498e-19)
(9.22733 -1.12019 -1.71498e-19)
(9.3 -1.13895 3.30852e-19)
(9.35305 -1.1537 1.58947e-19)
(9.38667 -1.16505 1.40649e-18)
(9.40134 -1.17376 -1.40089e-21)
(9.39739 -1.18149 -1.31896e-18)
(9.37522 -1.19064 -2.89043e-19)
(-9.27767 5.76617 0)
(-9.09663 9.95859 8.77816e-20)
(9.89243 4.485 -2.75489e-19)
(32.1882 0.0137112 -3.74234e-17)
(44.1632 -1.69682 7.22615e-17)
(40.9611 1.7057 -6.43975e-17)
(23.8664 8.3086 3.01208e-17)
(4.28982 14.4273 0)
(-8.82962 17.7098 -2.07007e-19)
(-15.5864 18.1508 -1.44471e-17)
(-19.0137 17.0059 1.45762e-17)
(-20.7932 15.3444 1.03036e-17)
(-21.7505 13.6038 -1.97152e-17)
(-22.487 11.9237 9.63907e-19)
(-23.4014 10.304 9.53928e-19)
(-24.7091 8.72091 6.82365e-18)
(-26.3933 6.97867 2.82143e-19)
(-28.1476 4.79209 -6.69307e-18)
(-29.4363 1.99974 6.54649e-18)
(-29.6428 -1.31289 -3.8361e-20)
(-28.5137 -4.82019 2.61145e-19)
(-26.1025 -8.42005 4.86708e-19)
(-22.5836 -12.1113 -1.11586e-17)
(-18.296 -15.6409 4.01216e-19)
(-13.7145 -18.7469 1.10795e-17)
(-9.28678 -21.3218 3.93404e-19)
(-5.30046 -23.3004 -1.09958e-17)
(-1.89766 -24.6157 2.13528e-17)
(0.861948 -25.2095 -1.99275e-17)
(2.98952 -25.0977 9.2781e-18)
(4.55223 -24.3335 0)
(5.64417 -23.0222 -1.33504e-17)
(6.36051 -21.2928 2.42336e-17)
(6.78554 -19.2849 -1.10748e-17)
(6.98635 -17.1297 7.74043e-18)
(7.01701 -14.9394 -8.05895e-18)
(6.92198 -12.8023 -1.82064e-19)
(6.73768 -10.7833 0)
(6.4938 -8.92683 -8.98049e-20)
(6.21479 -7.26147 -2.48876e-18)
(5.92079 -5.80376 2.62309e-18)
(5.62826 -4.56046 -5.58477e-21)
(5.35021 -3.52968 1.4901e-21)
(5.09625 -2.70176 0)
(4.87262 -2.0603 0)
(4.68283 -1.58361 6.71902e-19)
(4.52883 -1.24615 -6.72339e-19)
(4.41218 -1.02102 -5.24826e-20)
(4.3348 -0.883214 -5.22024e-19)
(4.3 -0.811197 1.05522e-18)
(4.3125 -0.787606 -4.98551e-19)
(4.37722 -0.798773 0)
(4.49714 -0.833545 6.02518e-19)
(4.67148 -0.88248 -5.70386e-19)
(4.89494 -0.93772 0)
(5.15828 -0.993198 6.8924e-19)
(5.45004 -1.0447 -6.39243e-19)
(5.75819 -1.09003 6.8593e-19)
(6.0718 -1.12879 -5.92415e-19)
(6.3821 -1.16158 0)
(6.68292 -1.18964 1.79416e-19)
(6.97058 -1.21433 9.07645e-20)
(7.24357 -1.23674 -7.47779e-19)
(7.50188 -1.25744 7.15351e-20)
(7.74641 -1.27636 7.39494e-19)
(7.97821 -1.29289 0)
(8.19801 -1.30602 9.27353e-20)
(8.40578 -1.31458 0)
(8.60056 -1.31748 0)
(8.78057 -1.31402 -1.49622e-18)
(8.94342 -1.30395 1.45872e-18)
(9.08663 -1.28764 1.27009e-18)
(9.20802 -1.26596 1.87628e-19)
(9.30606 -1.24019 -1.21856e-18)
(9.38005 -1.21184 -1.53362e-18)
(9.43016 -1.18247 1.32616e-18)
(9.45734 -1.15348 -1.58707e-19)
(9.46317 -1.126 -1.25004e-18)
(9.4493 -1.10196 2.72169e-18)
(9.41796 -1.08417 -8.89646e-19)
(-1.37685 0.766224 3.65314e-17)
(-5.14729 1.91526 -2.75311e-17)
(-3.97045 0.996658 -2.86588e-17)
(1.66604 -3.52731 2.93026e-17)
(8.60626 -9.06363 2.60632e-19)
(13.0293 -13.8462 2.4389e-19)
(13.3134 -16.5925 0)
(10.5986 -17.1286 2.9867e-17)
(6.92426 -16.1401 -3.0573e-17)
(3.39108 -14.4459 0)
(0.0996699 -12.4906 -3.01129e-17)
(-3.19774 -10.3442 6.0869e-17)
(-6.70974 -7.97517 -3.42511e-19)
(-10.4663 -5.35416 -6.02815e-17)
(-14.4278 -2.41806 3.04763e-17)
(-18.5845 0.923445 2.81671e-19)
(-22.8887 4.66813 -1.41439e-19)
(-27.1408 8.71357 0)
(-30.7391 12.7616 2.6091e-17)
(-32.715 16.298 -2.63091e-17)
(-32.3367 18.8126 -1.53717e-19)
(-29.7188 20.1503 2.00726e-17)
(-25.6358 20.5888 -2.08234e-17)
(-20.7923 20.3871 1.60089e-17)
(-15.4857 19.5608 -1.6289e-17)
(-9.77088 18.0393 -3.84711e-19)
(-3.79845 15.9298 1.06152e-17)
(2.09638 13.4784 -1.98086e-18)
(7.52256 10.9742 -1.52092e-17)
(12.1808 8.61509 1.80996e-18)
(15.8911 6.55175 5.2422e-18)
(18.5762 4.88074 2.68444e-18)
(20.2494 3.64172 -2.70009e-18)
(21.0014 2.82152 0)
(20.9792 2.364 1.52493e-19)
(20.355 2.18822 1.13126e-19)
(19.2978 2.20856 0)
(17.9522 2.35024 -1.1899e-18)
(16.4338 2.55582 1.15937e-18)
(14.835 2.78556 -2.24561e-20)
(13.2309 3.01214 0)
(11.6829 3.21517 5.55604e-21)
(10.2404 3.37655 -1.24479e-18)
(8.94121 3.47863 1.20862e-18)
(7.81115 3.50372 0)
(6.86413 3.43642 6.20268e-19)
(6.10159 3.26829 -6.35903e-19)
(5.51358 3.00292 0)
(5.08302 2.6575 0)
(4.79246 2.25916 -1.48868e-20)
(4.62877 1.8369 -1.91919e-20)
(4.58361 1.41517 0)
(4.64704 1.01199 3.18919e-19)
(4.80332 0.638686 -3.42925e-19)
(5.03127 0.301161 -4.90331e-19)
(5.30732 0.00136992 -3.19687e-20)
(5.6096 -0.261386 1.13761e-18)
(5.92079 -0.489428 -1.22783e-18)
(6.22926 -0.685843 -1.29133e-19)
(6.52875 -0.853862 5.7822e-19)
(6.81724 -0.996427 -8.95254e-20)
(7.09537 -1.11595 0)
(7.36498 -1.21426 0)
(7.6278 -1.29267 7.85401e-19)
(7.88457 -1.35214 -8.71958e-19)
(8.13458 -1.3935 0)
(8.37564 -1.41759 1.03411e-19)
(8.60442 -1.4255 0)
(8.81692 -1.41857 7.96421e-19)
(9.0091 -1.39848 -7.77132e-19)
(9.17736 -1.36716 2.00811e-19)
(9.31892 -1.32679 1.71717e-18)
(9.43208 -1.27964 -1.49028e-18)
(9.51629 -1.22806 1.88927e-19)
(9.57214 -1.17434 0)
(9.60123 -1.12061 0)
(9.60596 -1.06868 0)
(9.58929 -1.02003 -1.47193e-18)
(9.55412 -0.976989 -1.50313e-19)
(9.50386 -0.942798 2.45309e-18)
(1.46064 -0.539931 8.81031e-19)
(-2.02496 2.2671 3.37513e-19)
(-10.1802 5.46487 -3.45362e-19)
(-16.2587 9.55121 -1.276e-18)
(-19.1082 11.3149 1.37872e-18)
(-20.2733 12.23 7.56944e-20)
(-21.2626 12.8697 7.65738e-20)
(-22.7864 13.6066 0)
(-24.9321 14.6112 9.61616e-20)
(-27.5463 15.8269 0)
(-30.3296 17.0986 7.75348e-20)
(-32.8205 18.217 9.49902e-18)
(-34.4695 18.9845 -9.61532e-18)
(-34.8767 19.2949 -1.11451e-17)
(-34.0237 19.2141 1.1225e-17)
(-32.2438 18.9355 -1.16995e-17)
(-30.0208 18.7011 1.20278e-17)
(-27.7403 18.7 0)
(-25.5364 19.004 0)
(-23.3319 19.5454 0)
(-21 20.1631 1.01416e-17)
(-18.4685 20.7033 -2.00515e-17)
(-15.7116 21.0754 8.1354e-19)
(-12.7452 21.246 1.70917e-17)
(-9.60158 21.2038 -8.25015e-18)
(-6.34919 20.9538 0)
(-3.00249 20.5082 -3.97397e-20)
(0.436739 19.8625 0)
(3.8695 19.0476 4.20388e-18)
(7.13412 18.0999 -4.24947e-18)
(10.0447 17.0879 3.28163e-20)
(12.4305 16.0761 0)
(14.1755 15.1206 -2.64249e-18)
(15.2397 14.2572 5.02549e-18)
(15.6509 13.4998 -2.38808e-18)
(15.4846 12.8353 1.83387e-18)
(14.8543 12.2361 -3.43426e-18)
(13.8984 11.6667 1.59738e-18)
(12.7505 11.0784 0)
(11.5264 10.4329 0)
(10.3119 9.72773 0)
(9.14953 8.9852 -5.62434e-19)
(8.04042 8.23546 1.46972e-18)
(6.96445 7.51091 -8.71913e-19)
(5.90844 6.83726 0)
(4.88749 6.22081 4.2961e-19)
(3.95219 5.64603 -4.10464e-19)
(3.1781 5.08507 -2.26639e-19)
(2.63856 4.51352 9.53271e-20)
(2.37668 3.92325 9.01909e-20)
(2.3884 3.31644 9.47028e-20)
(2.62679 2.70688 -4.57363e-20)
(3.0244 2.11877 0)
(3.51218 1.57108 0)
(4.03353 1.07436 -3.88296e-19)
(4.55043 0.632771 4.11451e-19)
(5.04203 0.245836 0)
(5.50042 -0.0894449 0)
(5.92582 -0.377018 4.43336e-20)
(6.32269 -0.620886 8.70729e-20)
(6.69683 -0.824713 0)
(7.05353 -0.991753 0)
(7.3964 -1.12491 -1.08549e-19)
(7.72688 -1.2269 -1.11113e-19)
(8.04427 -1.30031 9.63886e-19)
(8.34609 -1.34773 -1.7128e-18)
(8.62873 -1.37179 -1.2374e-19)
(8.88811 -1.37514 1.71798e-18)
(9.12019 -1.36045 -1.81943e-18)
(9.32152 -1.3304 1.68859e-18)
(9.48952 -1.28765 -3.02236e-19)
(9.6227 -1.23484 -8.13794e-19)
(9.72078 -1.17461 1.60049e-18)
(9.78473 -1.10958 1.63429e-20)
(9.81664 -1.04232 -3.03053e-18)
(9.81958 -0.975238 1.66116e-18)
(9.7973 -0.910453 0)
(9.75392 -0.849783 3.44574e-19)
(9.69332 -0.796001 0)
(9.61956 -0.752698 -1.28263e-18)
(4.64541 -2.04117 0)
(14.2398 -5.69388 2.28357e-20)
(20.7461 -7.66736 -2.35628e-20)
(23.9779 -8.47706 1.72325e-17)
(25.6144 -8.24706 -3.44093e-17)
(26.1789 -7.64657 1.69543e-17)
(26.1231 -6.84917 -7.617e-20)
(25.7826 -5.94054 0)
(25.4101 -4.94702 0)
(25.1743 -3.83926 0)
(25.1424 -2.5681 -7.67881e-20)
(25.2865 -1.08032 -1.41469e-19)
(25.5186 0.650256 0)
(25.7546 2.58112 6.93298e-20)
(25.9627 4.62949 2.79949e-19)
(26.1436 6.70804 -3.84006e-18)
(26.3159 8.74268 3.65853e-18)
(26.4799 10.6925 -1.5629e-19)
(26.6128 12.5471 0)
(26.686 14.3138 1.61722e-19)
(26.7097 15.9732 7.11066e-20)
(26.7289 17.4875 2.40759e-18)
(26.7966 18.807 6.44973e-19)
(26.9535 19.8773 -3.03636e-18)
(27.2349 20.655 6.45853e-20)
(27.6093 21.1115 1.48483e-19)
(28.0426 21.2467 -3.54892e-18)
(28.4497 21.1022 3.09396e-18)
(28.7742 20.7445 2.40819e-19)
(28.8814 20.2383 -2.09588e-20)
(28.5924 19.6581 -1.85501e-20)
(27.8051 19.0576 -1.88486e-18)
(26.5071 18.4751 1.90575e-18)