/*--------------------------------*- C++ -*----------------------------------*\
| =========                 |                                                 |
| \\      /  F ield         | OpenFOAM: The Open Source CFD Toolbox           |
|  \\    /   O peration     | Version:  2012                                  |
|   \\  /    A nd           | Website:  www.openfoam.com                      |
|    \\/     M anipulation  |                                                 |
\*---------------------------------------------------------------------------*/
FoamFile
{
    version     2.0;
    format      ascii;
    class       surfaceScalarField;
    location    "0.52";
    object      phi;
}
// * * * * * * * * * * * * * * * * * * * * * * * * * * * * * * * * * * * * * //

dimensions      [0 3 -1 0 0 0 0];
oriented        oriented;


internalField   nonuniform List<scalar> 
84340
(
-0.000276596
-3.41158e-05
0.000310712
-0.0011062
3.54417e-05
0.000794161
-0.00260976
0.000520956
0.000982606
-0.0046062
0.00125077
0.000745672
-0.00672535
0.00188369
0.000235455
-0.00864357
0.00218732
-0.000269095
-0.0100261
0.00196287
-0.00058039
-0.0106608
0.00128676
-0.000652019
-0.010572
0.000507538
-0.000596294
-0.00996349
-6.64514e-05
-0.000542101
-0.00906463
-0.000372847
-0.000526011
-0.0080822
-0.000430755
-0.000551677
-0.00724514
-0.000220966
-0.00061609
-0.00664632
0.000135887
-0.000734709
-0.00620245
0.000446507
-0.000890382
-0.00576655
0.000637638
-0.00107354
-0.00522434
0.000731264
-0.00127347
-0.00455553
0.000774969
-0.00144378
-0.00383242
0.000791952
-0.00151506
-0.00314263
0.000803484
-0.00149328
-0.00251906
0.000793547
-0.00141712
-0.00195654
0.000723056
-0.00128557
-0.0014445
0.000550176
-0.00106222
-0.000977336
0.000272051
-0.000739211
-0.000567425
-3.39628e-05
-0.000375948
-0.000250166
-0.000231504
-8.57552e-05
-5.97656e-05
-0.000239582
4.91821e-05
3.00366e-06
-0.000117809
5.50401e-05
-2.79385e-05
4.6309e-06
2.63114e-05
-0.000109258
4.93566e-05
3.19627e-05
-0.000208823
1.38245e-05
8.5741e-05
-0.000306141
-7.00656e-05
0.000167383
-0.000390521
-0.000168238
0.000252618
-0.000457949
-0.000254919
0.000322347
-0.000500516
-0.000322138
0.000364706
-0.000521775
-0.000354207
0.000375465
-0.000525106
-0.000353744
0.000357076
-0.000521205
-0.00032052
0.000316619
-0.000517472
-0.000265996
0.000262262
-0.000518708
-0.000201617
0.000202853
-0.000527472
-0.000136175
0.00014494
-0.000544442
-7.55881e-05
9.25579e-05
-0.000568724
-2.32902e-05
4.75711e-05
-0.000598157
1.90968e-05
1.03356e-05
-0.000629708
5.10044e-05
-1.94529e-05
-0.000660241
7.23551e-05
-4.18221e-05
-0.000687107
8.32113e-05
-5.63454e-05
-0.000708446
8.36567e-05
-6.23179e-05
-0.000723199
7.37817e-05
-5.90286e-05
-0.000730975
5.36805e-05
-4.59047e-05
-0.000731825
2.34429e-05
-2.25918e-05
-0.000725998
-1.68648e-05
1.10375e-05
-0.000713977
-6.69157e-05
5.48947e-05
-0.000696064
-0.000127333
0.00010942
-0.000670476
-0.000197166
0.000171578
-0.000637843
-0.000276003
0.000243369
-0.00059735
-0.000363252
0.000322759
-0.000548274
-0.00045728
0.000408205
-0.000490269
-0.00055562
0.000497614
-0.000423696
-0.000654872
0.000588298
-0.000349905
-0.000750831
0.00067704
-0.000271327
-0.000838906
0.000760328
-0.000191277
-0.00091483
0.00083478
-0.000113414
-0.000975534
0.000897671
-4.09847e-05
-0.00101985
0.000947423
2.39067e-05
-0.00104876
0.000983869
8.06796e-05
-0.00106498
0.00100821
0.000130253
-0.00107228
0.00102271
0.00017455
-0.00107456
0.00103027
0.000215882
-0.00107541
0.00103408
0.000256353
-0.00107776
0.00103729
0.000297453
-0.00108383
0.00104273
0.000339861
-0.00109499
0.00105258
0.000383467
-0.0011116
0.00106799
0.00042757
-0.00113295
0.00108885
0.000471173
-0.0011574
0.0011138
0.000513248
-0.00118271
0.00114064
0.000552806
-0.00120666
0.0011671
0.000588728
-0.00122807
0.00119215
-0.0012482
0.00121764
0.000619288
0.000355618
-0.000389734
0.000757288
-0.000366228
0.000993885
0.000284359
0.00113605
0.0011086
0.0013241
0.00169564
0.00168799
0.00182343
0.00220795
0.00144291
0.00278361
0.000711106
0.00337119
-8.00398e-05
0.0039777
-0.000672965
0.00457429
-0.000969441
0.00504792
-0.000904386
0.00537735
-0.000550393
0.00568514
-0.0001719
0.00603793
9.37136e-05
0.00641182
0.000263746
0.00678014
0.000362947
0.00712308
0.000432026
0.0074388
0.000476233
0.00773224
0.000510042
0.00798738
0.000538406
0.00817677
0.000533669
0.00824253
0.000484414
0.00812432
0.000390259
0.00780898
0.000281378
0.00737058
0.000206897
0.00693496
0.000196037
0.00658256
0.000234598
0.00630207
0.000285119
0.0060314
0.000320026
0.00571425
0.000330976
0.00532371
0.000320478
0.00486083
0.000294639
0.00434461
0.000261295
0.00379448
0.000227993
0.00323935
0.000200927
0.00270242
0.000183186
0.00220691
0.000174994
0.00176636
0.000174547
0.00138576
0.000178985
0.00106402
0.000185561
0.000796834
0.000191603
0.000578139
0.000195404
0.000401433
0.000195804
0.000260392
0.000192046
0.000149108
0.000183639
6.20454e-05
0.000170274
-6.02183e-06
0.000151724
-5.99282e-05
0.000127688
-0.000103853
9.76055e-05
-0.00014088
6.04699e-05
-0.000172696
1.49517e-05
-0.000196611
-4.3001e-05
-0.000216264
-0.00010768
-0.000239928
-0.000173502
-0.000259063
-0.000256867
-0.000271523
-0.000350793
-0.000275835
-0.000452968
-0.000271105
-0.000560349
-0.000257216
-0.000668761
-0.00023506
-0.000772986
-0.000206602
-0.000867363
-0.000174622
-0.00094681
-0.000142075
-0.00100808
-0.000111177
-0.00105075
-8.27169e-05
-0.00107722
-5.55848e-05
-0.00109212
-2.72485e-05
-0.00110062
5.4645e-06
-0.00110728
4.5382e-05
-0.00111532
9.42214e-05
-0.0011266
0.000152219
-0.00114183
0.000218162
-0.00116093
0.000289756
-0.00118319
0.000364215
-0.00120741
0.000438909
-0.0012321
0.000511916
-0.00125572
0.000582336
-0.00127708
0.000650356
-0.00129609
-0.0013152
0.000717352
-0.000654305
0.000264571
-0.00143001
0.000409479
-0.00174433
0.000598679
-0.00164969
0.00101396
-0.0012393
0.00128525
-0.000614761
0.0011989
-6.1577e-05
0.000889727
0.000149635
0.000499894
-3.80055e-05
0.000107601
-0.000489149
-0.000221821
-0.00105983
-0.000398757
-0.00159408
-0.00037014
-0.00189603
-0.000248438
-0.00186168
-0.000206259
-0.00153337
-0.000234593
-0.00102335
-0.000246269
-0.000443693
-0.000216714
0.000148794
-0.00016046
0.000724048
-9.90215e-05
0.00127046
-3.63734e-05
0.00177483
3.40359e-05
0.00219841
0.000110098
0.00250353
0.000179286
0.00266331
0.000230477
0.00268075
0.000263942
0.00259835
0.000289293
0.0024787
0.000315696
0.00236689
0.000346408
0.0022788
0.000373205
0.00219862
0.000400206
0.00210193
0.000427665
0.00197188
0.000450524
0.00180092
0.000465598
0.00159129
0.000470922
0.0013532
0.000466082
0.00110255
0.000451577
0.000856199
0.000429541
0.000627381
0.000403812
0.000424911
0.000377016
0.000253517
0.000350379
0.000116746
0.000322332
1.4762e-05
0.000293586
-5.28259e-05
0.000262992
-8.72134e-05
0.000230191
-9.09465e-05
0.000195779
-6.82055e-05
0.000160898
-2.53253e-05
0.000127394
2.93352e-05
9.70629e-05
8.63428e-05
7.068e-05
0.000136029
4.79188e-05
0.00017493
2.15689e-05
0.000198153
-8.27164e-06
0.000200207
-4.50555e-05
0.000191311
-9.87845e-05
0.000181783
-0.000163974
0.000164712
-0.000239795
0.000142022
-0.000328103
0.000117085
-0.000428031
9.30299e-05
-0.000536295
7.21656e-05
-0.000647897
5.57513e-05
-0.000756572
4.39107e-05
-0.000855523
3.58011e-05
-0.000938701
3.0127e-05
-0.00100241
2.59564e-05
-0.00104658
2.38274e-05
-0.00107509
2.58561e-05
-0.00109414
3.54819e-05
-0.00111024
5.64221e-05
-0.00112822
9.15235e-05
-0.00115043
0.000141947
-0.00117702
0.000206896
-0.00120678
0.000283851
-0.00123789
0.000369151
-0.00126849
0.000458714
-0.00129697
0.000548749
-0.00132213
0.000636299
-0.00134327
0.000719553
-0.00136034
0.00079781
-0.00137435
-0.00138818
0.000870795
0.000111623
0.000152948
0.000374138
0.000146963
0.000998304
-2.54873e-05
0.00207973
-6.74655e-05
0.00344264
-7.76595e-05
0.00478629
-0.000144755
0.00586217
-0.000186155
0.00653646
-0.000174395
0.00677887
-0.000134807
0.00664121
-8.41623e-05
0.00628013
-3.76777e-05
0.0059287
-1.87078e-05
0.00573506
-5.48071e-05
0.0056644
-0.000135593
0.00564693
-0.000217128
0.00567601
-0.000275348
0.00575709
-0.000297792
0.00587967
-0.000283042
0.00601695
-0.000236296
0.0061447
-0.000164127
0.00625293
-7.41943e-05
0.0063414
2.16305e-05
0.00641559
0.000105094
0.00649077
0.000155302
0.00659288
0.000161826
0.00674608
0.000136094
0.00695715
0.000104627
0.00721371
8.98521e-05
0.00748552
0.000101388
0.00774589
0.000139842
0.00796642
0.000207134
0.00812324
0.000293707
0.00820693
0.000381905
0.00821881
0.000459046
0.00814455
0.00054034
0.00798083
0.000615297
0.00773297
0.000677401
0.0074141
0.000722686
0.00704174
0.000749374
0.00663476
0.000757363
0.00620897
0.000748122
0.00577856
0.000723996
0.00535323
0.000688316
0.00493897
0.000644456
0.00453903
0.000595723
0.00415468
0.000545244
0.00378651
0.000495565
0.00343491
0.000448665
0.00310016
0.00040543
0.00278326
0.000364818
0.00248125
0.000323576
0.00219593
0.000277053
0.00193063
0.000220239
0.00168274
0.000149113
0.00145713
6.16346e-05
0.00125725
-3.99183e-05
0.0010835
-0.000154351
0.00093576
-0.000280291
0.000811883
-0.000412418
0.000709086
-0.0005451
0.000624309
-0.000671794
0.000554365
-0.000785579
0.000496061
-0.000880396
0.000446514
-0.000952861
0.000403822
-0.00100389
0.000367711
-0.00103898
0.000340081
-0.00106651
0.000324476
-0.00109464
0.000324828
-0.00112857
0.000344004
-0.0011696
0.000382839
-0.00121586
0.0004399
-0.00126384
0.000511877
-0.00130987
0.000594302
-0.00135092
0.00068235
-0.00138502
0.000771535
-0.00141132
0.000858203
-0.00142994
0.000939748
-0.00144188
0.00101445
-0.00144905
-0.0014548
0.00108107
0.000394961
-0.000242013
0.000927497
-0.000385572
0.0013878
-0.000485793
0.00192845
-0.00060811
0.00256772
-0.000716933
0.00322593
-0.000802967
0.00388605
-0.000846268
0.00455729
-0.000845643
0.00523729
-0.000814799
0.00592848
-0.000775355
0.00664024
-0.00074944
0.0073671
-0.000745565
0.00805205
-0.00073976
0.00861098
-0.000694515
0.00899847
-0.000604624
0.00918698
-0.000463852
0.00917037
-0.000281186
0.00895925
-7.19199e-05
0.00857367
0.000149285
0.00804103
0.000368512
0.00739852
0.000568317
0.00671104
0.000709108
0.00608002
0.000736117
0.00559021
0.000645111
0.00524377
0.000508265
0.00498496
0.000394896
0.00477183
0.000317764
0.00459716
0.000264523
0.0044719
0.000226643
0.0044079
0.000203847
0.00439696
0.000218074
0.00441744
0.000273228
0.00446682
0.000332517
0.00452508
0.000400793
0.00458956
0.000475852
0.00465132
0.000553545
0.00469943
0.000629288
0.00472341
0.0006987
0.00471474
0.000758048
0.00466749
0.00080461
0.00457882
0.000836797
0.00444838
0.000854431
0.00427822
0.000858474
0.00407207
0.000850613
0.00383501
0.00083278
0.00357355
0.000806699
0.00329558
0.000773536
0.00301053
0.000733717
0.00272907
0.000686889
0.00246187
0.000632015
0.00221785
0.000567602
0.00200287
0.000492026
0.00181914
0.000403976
0.00166542
0.000302826
0.00153825
0.00018881
0.00143533
6.30033e-05
0.00135151
-7.05375e-05
0.00128198
-0.000210758
0.00122234
-0.000352774
0.00116862
-0.000491389
0.00111738
-0.000620551
0.00106573
-0.000733923
0.00101151
-0.000826184
0.000953661
-0.000895008
0.000892735
-0.00094296
0.000831583
-0.000977828
0.000775422
-0.00101035
0.000730889
-0.0010501
0.000704252
-0.00110193
0.000699658
-0.00116501
0.000718213
-0.00123441
0.000758075
-0.0013037
0.000815197
-0.00136699
0.000884298
-0.00142002
0.000959792
-0.00146052
0.00103655
-0.00148807
0.00111042
-0.0015038
0.00117843
-0.00150989
0.00123866
-0.00150928
-0.00150628
0.00129013
-4.83648e-05
-0.000193648
0.000102212
-0.000536149
0.000400149
-0.00078373
0.000580485
-0.000788446
0.000524602
-0.000661051
0.000228582
-0.000506946
-0.000262689
-0.000354997
-0.000889272
-0.000219061
-0.00162122
-8.28493e-05
-0.00245117
5.45921e-05
-0.0033777
0.000177087
-0.00439662
0.000273362
-0.00549425
0.00035787
-0.00662838
0.000439609
-0.00775592
0.00052292
-0.008822
0.000602227
-0.00976616
0.000662973
-0.0105275
0.000689377
-0.011048
0.000669843
-0.0112762
0.000596663
-0.0111799
0.000472056
-0.0107694
0.000298582
-0.0101011
6.77998e-05
-0.00928197
-0.000173985
-0.00842228
-0.000351424
-0.00758984
-0.000437543
-0.00681184
-0.00046023
-0.00609588
-0.000451445
-0.00544942
-0.000419815
-0.00486721
-0.000378364
-0.00432803
-0.000321104
-0.00380485
-0.000249954
-0.00330282
-0.000169511
-0.00281061
-9.1417e-05
-0.00233463
-1.23586e-07
-0.00187679
9.57059e-05
-0.00143908
0.000191571
-0.00102436
0.000283983
-0.000636439
0.000370128
-0.000279542
0.000447713
4.21707e-05
0.000515085
0.000325512
0.00057109
0.000568865
0.000615121
0.00077253
0.000646948
0.000938796
0.000666514
0.00107171
0.000673786
0.00117663
0.00066862
0.00125962
0.000650729
0.00132679
0.000619718
0.00138364
0.000575162
0.00143452
0.000516727
0.00148225
0.000444292
0.00152815
0.00035808
0.00157224
0.000258735
0.00161352
0.000147529
0.00164983
2.66943e-05
0.00168048
-0.00010119
0.0017023
-0.000232573
0.00171249
-0.000362964
0.00170808
-0.000486984
0.0016862
-0.000598669
0.00164458
-0.000692298
0.00158235
-0.000763962
0.00150113
-0.000813782
0.00140589
-0.000847719
0.00130521
-0.000877148
0.00121003
-0.000915178
0.00113117
-0.000971239
0.00107662
-0.00104739
0.00105011
-0.0011385
0.00105114
-0.00123543
0.00107598
-0.00132855
0.00111903
-0.00141004
0.00117381
-0.00147479
0.00123389
-0.0015206
0.00129365
-0.00154783
0.00134876
-0.00155891
0.00139644
-0.00155758
0.00143529
-0.00154813
-0.00153615
0.00146516
-0.000102321
-9.13267e-05
-5.13175e-05
-0.000587153
0.000187748
-0.0010228
0.000340533
-0.000941231
0.000186192
-0.00050671
-0.000306711
-1.40433e-05
-0.000987481
0.000325773
-0.00173354
0.000526994
-0.00248357
0.000667186
-0.0031949
0.00076592
-0.00381499
0.000797176
-0.0042933
0.000751671
-0.00459232
0.000656893
-0.00469968
0.000546966
-0.00462534
0.000448581
-0.00439587
0.000372757
-0.00404768
0.000314786
-0.00362017
0.000261869
-0.00315178
0.000201452
-0.00267989
0.000124775
-0.00224938
4.15435e-05
-0.00191506
-3.57354e-05
-0.00174774
-9.95238e-05
-0.00176518
-0.000156544
-0.0018959
-0.00022071
-0.00204367
-0.000289764
-0.00215175
-0.000352152
-0.00220857
-0.000394628
-0.00221837
-0.000410017
-0.00219847
-0.00039826
-0.00215567
-0.000363904
-0.00209236
-0.00031326
-0.00200979
-0.000252081
-0.00191623
-0.000184982
-0.00180183
-0.000114522
-0.00166353
-4.25915e-05
-0.00150176
2.97939e-05
-0.00131836
0.000100588
-0.00111692
0.00016869
-0.00090201
0.000232799
-0.00067833
0.000291405
-0.000450341
0.000343101
-0.000221836
0.000386616
4.19957e-06
0.000420913
0.000225625
0.000445089
0.000441072
0.000458339
0.000649713
0.000459978
0.000850994
0.000449448
0.00104438
0.000426329
0.00122918
0.000390361
0.00140456
0.000341353
0.00156916
0.000279685
0.00172094
0.000206303
0.00185849
0.000121187
0.00197959
2.64235e-05
0.00208217
-7.58837e-05
0.00216319
-0.000182206
0.00221938
-0.000288767
0.00224718
-0.000390762
0.002243
-0.000482805
0.00220395
-0.000559619
0.00212903
-0.000617376
0.00202078
-0.000655717
0.0018869
-0.000679903
0.00174066
-0.000701474
0.00159888
-0.000735369
0.0014776
-0.000793894
0.00138766
-0.000881299
0.00133293
-0.000992659
0.00131142
-0.00111699
0.00131768
-0.00124169
0.00134481
-0.00135568
0.00138557
-0.0014508
0.00143293
-0.00152215
0.00148047
-0.00156814
0.00152293
-0.0015903
0.00155672
-0.0015927
0.00158016
-0.00158101
0.00159327
-0.00156124
-0.00154031
0.00159743
0.00032109
-0.000412417
0.000756194
-0.00102226
0.00109672
-0.00136332
0.00146268
-0.0013072
0.00191242
-0.000956447
0.00235582
-0.000457446
0.00263783
4.37673e-05
0.00268649
0.000478335
0.00255412
0.000799552
0.00240576
0.000914285
0.00235863
0.000844299
0.00241472
0.000695583
0.00250713
0.000564483
0.00256297
0.000491129
0.00253834
0.000473208
0.00241894
0.000492156
0.00220509
0.000528641
0.00190508
0.00056188
0.00152013
0.000586401
0.00105087
0.000594031
0.000520845
0.000571573
-2.97939e-05
0.000514903
-0.000546192
0.000416874
-0.000975149
0.000272413
-0.00128306
8.72024e-05
-0.00145306
-0.000119764
-0.00148801
-0.000317208
-0.0014083
-0.000474336
-0.00124718
-0.000571135
-0.00104293
-0.000602514
-0.000830591
-0.00057624
-0.000635882
-0.000507968
-0.000471608
-0.000416355
-0.000336697
-0.000319894
-0.000235075
-0.000216144
-0.000157387
-0.00012028
-0.000100089
-2.75033e-05
-4.80296e-05
4.85277e-05
8.17014e-06
0.00011249
7.4559e-05
0.00016641
0.000154965
0.000211
0.000252556
0.00024551
0.000369309
0.000269863
0.000504806
0.000285416
0.000657557
0.000292338
0.000825336
0.000290559
0.00100519
0.000280127
0.00119354
0.000261097
0.00138618
0.000233689
0.00157772
0.000198816
0.00176596
0.00015312
0.00194564
0.000100005
0.00211055
4.13902e-05
0.00225844
-2.6704e-05
0.00238296
-9.80946e-05
0.00247906
-0.000171985
0.0025421
-0.000245248
0.00256734
-0.000314002
0.00255034
-0.000373758
0.00248769
-0.000420161
0.00237881
-0.000450733
0.00222886
-0.000467434
0.00205151
-0.000478366
0.00186826
-0.000496655
0.00170318
-0.000536386
0.00157527
-0.000607461
0.00149326
-0.000711888
0.00145543
-0.000843465
0.00145345
-0.000990683
0.00147704
-0.00114058
0.00151674
-0.00128139
0.00156471
-0.00140365
0.00161434
-0.00150043
0.00165985
-0.00156766
0.00169632
-0.00160462
0.00172018
-0.00161415
0.00172971
-0.00160223
0.00172536
-0.00157667
0.00170945
-0.00154532
-0.00151612
0.00168526
-7.24166e-05
-0.00034
-0.000472978
-0.000621695
-0.00133498
-0.000501321
-0.0025073
-0.000134872
-0.0038225
0.000358752
-0.00523859
0.000958644
-0.00677809
0.00158327
-0.00836604
0.00206628
-0.00975397
0.00218749
-0.0106831
0.00184343
-0.0109981
0.00115925
-0.0107487
0.000446193
-0.0101
-8.42435e-05
-0.00920367
-0.000405158
-0.00814189
-0.000588568
-0.00694359
-0.000706141
-0.00562706
-0.000787891
-0.00421485
-0.000850332
-0.00274123
-0.00088722
-0.00125351
-0.000893688
0.000189826
-0.000871765
0.00153375
-0.00082902
0.00272771
-0.000777088
0.00372655
-0.000726428
0.00449233
-0.000678573
0.00500705
-0.000634487
0.00528032
-0.00059048
0.00533774
-0.000531749
0.00521551
-0.000448908
0.00495238
-0.000339386
0.00458527
-0.000209126
0.00414393
-6.66247e-05
0.00365273
7.48399e-05
0.00313657
0.000196267
0.00262558
0.000294844
0.00214167
0.000363635
0.00171712
0.000397045
0.00136607
0.000399573
0.00109435
0.000384218
0.000903301
0.000357455
0.000789087
0.000325214
0.000743437
0.000291159
0.000756345
0.000256955
0.000818511
0.000223249
0.000920778
0.000190071
0.00105416
0.000157179
0.00121025
0.000124035
0.00138105
9.02966e-05
0.00155934
5.53944e-05
0.00173836
1.97956e-05
0.00190637
-1.48808e-05
0.00205768
-5.13076e-05
0.00218746
-8.83924e-05
0.00228626
-0.000125501
0.00234941
-0.000161254
0.00237126
-0.000193828
0.00234719
-0.000221185
0.00227504
-0.000241852
0.00215725
-0.000255963
0.00200312
-0.000266036
0.00182962
-0.000277236
0.00165937
-0.00029718
0.00151593
-0.000334928
0.0014178
-0.000398522
0.00137332
-0.000491905
0.00137924
-0.000613381
0.0014238
-0.000756448
0.00149224
-0.000911906
0.00157141
-0.00106986
0.00165169
-0.00122085
0.00172654
-0.00135625
0.00179132
-0.00146843
0.00184227
-0.00155137
0.00187621
-0.0016016
0.00189093
-0.00161934
0.00188576
-0.00160897
0.00186207
-0.00157854
0.00182334
-0.00153795
0.00177456
-0.00149654
-0.00146235
0.00172079
-0.000522104
0.000182103
-0.00146285
0.000319054
-0.00251679
0.000552617
-0.00362359
0.000971926
-0.00470251
0.00143767
-0.00557714
0.00183328
-0.00607402
0.00208015
-0.00611542
0.00210768
-0.00576826
0.00184033
-0.00517566
0.00125083
-0.00451843
0.000502016
-0.00389248
-0.000179749
-0.00331101
-0.000665717
-0.00274992
-0.000966249
-0.00218427
-0.00115422
-0.00159791
-0.0012925
-0.000973578
-0.00141222
-0.000306407
-0.0015175
0.000400991
-0.00159462
0.00113037
-0.00162307
0.00184504
-0.00158643
0.00249867
-0.00148265
0.0030459
-0.00132432
0.00344896
-0.00112949
0.00368467
-0.000914287
0.00374253
-0.000692339
0.00363002
-0.000477975
0.00336756
-0.000269282
0.00300438
-8.57348e-05
0.00259652
6.8479e-05
0.00219538
0.000192011
0.00184029
0.000288463
0.00155057
0.00036456
0.00132042
0.000426421
0.00113945
0.000475812
0.000993736
0.000509348
0.000868672
0.000522109
0.000757669
0.000510576
0.000665187
0.000476701
0.000596812
0.000425831
0.000558117
0.000363909
0.000553522
0.000295754
0.000586523
0.000223954
0.000658717
0.000151055
0.00076171
8.70787e-05
0.000885434
3.34551e-05
0.0010288
-1.93299e-05
0.00118401
-6.4919e-05
0.00134087
-0.000101461
0.00148918
-0.000128512
0.00162093
-0.000146632
0.0017268
-0.00015718
0.00180018
-0.000161774
0.00183672
-0.00016204
0.00183494
-0.00015947
0.00179655
-0.000155434
0.00172696
-0.000151598
0.00163567
-0.00015056
0.00153609
-0.000156389
0.00144452
-0.000174465
0.00137758
-0.000210297
0.00134837
-0.000267968
0.00136265
-0.000349209
0.00141744
-0.000453315
0.00150295
-0.000577412
0.00160639
-0.000716822
0.00171555
-0.00086561
0.00182078
-0.00101714
0.00191529
-0.00116436
0.00199431
-0.00129988
0.00205424
-0.00141617
0.00209207
-0.00150627
0.00210564
-0.00156494
0.00209409
-0.00159006
0.00205845
-0.0015837
0.00200191
-0.00155244
0.00192971
-0.00150634
0.00184845
-0.00145669
0.00176505
-0.00141314
-0.00138225
0.00168495
0.00017968
2.4232e-06
0.000560815
-6.20807e-05
0.00117658
-6.31503e-05
0.00213111
1.73943e-05
0.00346618
0.000102601
0.00517392
0.000125541
0.00718078
7.32854e-05
0.00930603
-1.75699e-05
0.0112824
-0.000136042
0.0128059
-0.000272645
0.0137138
-0.000405893
0.0140487
-0.000514617
0.0139763
-0.000593363
0.0136624
-0.000652367
0.013213
-0.000704836
0.0126789
-0.000758416
0.0120794
-0.000812702
0.0114206
-0.000858655
0.0107042
-0.000878278
0.00993053
-0.000849355
0.00910031
-0.000756219
0.00821665
-0.000598988
0.00728666
-0.00039432
0.00632545
-0.000168279
0.00535845
5.27089e-05
0.00441198
0.000254127
0.00350614
0.000427872
0.00267162
0.000565232
0.00192146
0.000664433
0.00126228
0.000727656
0.000694303
0.000759987
0.000214802
0.000767964
-0.000178471
0.000757833
-0.000486308
0.000734257
-0.000708447
0.000697951
-0.000847998
0.000648899
-0.000913639
0.000587749
-0.000918113
0.000515049
-0.000873422
0.00043201
-0.000788869
0.000341277
-0.000671375
0.000246414
-0.000527381
0.00015176
-0.000355764
5.23377e-05
-0.000165963
-3.87467e-05
4.23648e-05
-0.000121249
0.000267964
-0.000192144
0.000497275
-0.000248641
0.000720557
-0.000288202
0.00092845
-0.000309354
0.00111236
-0.000312426
0.00126538
-0.000299646
0.00138287
-0.000274676
0.00146317
-0.000242071
0.001508
-0.000206874
0.00152278
-0.000174242
0.00151635
-0.000149006
0.00150017
-0.000135419
0.00148669
-0.000137084
0.00148703
-0.000156722
0.00150894
-0.000196383
0.00155572
-0.000257069
0.0016263
-0.000338546
0.00171631
-0.000439225
0.00181927
-0.000556274
0.00192773
-0.000685871
0.00203434
-0.000823435
0.00213248
-0.000963742
0.00221627
-0.00110093
0.00228042
-0.00122851
0.00232014
-0.0013396
0.00233154
-0.00142757
0.00231232
-0.00148705
0.00226256
-0.00151518
0.00218522
-0.00151272
0.00208613
-0.00148461
0.00197335
-0.00143965
0.00185593
-0.00138891
0.00174239
-0.00134315
0.00163938
-0.00131014
-0.00129332
0.00155045
0.000445662
-0.000443239
0.00114654
-0.000762961
0.00189725
-0.000813857
0.0027396
-0.000824961
0.00367963
-0.000837429
0.00464518
-0.000840003
0.00553815
-0.000819689
0.0062788
-0.000758222
0.00680376
-0.000661003
0.0070676
-0.000536479
0.00706229
-0.00040058
0.0068168
-0.000269132
0.0063762
-0.000152766
0.00578046
-5.66202e-05
0.00505775
1.78673e-05
0.00422711
7.22326e-05
0.00330408
0.000110326
0.00230854
0.000136886
0.00127093
0.000159333
0.000239323
0.000182248
-0.00072471
0.000207814
-0.00155897
0.000235274
-0.00221441
0.000261122
-0.00266751
0.000284813
-0.00292335
0.000308556
-0.00300251
0.000333289
-0.00293397
0.000359329
-0.00275422
0.000385486
-0.00249919
0.000409401
-0.00219663
0.000425093
-0.00186797
0.000431326
-0.00153071
0.000430703
-0.00119434
0.000421469
-0.000862938
0.000402852
-0.000539621
0.000374633
-0.000227547
0.000336825
7.02763e-05
0.000289927
0.000350215
0.00023511
0.00060791
0.000174316
0.000839725
0.000109462
0.00104159
4.4546e-05
0.0012187
-2.53483e-05
0.00135902
-8.79825e-05
0.00146228
-0.000142002
0.0015267
-0.000185675
0.00155158
-0.000217024
0.00153831
-0.000235368
0.00149218
-0.000242068
0.00142306
-0.000240238
0.00134399
-0.000233352
0.00126793
-0.000223588
0.00120478
-0.000211522
0.00116016
-0.000197456
0.0011366
-0.000183308
0.00113517
-0.000172818
0.00115663
-0.00017046
0.00120127
-0.000180062
0.00126886
-0.000204674
0.00135826
-0.000246115
0.00146689
-0.000305014
0.00159069
-0.000380874
0.00172432
-0.000472171
0.00186157
-0.000576482
0.00199591
-0.000690612
0.00212075
-0.000810714
0.00222968
-0.000932355
0.0023165
-0.00105057
0.00237548
-0.00115992
0.00240172
-0.00125474
0.00239178
-0.00132966
0.00234453
-0.00138033
0.00226193
-0.00140445
0.00214942
-0.00140266
0.00201573
-0.00137903
0.00187192
-0.0013408
0.00172961
-0.00129734
0.00159891
-0.00125822
0.00148673
-0.00123097
0.00139606
-0.00121947
-0.0012236
0.00132635
-0.000678609
0.00023537
-0.00172851
0.00028694
-0.00277384
0.000231472
-0.00393084
0.000332036
-0.00529511
0.000526842
-0.00683118
0.000696074
-0.00843437
0.000783497
-0.00997532
0.000782733
-0.0113389
0.000702546
-0.0124293
0.000553974
-0.0131836
0.000353678
-0.0135777
0.000125005
-0.0136241
-0.000106371
-0.0133603
-0.000320425
-0.0128434
-0.000499083
-0.0121354
-0.000635766
-0.0112929
-0.000732098
-0.0103625
-0.000793595
-0.00937763
-0.000825498
-0.00836296
-0.00083242
-0.00733876
-0.000816384
-0.0063254
-0.00077808
-0.00534457
-0.000719717
-0.00441423
-0.00064552
-0.00354369
-0.000561986
-0.00273198
-0.000478422
-0.0019739
-0.000398758
-0.00126398
-0.000324427
-0.000598369
-0.000256212
2.19509e-05
-0.000195227
0.000595635
-0.000142359
0.00112479
-9.84536e-05
0.00161031
-6.40488e-05
0.00205217
-3.901e-05
0.00244948
-2.2672e-05
0.00280024
-1.39413e-05
0.0031016
-1.14286e-05
0.00335006
-1.33473e-05
0.00354082
-1.64448e-05
0.00367083
-2.05483e-05
0.00374065
-2.52769e-05
0.00374336
-2.80601e-05
0.00367993
-2.4556e-05
0.00355361
-1.56744e-05
0.00336915
-1.21725e-06
0.00313492
1.72071e-05
0.00286304
3.6506e-05
0.00256913
5.18415e-05
0.00227115
5.7747e-05
0.00198731
5.04908e-05
0.00173425
2.94704e-05
0.00152679
-4.06565e-06
0.00136928
-3.99454e-05
0.00126433
-7.83615e-05
0.00121294
-0.000121425
0.00121199
-0.000169506
0.00125553
-0.000223602
0.00133586
-0.000285014
0.00144435
-0.000354601
0.00157188
-0.000432546
0.00170931
-0.000518297
0.00184771
-0.000610575
0.00197867
-0.000707439
0.0020944
-0.000806344
0.0021879
-0.00090421
0.00225304
-0.000997501
0.00228482
-0.00108234
0.00227966
-0.00115476
0.00223596
-0.00121105
0.00215477
-0.00124846
0.00204034
-0.0012659
0.00190048
-0.00126458
0.00174604
-0.00124823
0.0015897
-0.00122268
0.00144384
-0.00119494
0.00131831
-0.00117182
0.00121874
-0.00115865
0.00114602
-0.00115825
0.00109725
-0.0011707
-0.00119398
0.00106763
2.64356e-06
0.000232727
-0.000266173
0.000555756
-0.000836031
0.00080133
-0.00156805
0.00106406
-0.00232889
0.00128768
-0.00301369
0.00138087
-0.0035415
0.00131131
-0.00386332
0.00110455
-0.00396769
0.000806918
-0.00387776
0.000464043
-0.00364033
0.000116252
-0.00331216
-0.000203168
-0.00294692
-0.00047161
-0.00259752
-0.000669831
-0.00229871
-0.000797887
-0.00205897
-0.000875505
-0.00187569
-0.000915381
-0.00173808
-0.000931209
-0.00162949
-0.000934083
-0.00153217
-0.000929742
-0.00143456
-0.000913994
-0.00133882
-0.000873817
-0.00126419
-0.000794349
-0.00123863
-0.000671077
-0.00128202
-0.000518605
-0.00139489
-0.000365545
-0.00155426
-0.000239385
-0.00172495
-0.000153739
-0.00187511
-0.000106057
-0.00198538
-8.49576e-05
-0.00204878
-7.89529e-05
-0.00206664
-8.05927e-05
-0.00204495
-8.57376e-05
-0.00199183
-9.21383e-05
-0.00191583
-9.8665e-05
-0.00182539
-0.000104378
-0.00172808
-0.000108739
-0.00162997
-0.000111459
-0.0015338
-0.000112618
-0.00144199
-0.000112358
-0.00135647
-0.000110796
-0.00127573
-0.000108795
-0.00119389
-0.0001064
-0.00110588
-0.000103686
-0.00100614
-0.000100952
-0.00088991
-9.90248e-05
-0.000754198
-9.92052e-05
-0.000599296
-0.00010306
-0.000428352
-0.000113197
-0.000248904
-0.000128957
-6.8715e-05
-0.000150719
0.00010574
-0.000178521
0.000277536
-0.000211741
0.000449107
-0.000249932
0.000620706
-0.000293024
0.000792289
-0.000341088
0.000962859
-0.000394172
0.00113007
-0.000452221
0.00129044
-0.000514972
0.00143974
-0.000581852
0.00157337
-0.000651926
0.00168668
-0.000723882
0.00177528
-0.000796041
0.00183532
-0.000866384
0.00186372
-0.000932611
0.00185847
-0.000992248
0.00181899
-0.00104287
0.00174665
-0.00108242
0.00164531
-0.00110971
0.00152166
-0.00112481
0.00138511
-0.00112935
0.00124681
-0.00112628
0.00111806
-0.00111949
0.00100842
-0.00111304
0.000924045
-0.00111057
0.000866955
-0.00111473
0.00083516
-0.00112685
0.000823814
-0.00114691
0.000826894
-0.00117378
-0.001206
0.000838909
0.00040855
-0.000175823
0.000982066
-1.77596e-05
0.00146505
0.00031834
0.00191715
0.000611956
0.0023913
0.00081354
0.00286465
0.000907528
0.00327993
0.000896026
0.00358487
0.000799606
0.00374305
0.000648737
0.00373285
0.000474244
0.00354814
0.000300963
0.00319911
0.000145864
0.00270721
2.0291e-05
0.00211612
-7.87436e-05
0.00147314
-0.000154904
0.00081575
-0.000218119
0.000177242
-0.000276873
-0.0004174
-0.000336567
-0.000952684
-0.000398798
-0.00142184
-0.000460582
-0.0018251
-0.000510736
-0.0021671
-0.000531814
-0.00245383
-0.000507621
-0.00269073
-0.000434185
-0.00288367
-0.000325663
-0.00303954
-0.000209668
-0.00316591
-0.000113021
-0.00326126
-5.83828e-05
-0.00332771
-3.96109e-05
-0.00336668
-4.59857e-05
-0.00337889
-6.67404e-05
-0.00336275
-9.67374e-05
-0.00332069
-0.000127795
-0.00325399
-0.000158845
-0.00316379
-0.000188859
-0.00305272
-0.000215446
-0.00292324
-0.000238224
-0.00277867
-0.000256034
-0.00262084
-0.000270445
-0.00245163
-0.000281564
-0.00227276
-0.000289669
-0.00208623
-0.000295324
-0.00189347
-0.000299158
-0.00169529
-0.000301867
-0.00149206
-0.000304184
-0.0012842
-0.000306883
-0.00107264
-0.000310772
-0.000859033
-0.000316664
-0.000646889
-0.000325341
-0.000438571
-0.000337276
-0.000236359
-0.000352931
-4.22302e-05
-0.00037265
0.000142625
-0.000396596
0.000317501
-0.000424809
0.000481702
-0.000457225
0.00063429
-0.000493677
0.000773996
-0.000533878
0.000899176
-0.0005774
0.00100787
-0.000623665
0.00109795
-0.00067193
0.0011673
-0.000721275
0.00121402
-0.000770603
0.00123663