/*--------------------------------*- C++ -*----------------------------------*\
| =========                 |                                                 |
| \\      /  F ield         | OpenFOAM: The Open Source CFD Toolbox           |
|  \\    /   O peration     | Version:  2012                                  |
|   \\  /    A nd           | Website:  www.openfoam.com                      |
|    \\/     M anipulation  |                                                 |
\*---------------------------------------------------------------------------*/
FoamFile
{
    version     2.0;
    format      ascii;
    class       volVectorField;
    location    "0.52";
    object      U;
}
// * * * * * * * * * * * * * * * * * * * * * * * * * * * * * * * * * * * * * //

dimensions      [0 1 -1 0 0 0 0];


internalField   nonuniform List<vector> 
42400
(
(9.60843 -10.2423 -5.07449e-17)
(19.5509 -21.1231 -7.75916e-17)
(5.99863 -18.6714 7.92079e-17)
(-24.696 -0.766888 0)
(-60.5626 18.4517 0)
(-87.3968 29.7932 5.37851e-19)
(-97.3508 27.8298 0)
(-91.6714 15.5655 -4.87335e-19)
(-79.4172 2.15865 0)
(-68.3307 -5.19196 -4.33222e-19)
(-59.8475 -6.19991 -3.99168e-19)
(-54.19 -3.40691 3.59617e-19)
(-54.1749 2.68905 8.75019e-17)
(-58.4481 10.544 -8.87034e-17)
(-62.3025 16.7153 2.84274e-19)
(-62.3884 19.7847 0)
(-58.7249 20.1313 0)
(-52.8707 18.9584 0)
(-46.1859 17.4149 0)
(-39.425 15.7582 0)
(-32.4099 13.4522 0)
(-24.2173 9.5042 4.43487e-19)
(-13.8202 3.0096 3.2062e-17)
(-1.35423 -5.73632 -6.83356e-18)
(10.5606 -14.3051 -2.55361e-17)
(17.4299 -18.9273 2.4129e-19)
(17.0534 -17.6139 2.04774e-19)
(12.1944 -12.4344 -3.62816e-19)
(7.35385 -7.45365 0)
(4.77936 -5.01749 0)
(4.29618 -4.95682 -1.26097e-17)
(4.9101 -6.12004 1.27419e-17)
(5.79149 -7.5392 -1.92892e-19)
(6.45076 -8.65872 1.0702e-17)
(6.66844 -9.21811 -1.06509e-17)
(6.40484 -9.15672 0)
(5.72258 -8.55752 0)
(4.74131 -7.58464 0)
(3.59395 -6.42767 0)
(2.41259 -5.25193 7.41385e-18)
(1.29467 -4.17618 -7.43984e-18)
(0.301159 -3.26841 6.5875e-18)
(-0.540008 -2.55334 -6.11143e-19)
(-1.22372 -2.02518 -1.18275e-17)
(-1.75548 -1.66195 5.62198e-18)
(-2.14144 -1.43857 -4.97728e-18)
(-2.38558 -1.33432 9.88525e-18)
(-2.49064 -1.33417 -4.69246e-18)
(-2.46016 -1.42746 -2.08828e-19)
(-2.29975 -1.6061 4.2748e-18)
(-2.01745 -1.86319 -8.35696e-18)
(-1.62297 -2.19173 -2.82758e-19)
(-1.12806 -2.5842 4.32645e-18)
(-0.545743 -3.03001 -3.98643e-19)
(0.113727 -3.51809 0)
(0.840665 -4.03691 0)
(1.61956 -4.57179 0)
(2.43225 -5.10293 3.65587e-19)
(3.25643 -5.60737 3.53044e-19)
(4.06478 -6.06042 0)
(4.82594 -6.43754 5.38252e-18)
(5.50705 -6.7176 -5.59912e-18)
(6.07825 -6.88649 -4.81326e-18)
(6.51807 -6.94029 4.72222e-18)
(6.81801 -6.88649 0)
(6.98444 -6.74238 0)
(7.03686 -6.53129 -3.78965e-18)
(7.00364 -6.27806 3.70435e-18)
(6.91649 -6.00538 4.05946e-19)
(6.8059 -5.73235 0)
(6.69793 -5.47414 0)
(6.61209 -5.24191 3.29798e-19)
(6.55987 -5.04247 3.06194e-19)
(6.54388 -4.87744 0)
(6.55817 -4.74296 2.61902e-19)
(6.59005 -4.63044 1.98221e-18)
(6.624 -4.52857 -1.92282e-18)
(6.64672 -4.4263 -4.05202e-19)
(6.64595 -4.32577 -1.50659e-18)
(6.60785 -4.25929 -1.24004e-18)
(4.68556 -1.89164 0)
(-6.49974 10.8614 -6.9312e-17)
(-41.3141 42.7865 7.09071e-17)
(-77.8388 77.4646 0)
(-101.429 99.0346 0)
(-103.789 103.156 -3.88345e-17)
(-79.5818 84.5912 3.9219e-17)
(-35.6971 48.9662 4.86487e-19)
(8.75826 12.7227 0)
(39.449 -10.9201 4.34603e-19)
(55.0445 -20.3963 4.01944e-19)
(56.5119 -18.6184 -8.01785e-18)
(44.8278 -7.02349 -3.61611e-20)
(28.523 9.77124 8.71346e-18)
(14.7213 24.565 4.72061e-18)
(5.93248 34.4587 -4.70228e-18)
(1.6389 40.3955 0)
(-0.156091 44.0738 2.96505e-19)
(-0.991268 46.8032 0)
(-1.50276 49.0932 0)
(-1.48517 50.694 0)
(-0.203381 50.7821 1.44674e-17)
(3.04003 48.5409 4.49735e-20)
(7.92387 43.9224 -1.60361e-17)
(12.7648 38.0725 0)
(15.5024 32.8727 -3.534e-19)
(15.4435 29.6681 -2.04375e-19)
(13.7862 28.3171 3.61083e-19)
(12.2086 27.6231 7.19448e-18)
(11.5259 26.4939 -7.27997e-18)
(11.676 24.4914 -1.88237e-19)
(12.2592 21.6779 -1.84183e-19)
(12.8493 18.3725 2.17013e-19)
(13.0852 15.0045 1.54448e-19)
(12.704 11.9751 1.86688e-18)
(11.6277 9.53132 -2.15418e-18)
(9.96525 7.73028 0)
(7.94885 6.48839 9.43748e-20)
(5.83643 5.66352 0)
(3.83423 5.10954 1.03747e-19)
(2.07318 4.7064 -3.48156e-19)
(0.617629 4.37107 4.1449e-19)
(-0.516887 4.05228 2.10617e-19)
(-1.34416 3.72098 -2.12216e-19)
(-1.89287 3.36241 1.64513e-19)
(-2.19772 2.97022 -2.12434e-19)
(-2.29462 2.54253 2.11499e-19)
(-2.21825 2.07916 1.83253e-18)
(-2.00017 1.58 -1.82582e-18)
(-1.66726 1.04383 0)
(-1.24033 0.468916 1.29851e-19)
(-0.733262 -0.143245 4.07409e-19)
(-0.150109 -0.786434 2.22904e-18)
(0.502784 -1.4605 -2.21058e-18)
(1.20351 -2.17561 -3.10175e-19)
(1.94271 -2.92075 5.14088e-18)
(2.71875 -3.67108 -5.70718e-18)
(3.51889 -4.40533 -3.65392e-19)
(4.32062 -5.09988 -3.52898e-19)
(5.09367 -5.72709 5.01963e-18)
(5.80151 -6.25795 -4.9399e-18)
(6.40595 -6.66676 3.08108e-19)
(6.87442 -6.93675 2.63234e-19)
(7.18819 -7.06508 0)
(7.34854 -7.06437 -3.42524e-18)
(7.37681 -6.95951 1.46463e-19)
(7.30928 -6.78177 4.0055e-18)
(7.18815 -6.56005 0)
(7.05276 -6.31649 -7.71912e-19)
(6.93348 -6.0662 3.41747e-19)
(6.84996 -5.81865 2.63598e-18)
(6.81139 -5.57981 -2.89743e-18)
(6.81774 -5.35338 -2.57574e-18)
(6.86136 -5.14101 2.45999e-18)
(6.92901 -4.94193 -4.95485e-19)
(7.00471 -4.75304 1.77644e-18)
(7.07343 -4.56903 -1.3298e-18)
(7.12474 -4.38375 4.05223e-19)
(7.14855 -4.20329 -1.67921e-18)
(7.13557 -4.06079 1.33149e-18)
(2.23477 -2.57152 -7.51168e-17)
(-9.40622 -4.13932 4.45467e-19)
(-31.6749 19.1183 2.91836e-19)
(-68.5932 41.1726 4.3073e-19)
(-87.5004 59.2601 0)
(-83.6418 60.4718 -1.71443e-16)
(-63.4247 48.9405 3.28888e-16)
(-38.054 31.1964 -1.56948e-16)
(-13.9463 11.4472 1.19939e-16)
(5.63034 -5.93949 -1.66908e-17)
(15.2767 -15.9452 -1.08022e-16)
(9.25595 -16.5742 -3.74295e-19)
(-4.03074 -11.1072 -3.29754e-19)
(-9.36151 -5.45167 5.78905e-17)
(-8.36186 -3.01456 -5.94004e-17)
(-7.36339 -1.39423 -8.42945e-20)
(-6.93049 1.76958 -4.413e-17)
(-6.9786 5.0895 1.89615e-18)
(-6.49607 7.8725 4.23188e-17)
(-5.18141 10.4362 5.63142e-19)
(-3.84659 12.8395 -5.49619e-19)
(-3.10781 14.9036 -5.33669e-19)
(-2.81797 16.5412 0)
(-2.69458 17.5709 3.4462e-19)
(-2.7085 17.9286 3.00052e-17)
(-2.98611 17.8296 -5.70499e-17)
(-3.53688 17.5911 2.75444e-17)
(-4.21238 17.3993 -2.22156e-17)
(-4.82873 17.2619 2.24192e-17)
(-5.27683 17.0806 1.8083e-17)
(-5.53334 16.7301 -3.27447e-17)
(-5.61003 16.1015 2.09658e-18)
(-5.51735 15.1245 1.33596e-17)
(-5.24733 13.7831 0)
(-4.81085 12.119 0)
(-4.2374 10.2437 1.37059e-19)
(-3.60316 8.31801 0)
(-3.00215 6.49141 7.97074e-20)
(-2.49823 4.87855 -2.53774e-18)
(-2.11365 3.53325 4.45267e-18)
(-1.83559 2.47741 -1.8435e-18)
(-1.63214 1.67327 0)
(-1.4643 1.09118 0)
(-1.29934 0.696501 2.23152e-19)
(-1.11279 0.454331 -1.7471e-19)
(-0.889084 0.329931 2.21079e-20)
(-0.622645 0.287436 0)
(-0.316984 0.289047 0)
(0.0184561 0.294729 1.46251e-18)
(0.373985 0.265226 -1.45461e-18)
(0.748225 0.170505 -1.29794e-19)
(1.14529 -0.01451 0)
(1.56804 -0.314146 -2.31463e-18)
(2.03567 -0.729596 2.11369e-18)
(2.57848 -1.23236 -4.29637e-18)
(3.19908 -1.81651 4.63227e-18)
(3.88188 -2.4791 -4.40665e-18)
(4.61043 -3.19479 9.35555e-18)
(5.3588 -3.92607 -9.24016e-18)
(6.089 -4.62996 6.11163e-20)
(6.75498 -5.26128 4.4114e-18)
(7.30914 -5.7793 4.12142e-18)
(7.71268 -6.15545 -4.31157e-18)
(7.94686 -6.3807 0)
(8.02156 -6.46681 3.01275e-18)
(7.97239 -6.4441 -1.35225e-19)
(7.8503 -6.35013 -3.98949e-18)
(7.7084 -6.2159 0)
(7.58801 -6.06128 6.89689e-19)
(7.51327 -5.89459 2.17853e-18)
(7.49193 -5.71678 -2.17473e-18)
(7.51955 -5.52644 0)
(7.58409 -5.32285 0)
(7.66984 -5.10707 -2.53399e-19)
(7.76028 -4.8816 2.33481e-19)
(7.84066 -4.6496 1.18797e-18)
(7.90024 -4.4139 -1.90955e-18)
(7.93398 -4.17737 0)
(7.93755 -3.95373 3.27514e-19)
(7.90378 -3.78078 1.08692e-18)
(-3.36786 5.07363 -5.34902e-18)
(0.731207 -1.09769 7.40275e-18)
(12.2643 -4.96359 -4.01665e-18)
(10.1925 0.108869 -5.82636e-18)
(12.1036 8.70152 5.32551e-18)
(22.2719 10.7287 0)
(32.2513 10.4083 -2.82891e-17)
(38.9267 10.1768 2.91958e-17)
(42.8656 9.48542 -3.83945e-17)
(43.6652 8.47883 3.92641e-17)
(41.5741 7.82232 -4.12895e-17)
(38.7072 7.4366 8.11816e-17)
(37.415 6.61018 -7.84061e-17)
(37.9268 5.28985 7.46276e-17)
(38.9221 4.27554 -7.08585e-17)
(39.298 4.17393 3.45629e-17)
(38.6524 5.09957 3.29015e-17)
(36.9975 6.83149 -6.41843e-17)
(34.6111 9.12404 3.24338e-17)
(31.7516 11.812 -5.46638e-19)
(28.6024 14.6624 2.84075e-19)
(25.4936 17.3374 2.97348e-17)
(22.8581 19.5573 -2.93584e-17)
(20.9161 21.2443 -4.7011e-19)
(19.5523 22.5786 0)
(18.5199 23.8691 -4.05064e-19)
(17.6643 25.3253 0)
(16.9273 26.9766 -1.91751e-17)
(16.2663 28.7428 2.00078e-18)
(15.6221 30.5049 1.70945e-17)
(14.9326 32.1439 1.40891e-17)
(14.1521 33.5573 -1.37881e-17)
(13.2639 34.6353 -3.10873e-19)
(12.3054 35.3162 4.55332e-20)
(11.3275 35.5593 9.32394e-18)
(10.3565 35.3188 -9.42694e-18)
(9.42216 34.5875 0)
(8.55568 33.4046 -6.7548e-18)
(7.77921 31.8467 6.62095e-18)
(7.11122 30.0021 -2.29845e-19)
(6.5731 27.9739 8.4867e-20)
(6.17278 25.8225 0)
(5.90141 23.6093 0)
(5.74498 21.3837 0)
(5.67676 19.1894 6.58029e-20)
(5.65259 17.067 -1.18332e-18)
(5.61717 15.0606 1.16079e-18)
(5.51606 13.2136 0)
(5.31303 11.5555 0)
(5.00841 10.0882 1.62384e-19)
(4.6422 8.77549 -1.46618e-19)
(4.28787 7.55542 7.06905e-19)
(4.03283 6.37057 -4.29346e-19)
(3.93855 5.17514 1.21493e-19)
(4.03848 3.95287 -1.25418e-18)
(4.34251 2.70469 1.62546e-18)
(4.83098 1.45174 -3.39607e-18)
(5.46029 0.225276 3.15175e-18)
(6.17444 -0.941067 0)
(6.90815 -2.01274 -2.13659e-19)
(7.59272 -2.95449 -3.61526e-18)
(8.16327 -3.73438 2.55361e-19)
(8.56974 -4.33122 7.00727e-18)
(8.78984 -4.74307 -6.30895e-18)
(8.83773 -4.99161 2.77717e-18)
(8.76224 -5.11782 2.85699e-18)
(8.6304 -5.16809 -2.10906e-18)
(8.50572 -5.17951 -3.01098e-19)
(8.43095 -5.17089 -2.4157e-18)
(8.42218 -5.14377 2.31772e-18)
(8.47345 -5.09006 -5.29464e-19)
(8.56584 -5.00041 -2.14131e-18)
(8.67602 -4.8694 1.8606e-18)
(8.78201 -4.69732 0)
(8.86626 -4.48948 -1.48234e-18)
(8.91707 -4.25443 4.60189e-19)
(8.9291 -4.00203 2.84138e-18)
(8.90307 -3.74247 -1.19649e-18)
(8.84073 -3.49357 1.02384e-18)
(8.7352 -3.29881 -1.00339e-18)
(-1.18125 3.41354 3.82628e-17)
(-0.514662 4.93188 0)
(8.91804 1.45905 0)
(18.3704 -2.41391 2.82869e-19)
(24.746 -3.15529 0)
(28.4159 -1.47338 0)
(28.7738 2.42275 0)
(26.3684 7.97016 -9.80272e-20)
(22.8916 14.3078 0)
(20.0222 20.2828 -4.23476e-20)
(19.2007 24.9731 5.32856e-17)
(21.0404 27.9138 -9.66588e-17)
(24.9053 29.2173 4.31978e-17)
(29.3328 29.4831 0)
(32.9294 29.4179 6.35224e-20)
(34.9051 29.3977 1.25942e-19)
(35.0493 29.4382 0)
(33.4609 29.4525 4.95034e-19)
(30.4448 29.4387 6.80089e-19)
(26.3039 29.3693 4.41401e-19)
(21.326 29.1356 -9.55603e-19)
(16.0175 28.6658 -2.29327e-19)
(11.4302 27.9185 0)
(8.81333 26.5979 -1.37294e-18)
(8.63932 24.2768 1.76586e-18)
(10.2238 21.1703 -3.17236e-18)
(12.245 18.1895 3.43754e-18)
(13.6113 16.0569 5.27619e-18)
(13.9307 14.921 -5.46102e-18)
(13.3302 14.6709 0)
(12.0926 15.174 -7.73941e-18)
(10.4337 16.2423 7.82865e-18)
(8.50405 17.6512 -6.00975e-20)
(6.46774 19.2305 -7.70685e-18)
(4.46466 20.8153 7.73505e-18)
(2.61838 22.2725 3.53045e-19)
(1.02843 23.4955 -2.77663e-19)
(-0.249567 24.3867 -4.15859e-18)
(-1.19219 24.8839 4.18415e-18)
(-1.80822 24.9643 2.03984e-18)
(-2.13497 24.6416 -9.07967e-19)
(-2.23561 23.9588 -1.58352e-18)
(-2.18487 22.9784 0)
(-2.05541 21.7713 1.04844e-19)
(-1.90762 20.4057 3.52217e-19)
(-1.78134 18.9408 -7.18068e-19)
(-1.6908 17.4245 8.30732e-19)
(-1.62405 15.8924 -4.3361e-19)
(-1.54702 14.3705 0)
(-1.41147 12.8762 2.922e-20)
(-1.1661 11.4182 -2.70787e-19)
(-0.768771 9.99811 2.88263e-19)
(-0.194479 8.61332 9.05479e-21)
(0.559442 7.259 -9.67816e-19)
(1.47285 5.93441 6.70823e-19)
(2.51304 4.64463 -1.32188e-18)
(3.63869 3.39895 -1.76078e-18)
(4.79926 2.20915 3.06475e-18)
(5.94114 1.09013 -3.17272e-18)
(7.00747 0.0619267 3.33972e-18)
(7.9396 -0.851727 0)
(8.6824 -1.62735 -2.06624e-19)
(9.19524 -2.24868 -2.93668e-18)
(9.4672 -2.71523 2.50415e-18)
(9.52925 -3.04803 6.59016e-19)
(9.45266 -3.28663 0)
(9.32887 -3.47585 2.27617e-18)
(9.23909 -3.64817 -1.9731e-18)
(9.23036 -3.81317 -2.82911e-19)
(9.30957 -3.95956 -2.27718e-19)
(9.4536 -4.06617 4.59878e-19)
(9.62579 -4.1135 3.21442e-20)
(9.78963 -4.09077 -1.70572e-18)
(9.91644 -3.99756 1.48255e-18)
(9.98815 -3.84218 -1.49802e-19)
(9.99714 -3.63867 0)
(9.94472 -3.40354 -1.33529e-18)
(9.83903 -3.15334 1.00975e-18)
(9.69046 -2.90801 0)
(9.49888 -2.71432 -7.76895e-19)
(6.61481 -4.05975 3.24362e-19)
(9.11902 -7.54809 3.57033e-17)
(11.9003 -5.39144 -3.34308e-17)
(13.9781 -7.13762 6.54213e-17)
(18.4723 -9.02446 -3.22614e-17)
(22.4755 -12.1977 -4.54575e-19)
(24.7624 -15.9346 -2.74499e-17)
(25.2769 -19.7764 2.82431e-17)
(24.2735 -23.2312 3.83461e-19)
(22.1107 -26.1164 4.05433e-19)
(19.0127 -28.5342 3.11822e-17)
(14.4705 -30.7428 3.46785e-17)
(7.52235 -32.8254 -6.77417e-17)
(-2.03974 -34.1109 6.92674e-17)
(-13.4581 -33.7181 -1.35521e-16)
(-25.8722 -31.7348 6.69427e-17)
(-38.4027 -29.0194 0)
(-50.0455 -26.1577 0)
(-59.7105 -23.2921 -2.86283e-17)
(-66.6882 -20.64 1.33304e-17)
(-70.388 -18.7907 1.54118e-17)
(-68.974 -18.2119 9.49624e-18)
(-60.566 -18.9785 -2.76153e-17)
(-47.8651 -20.9714 1.80993e-17)
(-36.9958 -23.0157 2.44783e-17)
(-30.5103 -23.1932 3.99599e-19)
(-26.6625 -21.3271 -2.61594e-17)
(-23.7132 -18.8345 1.90327e-19)
(-21.2441 -16.5591 -1.94754e-19)
(-19.2602 -14.4759 3.87546e-19)
(-17.7349 -12.4017 0)
(-16.611 -10.2419 1.99057e-17)
(-15.8316 -7.98892 -3.86184e-17)
(-15.3072 -5.67627 1.86589e-17)
(-14.9485 -3.35567 0)
(-14.6837 -1.08977 -1.34867e-17)
(-14.4508 1.07021 1.35111e-17)
(-14.1974 3.07957 0)
(-13.8853 4.89977 0)
(-13.4916 6.49588 -6.85015e-18)
(-13.0061 7.84327 7.02906e-18)
(-12.4299 8.93043 -3.14517e-20)
(-11.7736 9.75498 0)
(-11.0512 10.3253 2.9308e-18)
(-10.2742 10.6591 -7.13338e-19)
(-9.4489 10.7797 -2.44622e-18)
(-8.5748 10.7135 -8.34402e-20)
(-7.64538 10.4872 9.97189e-20)
(-6.65059 10.1261 0)
(-5.57982 9.6528 -9.84181e-19)
(-4.42493 9.08625 1.89985e-18)
(-3.18311 8.44163 -9.79579e-19)
(-1.8587 7.73111 -1.01217e-19)
(-0.464119 6.96532 -1.22691e-18)
(0.979883 6.15514 3.9919e-20)
(2.44465 5.31237 2.45419e-18)
(3.89642 4.45246 -9.43476e-19)
(5.29576 3.59361 0)
(6.59669 2.75427 0)
(7.74872 1.95534 1.48974e-19)
(8.7 1.21879 1.44296e-19)
(9.4041 0.564375 0)
(9.83269 0.00437472 2.20913e-18)
(9.99301 -0.462491 -2.17439e-18)
(9.94166 -0.85509 -2.42536e-18)
(9.78089 -1.2065 -1.60338e-19)
(9.62989 -1.55078 1.70686e-18)
(9.58283 -1.9058 -1.83162e-18)
(9.67847 -2.26409 1.78944e-18)
(9.89821 -2.59783 4.01877e-20)
(10.1876 -2.87295 1.30898e-18)
(10.4833 -3.06229 -1.28528e-18)
(10.7322 -3.15244 -1.10112e-18)
(10.8984 -3.14438 1.38173e-18)
(10.965 -3.05068 -8.99207e-19)
(10.9306 -2.89133 1.01826e-18)
(10.8063 -2.68936 -8.48403e-19)
(10.6106 -2.467 1.58584e-18)
(10.3645 -2.2457 -5.11134e-20)
(10.0796 -2.0715 -5.03137e-20)
(14.7044 -10.0054 -1.9057e-17)
(48.5772 -26.4392 -2.52781e-19)
(68.7692 -42.4108 3.07141e-17)
(65.9969 -36.7751 -6.16161e-17)
(46.8108 -25.4862 3.11392e-17)
(24.2852 -14.6467 -2.78179e-17)
(4.30136 -6.83428 2.60477e-18)
(-11.6716 -1.51387 2.68439e-17)
(-25.2782 2.24051 -2.03511e-17)
(-36.6734 4.62036 2.03552e-17)
(-44.4345 5.3856 -1.35455e-17)
(-47.8367 4.542 1.4018e-17)
(-47.6104 2.59317 -8.5199e-18)
(-45.0508 0.253369 8.33661e-18)
(-41.0215 -1.98779 -3.3215e-19)
(-35.8628 -4.00287 -3.05092e-19)
(-29.559 -5.96139 -1.09393e-17)
(-22.0507 -8.09239 1.11333e-17)
(-13.4666 -10.5448 3.69025e-19)
(-4.30684 -13.2467 1.49712e-19)
(4.45383 -15.8466 -1.19019e-17)
(11.4264 -17.8524 1.23453e-17)
(15.4367 -18.9775 0)
(16.5647 -19.3882 -1.05696e-19)
(16.1026 -19.523 0)
(15.2134 -19.6211 0)
(14.164 -19.5552 -9.23113e-20)
(12.8687 -19.1116 8.09729e-19)
(11.2641 -18.2293 -7.34142e-19)
(9.37734 -16.9948 5.99692e-19)
(7.30602 -15.5258 -9.9742e-19)
(5.16515 -13.9089 3.60735e-19)
(3.03558 -12.2093 -3.40264e-19)
(0.977309 -10.4838 0)
(-0.954745 -8.75396 -4.13682e-20)
(-2.71541 -7.01979 0)
(-4.27665 -5.29363 0)
(-5.61397 -3.59767 -2.47134e-20)
(-6.71372 -1.95816 0)
(-7.56959 -0.401728 0)
(-8.18162 1.04727 2.15226e-18)
(-8.55482 2.36838 -1.92842e-18)
(-8.69894 3.5466 0)
(-8.62679 4.57302 0)
(-8.35209 5.44407 0)
(-7.88842 6.16056 -2.05134e-20)
(-7.24902 6.72612 8.35453e-20)
(-6.44695 7.14629 7.96134e-19)
(-5.49553 7.42764 -8.61934e-19)
(-4.409 7.57698 7.93706e-19)
(-3.20295 7.60127 -8.6947e-19)
(-1.89638 7.50795 8.58648e-20)
(-0.511689 7.3042 3.56681e-20)
(0.926942 6.99853 0)
(2.38859 6.60266 0)
(3.83815 6.13061 -9.374e-19)
(5.2359 5.59785 -1.81049e-19)
(6.53629 5.02064 1.04001e-18)
(7.68903 4.41713 -1.03988e-18)
(8.64174 3.80672 9.73711e-19)
(9.34518 3.20809 1.77758e-18)
(9.76377 2.63656 -6.93623e-20)
(9.89247 2.10066 -3.42635e-18)
(9.77619 1.5983 1.69226e-18)
(9.51952 1.11513 8.08951e-20)
(9.26915 0.629358 2.23376e-19)
(9.16533 0.124377 1.47857e-18)
(9.28663 -0.397544 -2.87883e-18)
(9.62515 -0.911674 1.39982e-18)
(10.1061 -1.38002 1.87159e-19)
(10.6298 -1.7656 1.22263e-18)
(11.1063 -2.04296 -1.31844e-18)
(11.4719 -2.2021 0)
(11.6908 -2.24779 -1.35083e-19)
(11.7526 -2.19671 0)
(11.6676 -2.07347 7.31116e-19)
(11.4608 -1.90589 -5.91214e-20)
(11.1654 -1.72013 -6.30201e-19)
(10.8159 -1.53838 4.05523e-19)
(10.4397 -1.40075 6.06461e-20)
(13.965 -7.80298 -4.28998e-17)
(47.5835 -18.0082 6.45887e-17)
(67.9774 -33.5495 3.19803e-19)
(64.4644 -25.8177 5.76752e-17)
(39.7603 -10.5136 -5.90676e-17)
(14.8353 5.75044 5.05269e-17)
(1.01795 14.5341 -9.85662e-17)
(-3.32969 16.9847 4.78294e-17)
(-4.35337 17.0743 -4.18048e-17)
(-3.92989 16.0305 4.23558e-17)
(-1.37198 14.0731 0)
(3.11602 11.7688 1.51639e-19)
(8.19552 9.62508 -3.2873e-19)
(12.3292 7.92362 0)
(14.3939 6.8467 0)
(14.0778 6.42954 0)
(11.8578 6.48762 0)
(8.61726 6.65378 2.43123e-19)
(5.20651 6.50861 0)
(2.21749 5.72459 -1.49179e-17)
(0.0305511 4.1604 1.48898e-17)
(-1.07923 1.85186 2.54016e-17)
(-0.927624 -1.04048 -2.59214e-17)
(0.493912 -4.23858 -2.11205e-17)
(2.88237 -7.38649 2.17232e-17)
(5.64135 -10.0398 -1.60524e-17)
(8.11697 -11.8284 1.63591e-17)
(9.8613 -12.5888 -1.06631e-17)
(10.6864 -12.3681 2.6258e-18)
(10.63 -11.373 8.21255e-18)
(9.86662 -9.88713 0)
(8.61826 -8.18635 -1.24294e-19)
(7.09596 -6.47515 -1.36576e-19)
(5.46543 -4.86935 0)
(3.83004 -3.42414 4.11751e-20)
(2.25103 -2.15505 0)
(0.771555 -1.05095 0)
(-0.569792 -0.0801858 -1.22141e-18)
(-1.73747 0.794574 2.43876e-18)
(-2.70644 1.5974 -1.27321e-18)
(-3.46341 2.34201 -1.05977e-18)
(-4.00173 3.03903 1.11916e-18)
(-4.32023 3.69639 3.94858e-20)
(-4.42498 4.31743 0)
(-4.32631 4.90078 -6.29316e-19)
(-4.03651 5.44185 5.94192e-19)
(-3.56951 5.93416 0)
(-2.94075 6.3699 0)
(-2.16763 6.74 6.23203e-20)
(-1.27034 7.03409 -9.97559e-20)
(-0.267046 7.2453 1.52464e-19)
(0.820147 7.36889 -1.64451e-19)
(1.96428 7.39794 -3.60731e-19)
(3.13777 7.33088 7.24194e-19)
(4.30884 7.16927 -3.98005e-19)
(5.43792 6.9137 -1.25434e-19)
(6.48122 6.56982 0)
(7.3914 6.14889 4.03872e-20)
(8.1176 5.66453 -5.08422e-19)
(8.61043 5.1321 9.88e-19)
(8.833 4.56797 -5.34393e-19)
(8.77988 3.9873 0)
(8.50165 3.40165 -8.64985e-20)
(8.12144 2.81682 0)
(7.81813 2.23131 -8.0897e-20)
(7.76308 1.63995 -5.39517e-20)
(8.04405 1.04445 -1.11645e-19)
(8.63385 0.461524 -1.04385e-18)
(9.42137 -0.08005 9.0677e-19)
(10.2693 -0.549409 -1.09327e-19)
(11.058 -0.922192 -9.23994e-19)
(11.7019 -1.18438 1.12162e-18)
(12.1497 -1.33307 -7.61938e-19)
(12.3791 -1.37627 7.40938e-19)
(12.3937 -1.33196 -6.54668e-19)
(12.2194 -1.22573 5.19419e-19)
(11.8991 -1.08654 4.50242e-19)
(11.4839 -0.941144 -4.36474e-19)
(11.0229 -0.810384 1.12692e-19)
(10.5591 -0.72301 -1.00805e-19)
(23.0741 -12.313 1.53687e-17)
(53.9242 -25.4326 2.05333e-17)
(60.8241 -35.8001 -3.97559e-17)
(54.6069 -35.5387 3.32979e-17)
(37.0824 -34.3979 -1.49016e-17)
(7.74291 -27.3461 -2.32679e-19)
(-31.4365 -17.1187 1.95363e-18)
(-72.257 -7.33907 -2.87561e-18)
(-101.903 -2.27047 -6.74867e-19)
(-111.904 -3.72811 1.85744e-18)
(-105.65 -9.15867 1.61834e-19)
(-93.2257 -14.4109 -8.46464e-18)
(-82.1883 -16.8052 8.61287e-18)
(-74.5521 -16.01 -1.10386e-17)
(-69.0826 -13.0505 1.12461e-17)
(-64.0943 -9.08467 1.23677e-17)
(-58.7161 -4.7428 -1.25919e-17)
(-52.9106 -0.160114 -2.39805e-19)
(-46.9663 4.6877 0)
(-41.0404 9.69945 -1.00858e-17)
(-35.1019 14.5809 1.03637e-17)
(-28.9447 18.9186 -1.81631e-19)
(-22.2735 22.279 5.05096e-18)
(-14.8644 24.3001 -4.98326e-18)
(-6.77177 24.7636 -3.20019e-19)
(1.4483 23.8059 0)
(8.87039 21.8983 1.18368e-19)
(14.5441 19.6526 7.62499e-20)
(17.8729 17.5762 9.85643e-18)
(18.7904 15.9234 -1.00855e-17)
(17.6858 14.6997 -1.10486e-17)
(15.1998 13.7517 1.12103e-17)
(12.0252 12.8734 -6.87417e-21)
(8.75587 11.8964 9.03906e-18)
(5.80305 10.7517 -1.67431e-17)
(3.36568 9.47504 7.81173e-18)
(1.47527 8.18157 5.3461e-18)
(0.0676639 7.00291 -5.46058e-18)
(-0.953239 6.02462 1.66042e-20)
(-1.66638 5.28748 5.70671e-20)
(-2.12133 4.79872 -5.71397e-20)
(-2.34908 4.53637 1.79529e-18)
(-2.37315 4.462 -3.73421e-19)
(-2.2156 4.53622 -1.46368e-18)
(-1.89842 4.72344 1.07698e-18)
(-1.44243 4.98979 -1.02072e-18)
(-0.867073 5.30362 0)
(-0.193294 5.63711 -6.75699e-19)
(0.557647 5.96616 6.50162e-19)
(1.36483 6.26958 -4.06402e-19)
(2.20724 6.52066 1.05114e-19)
(3.06029 6.69512 8.99694e-20)
(3.90268 6.78095 8.28857e-20)
(4.70773 6.76669 7.39645e-20)
(5.44352 6.64251 6.99439e-20)
(6.07457 6.4081 3.64623e-20)
(6.56025 6.06844 0)
(6.85891 5.63405 -1.57326e-19)
(6.93721 5.12467 7.27957e-20)
(6.78655 4.57029 0)
(6.44904 4.006 -2.17136e-19)
(6.03954 3.45887 1.77233e-19)
(5.73304 2.93737 0)
(5.70352 2.43625 -3.09577e-20)
(6.0502 1.95093 0)
(6.76462 1.48486 -6.89756e-19)
(7.75154 1.04685 1.57665e-18)
(8.87643 0.646562 -7.61081e-19)
(10.0082 0.293315 1.12915e-19)
(11.0418 -0.00345065 1.09285e-19)
(11.902 -0.234375 -6.73292e-19)
(12.538 -0.391974 5.61665e-19)
(12.9195 -0.47344 -5.28415e-20)
(13.0379 -0.483316 -4.34052e-20)
(12.9088 -0.434865 9.84246e-20)
(12.5733 -0.349082 5.44508e-20)
(12.0916 -0.250824 2.77437e-19)
(11.5322 -0.162838 -3.20317e-20)
(10.9571 -0.101539 -2.23203e-19)
(10.4187 -0.080333 -2.36917e-20)
(-2.2933 -0.768346 0)
(-12.465 -1.34396 1.26084e-19)
(-38.273 6.59341 1.5095e-19)
(-75.2724 15.0851 4.92976e-17)
(-111.558 25.144 -9.70046e-17)
(-142.59 33.4649 9.08247e-17)
(-162.609 38.2888 -4.4038e-17)
(-164.804 37.4283 0)
(-142.469 28.5116 -2.45991e-19)
(-95.7887 11.5162 2.68764e-17)
(-38.0246 -9.14651 -2.76275e-17)
(12.4083 -27.1509 -2.48348e-17)
(45.7648 -38.6731 5.07015e-17)
(63.6376 -43.8321 2.71191e-19)
(72.0984 -44.7633 6.67784e-20)
(76.0627 -43.4805 -2.68548e-17)
(77.9949 -41.1075 -1.51283e-19)
(78.6588 -38.0226 2.59807e-17)
(78.0887 -34.2523 -2.62004e-17)
(76.2822 -29.7975 -1.04445e-19)
(73.3757 -24.8801 -1.73295e-19)
(69.5626 -19.7598 -1.4267e-19)
(65.0304 -14.7259 1.48231e-17)
(59.8071 -10.0137 -3.63093e-18)
(53.8346 -5.75885 -1.16307e-17)
(47.0968 -2.0548 -1.44591e-19)
(39.7128 1.02684 4.35103e-18)
(31.9691 3.43044 -7.27483e-18)
(24.2945 5.12609 4.38846e-18)
(17.1138 6.20758 -1.51934e-18)
(10.7352 6.86123 0)
(5.28256 7.29082 -8.58769e-19)
(0.728588 7.67317 2.50417e-18)
(-3.01158 8.07058 -1.55108e-18)
(-5.96311 8.40557 1.26253e-18)
(-8.04951 8.54016 -1.38076e-18)
(-9.19778 8.36658 8.24596e-20)
(-9.4557 7.86972 0)
(-9.00252 7.14269 9.27351e-20)
(-8.07912 6.32611 5.91634e-19)
(-6.90446 5.54003 -6.28739e-19)
(-5.6294 4.86413 -1.29059e-20)
(-4.33707 4.34555 8.67508e-21)
(-3.06879 4.00679 0)
(-1.85008 3.838 0)
(-0.704777 3.80692 -8.50024e-19)
(0.350654 3.89061 8.64405e-19)
(1.30803 4.07114 4.50057e-20)
(2.15813 4.3155 6.39765e-19)
(2.89267 4.58301 -1.2112e-18)
(3.50916 4.83658 5.33433e-19)
(4.00586 5.04359 0)
(4.38015 5.17544 -3.34344e-19)
(4.62905 5.21381 3.15267e-19)
(4.74758 5.15313 0)
(4.73297 4.99912 -1.49417e-19)
(4.59375 4.76607 1.43188e-19)
(4.36319 4.47235 -5.099e-20)
(4.11054 4.13563 3.87653e-20)
(3.93656 3.772 0)
(3.94724 3.39926 1.45781e-20)
(4.21909 3.03837 2.0869e-20)
(4.77865 2.70784 -1.8616e-19)
(5.60403 2.41567 -1.16295e-20)
(6.63751 2.15733 2.20828e-19)
(7.8006 1.92105 0)
(9.00903 1.69547 4.1364e-20)
(10.1847 1.47502 0)
(11.2603 1.26153 0)
(12.1784 1.06279 -4.79424e-19)
(12.8883 0.889375 4.67397e-19)
(13.3485 0.75112 3.10305e-19)
(13.5327 0.654049 -1.18448e-20)
(13.4385 0.598042 -2.12149e-19)
(13.0932 0.575642 -1.7595e-19)
(12.554 0.572687 1.36999e-19)
(11.8987 0.571454 -2.19804e-20)
(11.2102 0.555989 -4.36464e-20)
(10.5576 0.515883 7.95839e-20)
(9.99135 0.452053 -3.52629e-21)
(-1.6859 1.09969 2.00321e-17)
(1.22626 2.33569 -1.4897e-17)
(1.57106 3.57005 -1.43064e-17)
(-5.27005 10.8472 1.46076e-17)
(-14.3643 20.2374 -1.32484e-19)
(-18.13 29.8994 -1.16095e-19)
(-15.1665 38.7997 0)
(-6.8593 46.5484 1.90393e-17)
(5.50546 52.6557 -1.95675e-17)
(20.2128 56.4025 0)
(34.3086 57.5849 -2.09707e-17)
(45.265 56.4969 4.08934e-17)
(52.6335 53.7881 -2.77874e-18)
(57.5555 50.1534 -3.20102e-17)
(61.3444 46.057 1.47109e-17)
(64.7707 41.6848 -1.28321e-19)
(68.0106 37.1073 2.65189e-19)
(70.6926 32.4824 0)
(71.8913 28.1858 2.04838e-18)
(70.3575 24.7381 -2.26857e-18)
(65.1773 22.4401 2.35735e-19)
(56.3707 21.2828 -1.19865e-18)
(44.9965 20.8991 1.60428e-18)
(32.5415 20.7964 -1.82149e-18)
(20.3636 20.5768 1.90308e-18)
(9.43334 19.9818 1.47799e-19)
(0.343592 18.885 -9.97548e-19)
(-6.64175 17.3033 5.33598e-19)
(-11.5157 15.3438 3.78768e-19)
(-14.5201 13.1298 -4.57806e-19)
(-16.0438 10.7941 3.82593e-19)
(-16.51 8.49448 8.87971e-19)
(-16.2965 6.36557 -9.61218e-19)
(-15.6715 4.49897 0)
(-14.779 2.94091 5.61666e-20)
(-13.6597 1.70052 5.08627e-20)
(-12.3195 0.748863 0)
(-10.7822 0.0353385 2.03783e-18)
(-9.09815 -0.484368 -2.076e-18)
(-7.33373 -0.839192 -2.23277e-20)
(-5.55428 -1.04782 0)
(-3.81472 -1.12048 1.29378e-20)
(-2.15784 -1.05709 1.41916e-18)
(-0.617909 -0.863478 -1.36398e-18)
(0.774662 -0.546855 0)
(1.99287 -0.105533 -5.63432e-19)
(3.00586 0.443073 5.77406e-19)
(3.7871 1.06073 0)
(4.32703 1.71035 0)
(4.6336 2.35501 1.91102e-20)
(4.73058 2.95636 1.88837e-20)
(4.65481 3.47905 0)
(4.45081 3.89545 -1.61736e-19)
(4.16706 4.1894 1.76423e-19)
(3.85362 4.35866 1.96433e-19)
(3.56118 4.41511 -1.50321e-20)
(3.34069 4.38199 -3.79813e-19)
(3.242 4.28868 3.5394e-19)
(3.31007 4.16393 -1.20794e-20)
(3.57874 4.02958 -1.13154e-19)
(4.06457 3.89737 1.28172e-21)
(4.76312 3.76969 0)
(5.64942 3.64237 0)
(6.68228 3.50818 4.92327e-20)
(7.81014 3.35977 -4.10124e-20)
(8.97649 3.19212 0)
(10.1235 3.00403 -2.6428e-21)
(11.1936 2.79831 0)
(12.1289 2.58088 8.1793e-20)
(12.8732 2.35933 -7.98179e-20)
(13.3764 2.14156 -1.07524e-20)
(13.6023 1.93482 4.99035e-20)
(13.5378 1.74468 -2.32449e-20)
(13.2003 1.57406 -2.06428e-20)
(12.6394 1.42205 0)
(11.9329 1.28362 0)
(11.1727 1.15101 0)
(10.4456 1.01693 1.39485e-19)
(9.8142 0.877389 9.21956e-21)
(9.31088 0.740785 -2.27229e-19)
(12.5917 -2.89778 3.075e-17)
(24.3153 -2.85932 4.3031e-17)
(24.8526 -0.584866 -4.40319e-17)
(25.5448 4.42385 3.85795e-17)
(28.6859 7.70369 -3.93006e-17)
(33.3695 11.1276 1.25285e-19)
(37.9665 14.3417 1.19446e-19)
(40.807 17.4493 0)
(41.0738 20.5329 1.77616e-19)
(38.9018 23.2224 0)
(34.9868 25.0901 3.77806e-20)
(30.1595 25.9067 -1.50562e-17)
(25.0822 25.6585 1.53886e-17)
(20.2145 24.4183 1.04165e-17)
(15.8266 22.2919 -1.05216e-17)
(11.9926 19.412 7.49003e-18)
(8.58269 15.9371 -8.05439e-18)
(5.33539 12.0569 0)
(1.97521 8.01276 0)
(-1.61489 4.01472 0)
(-5.32985 0.323061 -8.00699e-18)
(-8.91048 -2.8552 1.65993e-17)
(-12.0948 -5.3359 -3.07121e-20)
(-14.7546 -7.00004 -1.73846e-17)
(-16.8961 -7.82721 9.05001e-18)
(-18.5823 -7.89829 0)
(-19.8631 -7.34429 2.79755e-19)
(-20.7558 -6.33009 0)
(-21.2548 -5.02814 -5.3872e-18)
(-21.3534 -3.59638 5.26278e-18)
(-21.0564 -2.15393 -7.03897e-20)
(-20.3841 -0.782094 0)
(-19.3674 0.468743 3.02145e-18)
(-18.0415 1.57891 -5.7056e-18)
(-16.4358 2.54218 2.73165e-18)
(-14.5705 3.35457 -2.23955e-18)
(-12.4692 4.01212 4.35779e-18)
(-10.1777 4.51088 -2.11619e-18)
(-7.75353 4.85608 0)
(-5.2694 5.05163 0)
(-2.79506 5.11662 0)
(-0.412415 5.07513 1.38572e-18)
(1.80024 4.94623 -3.83068e-18)
(3.77215 4.73305 2.3815e-18)
(5.44111 4.45014 0)
(6.75115 4.11841 -1.20341e-18)
(7.65459 3.75886 1.16942e-18)
(8.1214 3.40051 5.31705e-19)
(8.15638 3.07834 -2.21647e-19)
(7.81119 2.82706 -1.8315e-19)
(7.1781 2.67179 -1.38316e-19)
(6.36924 2.62078 2.89472e-20)
(5.49691 2.66323 0)
(4.66656 2.77356 0)
(3.96914 2.92222 2.65336e-19)
(3.47412 3.08491 -3.20187e-19)
(3.22592 3.24583 0)
(3.24375 3.39636 0)
(3.52597 3.53225 -3.34552e-20)
(4.05456 3.65072 -2.83716e-20)
(4.79866 3.74839 0)
(5.71724 3.82056 0)
(6.76183 3.86188 4.88758e-20)
(7.87945 3.86749 4.41193e-20)
(9.01529 3.83381 -1.78176e-19)
(10.1144 3.75881 3.18423e-19)
(11.1228 3.64196 -7.05606e-21)
(11.9877 3.48422 -2.66811e-19)
(12.6599 3.28811 2.893e-19)
(13.0967 3.05813 -2.62238e-19)
(13.2689 2.80115 3.01245e-20)
(13.1667 2.52644 1.3535e-19)
(12.8069 2.245 -2.91667e-19)
(12.235 1.96822 -3.76316e-20)
(11.5228 1.7057 5.72429e-19)
(10.758 1.46354 -3.25822e-19)
(10.0281 1.24375 0)
(9.4014 1.04562 -6.50125e-20)
(8.91316 0.868003 0)
(8.56521 0.716207 2.37447e-19)
(5.22878 -3.844 0)
(10.8835 -11.1708 -1.03022e-19)
(12.6205 -14.9804 1.03725e-19)
(9.80947 -21.4022 6.9628e-17)
(5.78101 -26.222 -1.38275e-16)
(-0.166836 -32.0023 6.85537e-17)
(-7.52315 -38.2136 -1.18842e-19)
(-15.4822 -44.1588 0)
(-23.026 -49.4853 0)
(-29.087 -53.841 0)
(-32.9454 -57.0481 -3.75873e-20)
(-34.3572 -59.0115 6.14651e-20)
(-33.5437 -59.7221 0)
(-31.0693 -59.2533 -3.22464e-20)
(-27.5941 -57.7194 -1.39321e-19)
(-23.7439 -55.2669 1.13682e-17)
(-19.9998 -52.0798 -1.13039e-17)
(-16.6295 -48.3321 -2.72183e-20)
(-13.7272 -44.1498 0)
(-11.2916 -39.7006 4.33779e-20)
(-9.29109 -35.0952 -2.04502e-19)
(-7.67737 -30.4517 1.71576e-17)
(-6.39189 -25.8753 -1.40672e-18)
(-5.36251 -21.4696 -1.60045e-17)
(-4.53215 -17.3209 -3.45444e-19)
(-3.85761 -13.4649 4.23361e-20)
(-3.31112 -9.88495 -1.00213e-17)
(-2.85627 -6.55346 9.70609e-18)
(-2.44511 -3.45609 7.27509e-20)
(-2.02877 -0.600552 1.73408e-19)
(-1.57497 1.99705 1.44807e-19)
(-1.05226 4.33241 -3.69993e-18)
(-0.435243 6.4077 3.732e-18)
(0.281741 8.22742 1.29988e-19)
(1.09056 9.79582 -7.21703e-20)
(1.9709 11.1164 3.62113e-20)
(2.89192 12.1945 -3.22998e-20)
(3.80132 13.0324 0)
(4.64063 13.6334 5.11527e-20)