/*--------------------------------*- C++ -*----------------------------------*\
| =========                 |                                                 |
| \\      /  F ield         | OpenFOAM: The Open Source CFD Toolbox           |
|  \\    /   O peration     | Version:  2012                                  |
|   \\  /    A nd           | Website:  www.openfoam.com                      |
|    \\/     M anipulation  |                                                 |
\*---------------------------------------------------------------------------*/
FoamFile
{
    version     2.0;
    format      ascii;
    class       volScalarField;
    location    "0.58";
    object      p;
}
// * * * * * * * * * * * * * * * * * * * * * * * * * * * * * * * * * * * * * //

dimensions      [0 2 -2 0 0 0 0];


internalField   nonuniform List<scalar> 
42400
(
10450.2
10244.1
10009.5
9702.16
9248.87
8647.05
7816.71
6684.92
5409.25
4379.69
3783.5
3427.38
3129.31
2898.14
2750.42
2653.15
2577.87
2507.08
2427.07
2325.9
2195.82
2035.73
1851.89
1656.24
1462.63
1282.35
1120.85
978.655
854.279
745.795
651.444
569.112
496.67
432.388
375.065
324.009
278.608
238.363
202.906
171.879
144.808
121.242
100.787
83.0847
67.8037
54.6415
43.3221
33.5966
25.2441
18.0721
11.9156
6.63586
2.11826
-1.73007
-4.98306
-7.69859
-9.92145
-11.6863
-13.0202
-13.9456
-14.4829
-14.6524
-14.4767
-13.9824
-13.2007
-12.1685
-10.9278
-9.52447
-8.00642
-6.42127
-4.81337
-3.22102
-1.67405
-0.192079
1.21625
2.55345
3.83387
5.08643
6.34885
7.63917
-200.449
166.191
607.432
937.554
1148.75
1212.18
1175.1
1103.42
1069.37
1104.7
1173.64
1217.4
1218.79
1203.94
1200.4
1218.68
1257.77
1310.67
1367.54
1417.2
1449.12
1455.88
1434.7
1387.26
1318.7
1235.41
1143.41
1046.68
947.43
847.411
748.211
651.938
560.983
477.48
402.703
336.956
279.823
230.588
188.496
152.815
122.825
97.8208
77.1121
60.0487
46.0301
34.5187
25.0525
17.2412
10.7635
5.35899
0.821242
-3.01024
-6.25666
-9.00622
-11.3198
-13.2365
-14.7781
-15.954
-16.7654
-17.2094
-17.2831
-16.987
-16.329
-15.3265
-14.0087
-12.4167
-10.6031
-8.62902
-6.56069
-4.46506
-2.40371
-0.428212
1.42401
3.13218
4.69258
6.1166
7.42719
8.65375
9.81835
10.904
-5194.73
-5003.83
-4734.36
-4401.2
-4040.61
-3705.53
-3407.73
-3147.3
-2919.38
-2715.14
-2528.09
-2356.51
-2198.61
-2048.72
-1897.58
-1736.35
-1559.54
-1366.13
-1159.62
-946.999
-737.707
-541.739
-367.347
-219.334
-99.0088
-5.34894
64.2739
112.284
140.648
151.65
148.548
135.192
115.562
93.7859
73.0598
55.6247
42.1299
32.0976
24.5705
18.5134
13.2449
8.23487
3.16321
-1.8038
-6.44999
-10.6333
-14.0066
-16.5014
-18.2414
-19.4125
-20.2067
-20.7857
-21.2634
-21.7035
-22.126
-22.5161
-22.8348
-23.0273
-23.0318
-22.7863
-22.236
-21.3394
-20.073
-18.4356
-16.4496
-14.1602
-11.6354
-8.95633
-6.21326
-3.49674
-0.88916
1.54275
3.75365
5.72262
7.45301
8.9687
10.3074
11.5118
12.6198
13.6379
2877.6
2496.51
2023.3
1488.74
845.845
197.702
-407.172
-942.606
-1406.26
-1808.72
-2160.51
-2470.75
-2747.15
-2995.34
-3217.18
-3409.26
-3564.52
-3675.21
-3734.88
-3739.16
-3686.1
-3576.18
-3412.17
-3199.28
-2944.97
-2658.03
-2348.62
-2028.38
-1710.17
-1406.73
-1130.11
-890.144
-692.897
-539.358
-425.508
-345.012
-290.719
-255.74
-233.919
-219.859
-209.246
-198.917
-186.72
-171.555
-153.593
-134.123
-114.665
-96.4509
-80.3556
-66.8709
-56.1107
-47.8949
-41.8648
-37.5902
-34.6499
-32.6425
-31.2448
-30.1796
-29.2199
-28.1854
-26.9389
-25.3846
-23.4676
-21.1726
-18.5227
-15.5744
-12.4112
-9.13409
-5.85032
-2.66283
0.340008
3.09206
5.55415
7.71525
9.58993
11.2124
12.6282
13.886
15.0331
16.1014
-7411.78
-6843.99
-6080.96
-5243.34
-4326.83
-3454.96
-2664.78
-1974.58
-1391.09
-912.768
-533.37
-241.543
-21.2575
143.951
267.514
359.002
423.399
461.026
468.481
441.253
378.425
286.558
180.079
73.7113
-24.8796
-115.796
-201.137
-281.493
-354.824
-418.206
-468.975
-505.071
-524.706
-526.816
-511.722
-481.52
-439.925
-391.581
-341.112
-292.273
-247.533
-207.971
-173.791
-144.995
-120.872
-100.359
-83.1351
-69.1125
-57.8311
-49.1163
-42.7079
-38.2205
-35.2237
-33.2979
-32.0745
-31.2611
-30.624
-29.9857
-29.2065
-28.1767
-26.8158
-25.0731
-22.9304
-20.4033
-17.5416
-14.4241
-11.1504
-7.82903
-4.56436
-1.44539
1.4627
4.12286
6.52612
8.68692
10.6345
12.4025
14.0196
15.5069
16.8805
18.1748
10862.7
10804
10672
10387.4
9951.79
9428.73
8868.64
8299.04
7726.74
7148.48
6562.46
5971.02
5379.3
4795.71
4229.72
3689
3179.11
2702.15
2256.83
1841.12
1454.9
1102.4
792.493
535.523
339.489
205.107
124.657
85.3263
71.7303
70.7995
74.0388
77.6183
80.2574
81.6306
81.1521
78.5247
73.6769
66.3147
56.5404
44.5721
30.9258
16.4802
2.38257
-10.1342
-20.026
-26.6728
-29.9692
-30.3512
-28.9448
-26.6102
-24.0976
-21.9677
-20.5094
-19.7657
-19.561
-19.9519
-20.4747
-20.9143
-21.1244
-20.968
-20.3527
-19.2378
-17.6305
-15.5813
-13.1765
-10.5266
-7.75124
-4.96317
-2.25454
0.31252
2.71004
4.94294
7.04223
9.05238
11.0146
12.9505
14.8524
16.6886
18.4171
20.0339
-3209.85
-3258.49
-3319.41
-3370.85
-3394.16
-3370.29
-3291.55
-3163.78
-3001.63
-2819.31
-2627.93
-2433.37
-2237.52
-2038.35
-1829.13
-1597.84
-1330.28
-1018.69
-670.222
-304.564
49.6115
363.903
616.881
796.757
899.748
931.575
907.51
847.121
768.342
682.994
597.474
515.8
440.959
374.301
316.379
266.773
224.28
187.608
155.587
127.288
102.062
79.5916
59.8093
42.6255
28.0353
15.9079
6.07754
-1.62577
-7.4519
-11.7107
-14.7471
-16.9017
-18.4806
-19.7381
-20.5737
-20.9803
-21.1775
-21.1076
-20.6775
-19.8324
-18.5456
-16.8219
-14.702
-12.2619
-9.60406
-6.84373
-4.09197
-1.44028
1.05019
3.35372
5.48
7.46921
9.38154
11.2808
13.2145
15.1961
17.1983
19.1631
21.0259
22.7394
-9965.27
-9433.96
-8723.39
-7943.98
-7095.94
-6269.88
-5480.18
-4742.03
-4075.21
-3499.11
-3025.9
-2657.31
-2390.08
-2220.04
-2134.38
-2100.56
-2073.51
-2016.97
-1916.29
-1777.12
-1611.29
-1430.64
-1244.97
-1064.27
-900.215
-761.872
-650.063
-557.757
-476.858
-403.429
-337.318
-279.538
-230.487
-189.528
-155.609
-127.611
-104.373
-85.0766
-69.2098
-56.3478
-46.0539
-38.0708
-32.2024
-28.0282
-25.2184
-23.4003
-22.2728
-21.6503
-21.3862
-21.3658
-21.4925
-21.725
-22.0628
-22.3071
-22.6049
-22.6466
-22.3966
-21.8163
-20.8406
-19.4182
-17.5224
-15.1586
-12.3733
-9.2571
-5.93675
-2.55649
0.746232
3.86188
6.72101
9.29715
11.6027
13.6803
15.5907
17.3976
19.151
20.8744
22.5613
24.183
25.7046
27.0888
13584.8
13362.7
13090.4
12683.8
12034.5
11195.7
10182.1
9010.83
7694.73
6246.8
4727.42
3269.36
2016.33
1019.42
229.896
-406.275
-897.599
-1240.12
-1447.85
-1547.96
-1569.52
-1536.92
-1468.85
-1379.47
-1278.81
-1173.49
-1068.08
-964.864
-864.72
-768.094
-675.446
-587.588
-505.948
-430.754
-362.856
-302.685
-250.356
-205.706
-168.275
-137.487
-112.694
-93.0941
-77.8327
-66.2454
-57.7183
-51.5402
-47.1855
-44.1763
-41.9644
-40.2537
-38.8264
-37.423
-35.8998
-34.3358
-32.7294
-31.026
-29.1726
-27.11
-24.7572
-22.0241
-18.8352
-15.1579
-11.0265
-6.55293
-1.91359
2.68559
7.05215
11.0416
14.5721
17.6214
20.2128
22.3997
24.2509
25.8384
27.2278
28.4706
29.6019
30.6421
31.5999
32.4819
-7910.36
-7607.84
-7205.19
-6730
-6200.25
-5668.54
-5150.12
-4647.78
-4159.31
-3685.38
-3232.53
-2812.62
-2441.24
-2132.15
-1887.48
-1693.92
-1530.71
-1379.57
-1229.48
-1076.28
-921.835
-771.22
-630.467
-504.426
-395.886
-306.285
-235.278
-181.312
-142.044
-114.818
-97.0598
-86.3837
-80.8108
-78.7513
-78.9631
-80.4711
-82.5035
-84.4384
-85.789
-86.214
-85.5016
-83.5571
-80.4857
-76.4884
-71.8753
-66.9457
-61.8694
-56.8124
-52.0351
-47.569
-43.479
-39.6018
-35.964
-32.5881
-29.4475
-26.4765
-23.5879
-20.6764
-17.616
-14.2729
-10.5335
-6.34119
-1.72756
3.17568
8.15748
12.9766
17.4196
21.3427
24.6841
27.4505
29.693
31.4847
32.9065
34.0378
34.951
35.7082
36.3588
36.9389
37.4716
37.9832
-3425.56
-3385.74
-3368.54
-3367.36
-3354.17
-3275.01
-3098.8
-2834.49
-2515.4
-2171.15
-1812.39
-1435.36
-1037.76
-632.119
-246.461
87.6499
350.39
541.95
672.604
751.504
786.21
786.153
761.898
720.896
666.584
601.323
528.717
453.235
379.067
309.438
246.469
191.3
144.288
105.201
73.4097
48.0538
28.1693
12.7865
1.00705
-7.92506
-14.5953
-19.4365
-22.7721
-24.8599
-25.8727
-26.0804
-25.689
-24.8686
-23.7477
-22.4122
-20.791
-19.0713
-17.1956
-15.1131
-12.8066
-10.2763
-7.52754
-4.54981
-1.31322
2.22349
6.09109
10.2779
14.7006
19.1966
23.5492
27.542
31.0148
33.8941
36.188
37.9598
39.2978
40.2937
41.0309
41.5802
41.9993
42.333
42.6152
42.869
43.1097
43.3601
13460.2
13342.6
13159.5
12827.1
12314.7
11681.4
10986.1
10289.7
9642.5
9074.23
8575.9
8108.59
7614.82
7044.79
6374.03
5608.71
4777.87
3919.29
3073.66
2291.55
1636.08
1151.69
826.449
606.889
445.23
319.012
219.609
141.879
81.3685
34.4746
-1.49653
-28.5658
-48.2737
-61.8347
-70.2432
-74.349
-74.9124
-72.6467
-68.2405
-62.3472
-55.5503
-48.3356
-41.0853
-34.0952
-27.5784
-21.6728
-16.4473
-11.909
-8.00399
-4.64492
-1.72055
0.911951
3.38577
5.82524
8.34096
11.0112
13.8798
16.9622
20.2516
23.7249
27.3433
31.0419
34.714
38.2022
41.3183
43.8959
45.8486
47.1947
48.0349
48.5038
48.7281
48.8057
48.8037
48.7643
48.7135
48.6664
48.6315
48.613
48.613
48.6445
-5635.99
-5692.89
-5764.26
-5768.06
-5732.13
-5597.95
-5365.38
-5038.5
-4617.6
-4106.63
-3518.54
-2888.52
-2262.07
-1688.49
-1208.78
-841.398
-582.217
-419.247
-336.646
-310.151
-309.613
-311.804
-309.43
-305.621
-303.005
-301.032
-297.427
-290.847
-280.912
-268.033
-253.042
-236.828
-220.063
-203.109
-186.107
-169.079
-152.023
-134.974
-118.05
-101.446
-85.4223
-70.2504
-56.1696
-43.3471
-31.8643
-21.7248
-12.8682
-5.20084
1.39575
7.05495
11.9243
16.1587
19.9107
23.3243
26.5257
29.6134
32.6506
35.6625
38.6383
41.5394
44.3099
46.8871
49.2078
51.214
52.8591
54.1174
54.9932
55.5242
55.7733
55.8137
55.7137
55.5281
55.2971
55.0479
54.7988
54.5611
54.3417
54.1437
53.9683
53.829
-12056.1
-11836.1
-11615
-11389.4
-11143
-10841
-10465.9
-10038.5
-9591.66
-9133.99
-8655.03
-8153.49
-7628.57
-7067.06
-6470.07
-5864.84
-5280.65
-4730.44
-4214.69
-3730.54
-3276.43
-2854.17
-2469.28
-2129.41
-1841.14
-1605.48
-1418.03
-1269.21
-1147.99
-1044.56
-951.725
-864.732
-780.792
-698.615
-617.907
-538.977
-462.485
-389.28
-320.319
-256.595
-199.035
-148.352
-104.899
-68.5931
-38.951
-15.2219
3.45629
17.9358
28.9936
37.3107
43.4729
47.978
51.243
53.6102
55.3528
56.6816
57.7509
58.6676
59.5001
60.2881
61.0484
61.777
62.449
63.02
63.4373
63.6598
63.6753
63.5048
63.1923
62.7889
62.3394
61.8764
61.4203
60.9823
60.5678
60.1788
59.8158
59.478
59.1649
58.8898
7505.18
7328.99
7006.84
6508.32
5877.59
5260.8
4692.59
4129.4
3541.54
2966.98
2476.51
2100.12
1800.86
1525.68
1251.5
980.998
724.865
492.84
291.987
125.861
-5.33798
-103.989
-174.043
-219.877
-245.236
-252.799
-244.644
-223.005
-190.881
-151.999
-110.123
-68.5012
-29.4126
5.8875
37.0216
64.2285
88.0214
108.843
126.853
142.052
154.045
162.367
166.762
167.343
164.604
159.313
152.33
144.45
136.31
128.364
120.904
114.085
107.981
102.592
97.8833
93.797
90.2666
87.2231
84.6001
82.3364
80.3768
78.6721
77.1781
75.8545
74.6654
73.5806
72.5768
71.638
70.7539
69.9185
69.1283
68.3813
67.6766
67.0139
66.3928
65.8125
65.2718
64.7688
64.3018
63.8822
11855.7
11374.9
10749.2
10079.1
9364.42
8751.37
8237.33
7786.97
7366.95
6950.79
6522.31
6074.07
5605.28
5119.22
4618.92
4108.98
3599.31
3105.54
2647.16
2242.87
1905.64
1638.24
1433.7
1281.02
1168.2
1083.8
1017.89
962.913
913.625
866.667
820.118
773.109
725.402
677.093
628.371
579.49
530.859
483.159
437.298
394.029
354.114
318.166
286.518
259.161
235.784
215.877
198.869
184.219
171.477
160.287
150.383
141.562
133.675
126.607
120.266
114.579
109.483
104.923
100.846
97.2077
93.9628
91.07
88.4902
86.1863
84.1239
82.2722
80.6045
79.0979
77.7338
76.4965
75.3725
74.3498
73.4174
72.565
71.7835
71.0642
70.3997
69.7831
69.2093
68.6865
-8744.23
-8456.98
-8059.73
-7500.96
-6742.68
-5850.32
-4912.63
-4050.74
-3359.94
-2841.78
-2437.59
-2113.25
-1870.12
-1704.5
-1600.96
-1545.24
-1525.38
-1527.68
-1534.66
-1523.98
-1470.89
-1358.73
-1188.68
-981.007
-764.477
-564.261
-394.368
-257.265
-148.686
-62.4556
7.46913
66.6182
119.346
167.615
210.617
246.135
272.461
289.425
298.172
300.353
297.511
290.868
281.377
269.817
256.864
243.111
229.065
215.14
201.656
188.844
176.856
165.777
155.64
146.437
138.136
130.686
124.026
118.089
112.809
108.121
103.963
100.278
97.0126
94.1184
91.5514
89.2718
87.2437
85.4351
83.8177
82.3665
81.0595
79.8778
78.8048
77.8261
76.9293
76.1035
75.3392
74.6281
73.9637
73.3519
3592.54
3403.52
3127.5
2778.79
2358.18
1949.8
1604.13
1348.75
1175.42
1050.62
943.549
838.508
728.598
610.65
485.475
356.034
226.3
103.13
-2.81751
-80.3577
-120.595
-117.55
-71.3247
14.987
137.329
286.467
442.616
579.061
675.799
727.955
743.574
735.19
716.419
696.921
678.189
655.729
625.219
586.155
541.1
493.719
447.11
403.271
363.258
327.489
295.975
268.484
244.651
224.048
206.245
190.84
177.472
165.831
155.655
146.727
138.865
131.922
125.773
120.317
115.466
111.15
107.304
103.877
100.821
98.0948
95.6615
93.4881
91.5448
89.8045
88.2423
86.836
85.5651
84.4114
83.3586
82.3922
81.4993
80.6687
79.8909
79.1576
78.4625
77.8106
5962.54
5940.99
5875.51
5719.07
5478.4
5139.74
4715.61
4234.69
3733.97
3246.66
2798.7
2412.9
2114.95
1928.06
1854.37
1861.44
1901.42
1937.19
1950.8
1934.91
1881.09
1777.35
1612.74
1383.77
1113.8
861.812
684.146
590.162
552.466
542.306
539.377
530.471
509.231
475.358
433.228
389.112
347.993
312.405
283.042
259.325
240.136
224.34
211.017
199.496
189.318
180.175
171.864
164.25
157.239
150.766
144.783
139.252
134.14
129.42
125.067
121.058
117.371
113.986
110.883
108.043
105.448
103.081
100.924
98.9598
97.1726
95.546
94.064
92.7112
91.4729
90.335
89.2843
88.3088
87.3973
86.5401
85.7284
84.9547
84.2125
83.4963
82.8021
82.1354
-10676
-10123.5
-9385.37
-8531.52
-7524.04
-6538.59
-5692.8
-5036.89
-4555.66
-4230.69
-4060.95
-4030.27
-4084.59
-4145.33
-4150.35
-4082.37
-3956.94
-3786.63
-3571.77
-3314.13
-3025.89
-2723.5
-2419.26
-2117.95
-1820.04
-1529.98
-1259.6
-1021.33
-819.468
-650.631
-509.272
-391.128
-293.027
-211.764
-145.045
-90.9316
-47.5814
-13.2264
13.7909
34.9531
51.5215
64.5214
74.7543
82.8276
89.1929
94.1838
98.049
100.978
103.123
104.607
105.538
106.01
106.106
105.9
105.459
104.84
104.09
103.252
102.357
101.433
100.501
99.5761
98.669
97.787
96.9339
96.1112
95.3184
94.5537
93.8143
93.0968
92.3972
91.7117
91.0365
90.3682
89.7039
89.0412
88.3781
87.7135
87.0468
86.3845
947.308
885.027
806.109
706.001
557.371
351.221
78.9419
-249.244
-607.978
-966.692
-1297.63
-1582.45
-1815.31
-1998.36
-2136.79
-2234.28
-2292.77
-2313.87
-2299.93
-2254.31
-2180.66
-2082.52
-1963.63
-1828.07
-1680.11
-1523.84
-1362.88
-1201.65
-1045.89
-902.843
-779.608
-680.032
-602.826
-542.448
-491.714
-445.084
-399.617
-355.093
-312.894
-274.524
-240.947
-212.5
-189.052
-170.192
-155.367
-143.972
-135.403
-129.077
-124.457
-121.066
-118.494
-116.407
-114.552
-112.747
-110.886
-108.919
-106.851
-104.719
-102.579
-100.489
-98.4868
-96.5837
-94.7697
-93.0256
-91.332
-89.6764
-88.0543
-86.4688
-84.9272
-83.4364
-82.0013
-80.6228
-79.2974
-78.0181
-76.7783
-75.5723
-74.3927
-73.2273
-72.0751
-70.9197
1081.65
1249.28
1482.18
1737.57
2023.37
2293.26
2534.83
2738.49
2892.83
2987.34
3016.14
2978.92
2880.96
2731.42
2540.16
2316.76
2070.68
1811.79
1550.84
1299.87
1070.33
867.966
689.687
527.66
376.01
233.368
101.303
-17.1281
-118.347
-199.286
-258.201
-294.91
-310.697
-308.323
-292.149
-267.161
-238.664
-211.161
-187.492
-168.237
-153.038
-141.26
-132.288
-125.582
-120.662
-117.107
-114.557
-112.716
-111.343
-110.246
-109.28
-108.338
-107.347
-106.266
-105.077
-103.784
-102.4
-100.947
-99.4498
-97.9291
-96.4009
-94.8741
-93.352
-91.8347
-90.3216
-88.8124
-87.3096
-85.8187
-84.3458
-82.8964
-81.4739
-80.0802
-78.7148
-77.3612
-76.0312
-74.7202
-73.4253
-72.1365
-70.8574
-69.586
3507.13
3330.97
3083.2
2759.78
2358.91
1937.73
1529.15
1149.74
803.648
490.018
207.854
-42.841
-260.257
-440.632
-579.999
-675.4
-725.398
-730.404
-693.434
-618.684
-514.545
-394.335
-273.384
-164.023
-73.0032
-2.44389
49.3557
86.8163
114.285
134.556
148.996
157.599
159.407
153.246
138.503
115.786
87.1424
55.7143
25.0533
-2.41466
-25.3908
-43.6533
-57.7067
-68.3083
-76.213
-82.069
-86.3962
-89.5864
-91.9256
-93.617
-94.8025
-95.5814
-96.0239
-96.1824
-96.0981
-95.806
-95.3368
-94.7182
-93.9744
-93.1262
-92.1907
-91.1814
-90.1093
-88.9833
-87.8108
-86.5986
-85.3533
-84.0811
-82.7879
-81.4785
-80.1566
-78.8244
-77.4829
-76.1463
-74.8034
-73.4571
-72.109
-70.7523
-69.396
-68.0513
-3771.11
-3625.53
-3417.04
-3144.86
-2805.03
-2447.54
-2095.09
-1757.73
-1439.49
-1143
-871.669
-634.502
-448.589
-330.828
-287.062
-310.014
-382.14
-475.905
-552.196
-576.589
-542.642
-473.29
-395.602
-325.062
-268.111
-226.168
-196.32
-173.411
-152.901
-131.612
-107.867
-82.1541
-56.2396
-32.7153
-14.3599
-3.25075
0.284545
-2.83701
-10.9478
-21.7175
-33.1437
-43.9901
-53.6268
-61.8374
-68.635
-74.1429
-78.5271
-81.9606
-84.6058
-86.6069
-88.0864
-89.1447
-89.862
-90.3011
-90.5103
-90.5268
-90.3792
-90.0897
-89.6759
-89.1516
-88.5283
-87.8155
-87.0211
-86.152
-85.2147
-84.2151
-83.1588
-82.051
-80.8967
-79.7002
-78.4658
-77.1973
-75.8988
-74.5769
-73.2333
-71.872
-70.496
-69.1
-67.6963
-66.3069
-1328.57
-1172.61
-963.536
-747.315
-528.161
-354.512
-238.452
-185.525
-195.05
-255.128
-345.13
-447.645
-554.143
-661.439
-765.328
-859.68
-939.064
-999.701
-1039.92
-1057.79
-1049.8
-1014.03
-954.279
-878.537
-795.284
-710.934
-629.711
-554.553
-487.243
-428.469
-377.804
-333.571
-294.202
-258.625
-226.282
-197.194
-171.821
-150.251
-132.157
-117.454
-105.97
-97.3812
-91.26
-87.1454
-84.5917
-83.202
-82.6423
-82.6428
-82.9937
-83.5367
-84.1564
-84.7716
-85.3277
-85.7897
-86.137
-86.3589
-86.4515
-86.4154
-86.2537
-85.9714
-85.574
-85.0679
-84.4594
-83.7551
-82.9615
-82.085
-81.1319
-80.1084
-79.0205
-77.8739
-76.6741
-75.4265
-74.1368
-72.8106
-71.4536
-70.071
-68.6671
-67.2372
-65.7958
-64.3729
1660.17
1428.5
1113.13
714.301
188.314
-410.928
-1036.19
-1620.55
-2097.48
-2431.8
-2627.61
-2711.69
-2712.78
-2652.31
-2546.08
-2407.24
-2247.62
-2077.08
-1903.34
-1732.21
-1567.78
-1412.09
-1265.64
-1128.47
-1000.73
-882.944
-775.969
-680.331
-595.231
-518.32
-447.221
-380.893
-319.622
-265.178
-219.173
-181.92
-153.056
-131.53
-116.015
-104.996
-97.2674
-91.9169
-88.2483
-85.7579
-84.0963
-83.0281
-82.3953
-82.0884
-82.0262
-82.1436
-82.3846
-82.6998
-83.0456
-83.384
-83.6832
-83.9168
-84.0647
-84.1117
-84.0478
-83.8669
-83.5667
-83.1478
-82.6132
-81.9675
-81.2167
-80.3677
-79.428
-78.4051
-77.3067
-76.1404
-74.9136
-73.6334
-72.3068
-70.9407
-69.5418
-68.1167
-66.67
-65.1978
-63.7159
-62.2608
-5537.88
-5273.33
-4895.64
-4400.23
-3781.35
-3100.93
-2408.24
-1748.61
-1155.33
-648.045
-236.466
77.5828
300.154
444.17
525.795
560.848
563.348
544.56
513.435
476.536
438.704
402.607
369.08
337.596
306.795
274.978
240.222
200.984
157.279
111.275
66.536
26.9225
-5.9863
-32.5792
-53.2302
-68.5339
-78.9921
-85.1918
-87.9342
-88.5893
-87.9899
-86.7051
-85.1647
-83.6588
-82.3667
-81.3856
-80.7517
-80.4558
-80.4549
-80.685
-81.0736
-81.5501
-82.0526
-82.5299
-82.9418
-83.2582
-83.4578
-83.5268
-83.4572
-83.2464
-82.8953
-82.408
-81.7909
-81.0517
-80.1995
-79.2436
-78.194
-77.0601
-75.8517
-74.5778
-73.2472
-71.8682
-70.4487
-68.9961
-67.5178
-66.0202
-64.5083
-62.9784
-61.4475
-59.9581
10618.7
10426.1
10173
9813.81
9321.94
8742.83
8114.46
7470.41
6833.39
6213.11
5611.1
5027.55
4464.76
3926.6
3416.58
2937.14
2490
2077.73
1704.87
1376.52
1096.13
865.156
682.405
543.699
441.906
367.494
309.793
259.288
210.954
166.564
129.916
101.549
78.6934
59.1212
41.478
25.3492
10.6913
-2.77315
-15.4822
-26.7689
-36.494
-44.6883
-51.4499
-56.955
-61.4391
-65.1621
-68.367
-71.237
-73.8674
-76.2686
-78.4045
-80.2366
-81.744
-82.9269
-83.7973
-84.3743
-84.6795
-84.7355
-84.5645
-84.1884
-83.6278
-82.9025
-82.0313
-81.0317
-79.9198
-78.7105
-77.4176
-76.0533
-74.6291
-73.1551
-71.6408
-70.0946
-68.5243
-66.9372
-65.3403
-63.7397
-62.1394
-60.5355
-58.9467
-57.425
-750.598
-769.965
-817.952
-899.79
-981.822
-1035
-1032.01
-966.238
-853.592
-721.822
-595.95
-487.474
-393.457
-303.568
-208.07
-100.632
20.4136
150.594
282.87
410.901
528.689
628.973
703.238
745.749
754.505
732.86
687.145
624.772
553.775
480.605
409.169
340.85
275.934
214.819
158.315
107.291
61.98
23.2461
-8.28791
-33.1146
-51.7404
-64.8475
-73.345
-78.2967
-80.8205
-81.9793
-82.6806
-83.5678
-84.8837
-86.4764
-88.0454
-89.3734
-90.2786
-90.7892
-90.9329
-90.7468
-90.2734
-89.5547
-88.6296
-87.5323
-86.2921
-84.9335
-83.4773
-81.9412
-80.3399
-78.6863
-76.9914
-75.2651
-73.5158
-71.7514
-69.9787
-68.2038
-66.4326
-64.6703
-62.9223
-61.1933
-59.4856
-57.7942
-56.1401
-54.5936
-13917.1
-13337.4
-12581.4
-11701
-10626.6
-9455.44
-8254.43
-7103.55
-6062.19
-5155.53
-4385.08
-3741.68
-3210.42
-2773.21
-2409.4
-2098.68
-1825.19
-1578.82
-1352.87
-1142.86
-946.724
-765.168
-601.37
-459.642
-343.508
-254.275
-190.756
-149.879
-127.64
-119.948
-123.054
-133.582
-148.358
-164.751
-180.806
-194.782
-205.12
-211.408
-213.358
-211.102
-205.222
-196.618
-186.353
-175.447
-164.659
-154.404
-144.915
-136.438
-129.185
-123.162
-118.161
-113.923
-110.25
-107.019
-104.13
-101.492
-99.0241
-96.6644
-94.3669
-92.1018
-89.8513
-87.6071
-85.3673
-83.1338
-80.9107
-78.7027
-76.5146
-74.3509
-72.2151
-70.1105
-68.0398
-66.0052
-64.0088
-62.0524
-60.1385
-58.2686
-56.4414
-54.6483
-52.9089
-51.2998
13304.7
13050.8
12733.8
12285.1
11659.4
10911.9
10078.1
9184.12
8250.48
7292.29
6323.54
5359.54
4424.39
3557.55
2801.79
2175.39
1659.15
1215
812.686
441.168
103.036
-194.377
-444.015
-641.355
-785.411
-878.866
-927.537
-939.331
-922.963
-886.839
-838.315
-783.317
-726.255
-669.895
-615.687
-564.46
-516.427
-471.346
-428.787
-388.412
-350.187
-314.451
-281.78
-252.732
-227.6
-206.269
-188.767
-174.544
-163.042
-153.536
-145.306
-137.921
-131.218
-125.13
-119.593
-114.527
-109.852
-105.501
-101.422
-97.5789
-93.9431
-90.4937
-87.2131
-84.0863
-81.0996
-78.2409
-75.4993
-72.8649
-70.3292
-67.8847
-65.5254
-63.2461
-61.0427
-58.9122
-56.8529
-54.8634
-52.9389
-51.0673
-49.268
-47.6378
1088.84
1017.78
926.25
810.541
693.998
618.384
603.279
629.227
662.579
679.257
672.309
639.419
577.975
494.649
410.614
346.818
306.411
276.804
244.538
203.556
153.854
97.9232
38.7591
-20.9367
-78.9568
-133.37
-182.57
-225.562
-261.902
-291.494
-314.164
-330.311
-340.656
-346.067
-347.442
-345.621
-341.317
-335.091
-327.351
-318.378
-308.334
-297.241
-284.937
-271.123
-255.605
-238.623
-220.734
-203.492
-187.914
-174.398
-162.686
-152.388
-143.206
-134.947
-127.476
-120.689
-114.5
-108.833
-103.623
-98.8132
-94.3529
-90.2002
-86.3185
-82.6764
-79.2471
-76.0075
-72.9379
-70.0212
-67.2428
-64.5905
-62.0538
-59.624
-57.2942
-55.0588
-52.9141
-50.8569
-48.8806
-46.9708
-45.1458
-43.5224
-15634.8
-14613.7
-13317
-12011.7
-10651
-9407.27
-8333.92
-7468.58
-6814.94
-6333.56
-5960.66
-5634.83
-5298.07
-4897.54
-4416.2
-3890.44
-3382.62
-2940.23
-2579.48
-2292.95
-2064.2
-1876.09
-1715.3
-1572.2
-1440.36
-1315.97
-1197.61
-1085.14
-978.638
-878.006
-783.484
-695.193
-613.449
-538.814
-471.928
-413.28
-363.117
-321.433
-287.94
-261.994
-242.356
-227.66
-216.451
-207.443
-199.638
-192.314
-184.966
-177.394
-169.691
-161.823
-153.915
-146.108
-138.52
-131.237
-124.32
-117.771
-111.575
-105.79
-100.398
-95.3778
-90.7058
-86.3553
-82.2988
-78.5084
-74.9567
-71.6181
-68.4695
-65.4904
-62.663
-59.9726
-57.4067
-54.9556
-52.6114
-50.3685
-48.2232
-46.1731
-44.2121
-42.3264
-40.5337
-38.9713
7273.64
7073.43
6775.52
6335.33
5736.96
5045.3
4301.04
3538.35
2784.97
2057.12
1364.86
714.927
111.9
-439.839
-934.019
-1362.93
-1719.52
-1999.07
-2199.5
-2321.25
-2366.76
-2342.29
-2257.81
-2127.56
-1967.99
-1794.62
-1619.74
-1451.11
-1292.39
-1144.23
-1006.23
-878.23
-760.966
-655.922
-564.479
-487.148
-423.521
-372.663
-333.137
-302.731
-278.62
-258.201
-239.667
-222.219
-205.795
-190.602
-176.827
-164.515
-153.586
-143.882
-135.228
-127.456
-120.422
-114.009
-108.122
-102.713
-97.7435
-93.1033
-88.7596
-84.6821
-80.8873
-77.2988
-73.8947
-70.6567
-67.5672
-64.6119
-61.7794
-59.0604
-56.4476
-53.9352
-51.5185
-49.1943
-46.9601
-44.8147
-42.7586
-40.793
-38.9152
-37.1131
-35.404
-33.9474
-850.525
-598.863
-236.949
187.615
664.552
1116.93
1519.01
1857
2121.24
2306.54
2411.71
2441
2403.41
2310.55
2174.62
2007.15
1818.33
1616.84
1409.76
1202.51
998.96
802.019
614.579
440.126
282.409
144.49
28.7054
-64.1377
-134.188
-182.624
-212.288
-226.922
-230.482
-226.265
-215.727
-198.886
-177.372
-156.612
-142.322
-136.301
-135.813
-136.727
-136.243
-133.661
-129.544
-124.754
-119.932
-115.374
-111.125
-107.113
-103.246
-99.4606
-95.7262
-92.0413
-88.4206
-84.8861
-81.4601
-78.1591
-74.9972
-71.9796
-69.0533
-66.242
-63.5395
-60.9306
-58.403
-55.9472
-53.5564
-51.2264
-48.9546
-46.7403
-44.5842
-42.4882
-40.4551
-38.4886
-36.5938
-34.7768
-33.0403
-31.3749
-29.7954
-28.4835
-1214.24
-1284.61
-1362.92
-1435.72
-1544.55
-1680.81
-1827.43
-1950.37
-2020.98
-2030.92
-1990.09
-1916.39
-1824.28
-1720.28
-1608.71
-1495.66
-1385.4
-1275.91
-1159.98
-1031.02
-887.316
-732.363
-570.947
-407.518
-245.898
-91.3646
49.5683
170.742
268.274
340.931
389.091
413.347
414.121
392.861
353.753
303.822
250.348
198.451
150.5
107.718
70.931
40.3443
15.527
-4.26027
-19.831
-31.9478
-41.2668
-48.327
-53.5611
-57.3143
-59.864
-61.4367
-62.2205
-62.3738
-62.031
-61.3057
-60.2924
-59.0674
-57.6897
-56.2012
-54.6295
-53.0077
-51.3355
-49.6195
-47.866
-46.081
-44.2708
-42.4425
-40.6043
-38.7653
-36.9348
-35.1227
-33.3391
-31.5941
-29.8987
-28.2649
-26.7023
-25.2085
-23.7891
-22.6288
3362.3
3414.7
3477.71
3502.13
3474.77
3451.26
3490.12
3603.84
3749.91
3853.42
3843.1
3688.97
3406.45
3028.12
2579.6
2084.34
1575.46
1091.68
663.596
306.951
24.4873
-187.608
-336.181
-429.054
-474.854
-482.495
-460.666
-417.518
-360.353
-295.573
-229.027
-166.361
-112.632
-71.0426
-41.9574
-23.4202
-12.7602
-7.74695
-6.76325
-8.54828
-12.0385
-16.3635
-20.8852
-25.1998
-29.0953
-32.4888
-35.3718
-37.7714
-39.7289
-41.2879
-42.4902
-43.3742
-43.9746
-44.3231
-44.4484
-44.3767
-44.1309
-43.7314
-43.1953
-42.5258
-41.7414
-40.8474
-39.8505
-38.7559
-37.5694
-36.2983
-34.9513
-33.5385
-32.0717
-30.5636
-29.0278
-27.4788
-25.931
-24.3991
-22.898
-21.4431
-20.0527
-18.7391
-17.4965
-16.4678
6065.72
5864.24
5522.38
4948.82
4135.65
3286.55
2545.47
1945.19
1438.63
957.135
465.134
-17.6641
-431.01
-718.76
-874.451
-941.361
-966.74
-972.542
-959.607
-925.487
-871.293
-801.316
-722.567
-643.343
-571.505
-510.148
-457.885
-411.667
-369.009
-328.564
-289.902
-253.166
-218.769
-187.135
-158.55
-133.144
-110.952
-91.9437
-76.0218
-63.0045
-52.631
-44.5848
-38.525
-34.1143
-31.0392
-29.0211
-27.8198
-27.2339
-27.096
-27.2701
-27.6465
-28.1386
-28.6782
-29.2127
-29.7021
-30.1155
-30.4276
-30.6239
-30.6911
-30.6303
-30.427
-30.0791
-29.5871
-28.9538
-28.1848
-27.2886
-26.276
-25.1605
-23.9575
-22.6841
-21.3585
-19.9992
-18.6251
-17.2545
-15.9053
-14.5965
-13.3459
-12.1569
-11.0214
-10.143
-13688.3
-12649
-11559.5
-10795.3
-10068.2
-9288.17
-8474.43
-7686.29
-6963.71
-6340.66
-5830.05
-5410.5
-5030.92
-4640.84
-4220.22
-3779.05
-3341.94
-2928.48
-2543.77
-2186.05
-1857.98
-1568.32
-1328.11
-1141.77
-1001.81
-892.481
-798.525
-711.119
-627.47
-547.819
-473.217
-404.62
-342.592
-287.15
-238.254
-195.649
-158.936
-127.665
-101.354
-79.5131
-61.6864
-47.4284
-36.2922
-27.8458
-21.6731
-17.3832
-14.6197
-13.0648
-12.4374
-12.5034
-13.0653
-13.9559
-15.0379
-16.2011
-17.3591
-18.4463
-19.4165
-20.2313
-20.867
-21.3089
-21.5492
-21.5855
-21.4209
-21.0622
-20.5206
-19.8103
-18.9491
-17.9569
-16.856
-15.6699
-14.4225
-13.1375
-11.8375
-10.5438
-9.2758
-8.05283
-6.89324
-5.80594
-4.78845
-4.00965
63.6471
348.958
693.412
994.926
1247.61
1414.56
1535.3
1601.86
1576.63
1469.54
1347.68
1251.5
1159.62
1039.42
877.897
674.955
441.552
200.156
-23.7717
-206.727
-331.348
-391.985
-398.644
-371.936
-331.339
-287.463
-242.835
-197.227
-151.347
-107.235
-67.0709
-32.2645
-3.41531
19.3043
36.2611
47.9767
55.2255
58.7945
59.3602
57.5571
54.0746
49.5015
44.2734
38.7224
33.0919
27.5525
22.2213
17.1759
12.4609
8.1072
4.13069
0.533706
-2.68826
-5.54276
-8.03847
-10.1843
-11.989
-13.461
-14.609
-15.4425
-15.9719
-16.21
-16.1718
-15.8755
-15.3428
-14.599
-13.6724
-12.5943
-11.3978
-10.116
-8.78148
-7.42403
-6.07002
-4.74144
-3.45613
-2.22891
-1.07319
0.00012508
0.975996
1.68617
-68.6673
-65.1368
-61.5962
-58.0473
-54.5453
-51.1741
-47.9794
-44.9771
-42.1569
-39.4931
-36.9578
-34.5281
-32.1928
-29.9674
-27.8653
-25.9032
-24.0927
-22.4351
-20.9285
-19.5699
-18.3563
-17.2851
-16.3523
-15.5495
-14.8572
-14.2414
-13.7232
-13.2683
-12.8641
-12.4912
-12.1323
-11.7706
-11.3913
-10.9789
-10.5216
-10.0183
-9.44768
-8.84125
-8.18907
-7.50069
-6.7863
-6.05712
-5.32493
-4.60144
-3.89773
-3.22355
-2.58672
-1.99272
-1.44471
-0.943651
-0.488619
-0.0772011
0.293935
0.62853
0.930408
1.20326
1.45047
1.67492
1.87902
2.06473
2.23363
2.38688
2.52531
2.6495
2.75987
2.85672
2.94019
3.0103
3.06701
3.11017
3.13953
3.15459
3.15468
3.13902
3.10684
3.05752
2.99081
2.90706
2.80735
2.69348
2.56777
2.43275
2.29075
2.1435
1.99172
1.83494
1.67147
1.49867
1.31323
1.11159
0.890258
0.64604
0.376205
0.0785175
-0.248728
-0.606641
-0.99559
-1.41497
-1.86292
-2.33597
-2.8287
-3.33348
-3.84033
-4.33697
-4.80919
-5.24152
-5.61811
-5.92372
-6.14505
-6.27201
-6.29854
-6.22305
-6.04888
-5.78353
-5.43759
-5.02443
-4.56097
-4.06843
-3.57157
-3.09573
-2.66284
-2.2884
-1.98065
-1.74188
-1.57075
-1.46443
-1.42003
-1.43508
-1.50749
-1.63537
-1.8171
-2.05152
-2.33808
-2.67676
-3.06782
-3.51127
-4.00642
-4.55149
-5.1433
-5.77726
-6.44728
-7.14596
-7.86465
-8.59363
-9.32237
-10.0398
-10.7345
-11.3951
-12.0107
-12.5706
-13.065
-13.4849
-13.8225
-14.0716
-14.2277
-14.2881
-14.2528
-14.1242
-13.9089
-13.6125
-13.2434
-12.8117
-12.3281
-11.8039
-11.2499
-10.6764
-10.0929
-9.50743
-8.92678
-8.35635
-7.80014
-7.26099
-6.74071
-6.24032
-5.76025
-5.30057
-4.86112
-4.44174
-4.04233
-3.66287
-3.30345
-2.96418
-2.64509
-2.34616
-2.06724
-1.8081
-1.56838
-1.34762
-1.14534
-0.960892
-0.793753
-0.6432
-0.508951
-0.390006
-0.286958
-0.197418
-0.124984
-0.0616806
-0.0226846
0.0192884
-67.1502
-63.4552
-59.8564
-56.3416
-52.9326
-49.6681
-46.576
-43.6661
-40.9335
-38.3628
-35.936
-33.6375
-31.4598
-29.4065
-27.4848
-25.691