/*--------------------------------*- C++ -*----------------------------------*\
| =========                 |                                                 |
| \\      /  F ield         | OpenFOAM: The Open Source CFD Toolbox           |
|  \\    /   O peration     | Version:  2012                                  |
|   \\  /    A nd           | Website:  www.openfoam.com                      |
|    \\/     M anipulation  |                                                 |
\*---------------------------------------------------------------------------*/
FoamFile
{
    version     2.0;
    format      ascii;
    class       surfaceScalarField;
    location    "0.58";
    object      phi;
}
// * * * * * * * * * * * * * * * * * * * * * * * * * * * * * * * * * * * * * //

dimensions      [0 3 -1 0 0 0 0];
oriented        oriented;


internalField   nonuniform List<scalar> 
84340
(
-0.000435267
8.87536e-05
0.000346513
-0.00109638
2.26202e-05
0.000638498
-0.00168892
-7.67398e-05
0.000669279
-0.0022983
-2.25382e-05
0.000631911
-0.00301151
6.65282e-05
0.000646681
-0.00378046
9.06295e-05
0.000678324
-0.00450644
7.20964e-05
0.000653889
-0.00508956
0.000162304
0.000420814
-0.00544224
0.000507886
-0.000155207
-0.00552525
0.00101765
-0.000934647
-0.00537002
0.00136665
-0.00152188
-0.00503589
0.00138007
-0.0017142
-0.00457213
0.00118119
-0.00164496
-0.00402525
0.000933666
-0.00148055
-0.00343679
0.000699909
-0.00128836
-0.00283156
0.000494573
-0.00109981
-0.00222215
0.000322765
-0.000932171
-0.00162501
0.000188267
-0.000785414
-0.00105569
9.48059e-05
-0.000664124
-0.000548636
4.15982e-05
-0.000548652
-0.000138246
1.86477e-05
-0.000429037
0.000152474
1.05001e-05
-0.000301221
0.000325193
1.1528e-07
-0.000172834
0.00041057
-2.62938e-05
-5.90824e-05
0.000448192
-6.88305e-05
3.12084e-05
0.000466078
-0.000122035
0.000104148
0.000472422
-0.000174946
0.000168602
0.000466387
-0.000218392
0.000224427
0.000448414
-0.000247985
0.000265958
0.000416216
-0.000257399
0.000289597
0.000374466
-0.000254179
0.000295929
0.000321074
-0.00023529
0.000288682
0.00025209
-0.000203531
0.000272515
0.000165993
-0.000165543
0.00025164
6.45802e-05
-0.000127893
0.000229306
-4.49723e-05
-9.52945e-05
0.000204847
-0.000157149
-6.98976e-05
0.000182074
-0.00026701
-5.16322e-05
0.000161494
-0.000370989
-3.9151e-05
0.00014313
-0.000465704
-3.08424e-05
0.000125557
-0.000550471
-2.54048e-05
0.000110173
-0.000625731
-2.19729e-05
9.72327e-05
-0.000691857
-2.00805e-05
8.62066e-05
-0.000749229
-1.94997e-05
7.6871e-05
-0.000798259
-2.01067e-05
6.91373e-05
-0.00083942
-2.18164e-05
6.29777e-05
-0.000873279
-2.45336e-05
5.83922e-05
-0.000900486
-2.81903e-05
5.53975e-05
-0.000921749
-3.27702e-05
5.40327e-05
-0.000937765
-3.83393e-05
5.43559e-05
-0.000949161
-4.5059e-05
5.64548e-05
-0.00095643
-5.31804e-05
6.04504e-05
-0.000959896
-6.30265e-05
6.64919e-05
-0.000959672
-7.4968e-05
7.47449e-05
-0.000955656
-8.93976e-05
8.53816e-05
-0.000947523
-0.000106703
9.857e-05
-0.000934744
-0.000127238
0.000114459
-0.000916613
-0.000151293
0.000133162
-0.000892289
-0.000179064
0.00015474
-0.000860849
-0.000210621
0.000179181
-0.000821355
-0.000245877
0.000206383
-0.00077293
-0.000284563
0.000236138
-0.000714839
-0.000326212
0.000268121
-0.000646572
-0.000370155
0.000301888
-0.000567912
-0.000415537
0.000336877
-0.000478998
-0.000461346
0.000372432
-0.000380349
-0.000506471
0.000407822
-0.000272871
-0.000549769
0.000442291
-0.000157815
-0.000590151
0.000475095
-3.67018e-05
-0.000626674
0.000505561
8.87894e-05
-0.000658624
0.000533133
0.000216971
-0.000685591
0.000557409
0.000346307
-0.000707503
0.000578168
0.000475566
-0.000724623
0.000595364
0.000603941
-0.000737491
0.000609116
0.000731099
-0.000746817
0.000619659
0.000857142
-0.000753343
0.0006273
0.000982524
-0.000757707
0.000632325
0.00110804
-0.000760463
0.00063495
-0.000763096
0.000636574
0.00123456
-1.74687e-05
0.000106222
-0.000211011
0.000216163
-0.000605154
0.000317403
-0.00115166
0.000523968
-0.00184209
0.000756963
-0.00267299
0.000921526
-0.00360231
0.00100142
-0.00445447
0.00101446
-0.00493495
0.000988369
-0.00486119
0.000943883
-0.0043765
0.000881966
-0.00378152
0.0007851
-0.00324965
0.000649322
-0.00280717
0.000491189
-0.00243695
0.000329681
-0.00212006
0.000177688
-0.00184159
4.42972e-05
-0.00158809
-6.52401e-05
-0.0013412
-0.000152078
-0.00108188
-0.000217728
-0.000797046
-0.000266181
-0.000484104
-0.000302442
-0.00015253
-0.000331459
0.000178587
-0.000357411
0.000491886
-0.000382129
0.000775019
-0.000405167
0.00102501
-0.000424934
0.00123996
-0.000433342
0.00141451
-0.000422536
0.0015426
-0.000385492
0.00160635
-0.000317931
0.00159511
-0.000224044
0.00150768
-0.000116098
0.00135332
-1.11863e-05
0.00114986
7.55604e-05
0.000918388
0.000136183
0.000678121
0.000170369
0.000443739
0.00018275
0.000225018
0.00017957
2.77219e-05
0.000166454
-0.00014513
0.000147447
-0.000292363
0.00012526
-0.000414218
0.000101774
-0.000511961
7.82437e-05
-0.000587764
5.56964e-05
-0.000644534
3.49535e-05
-0.000685408
1.63395e-05
-0.000713552
-4.64249e-08
-0.000731964
-1.43584e-05
-0.00074327
-2.70331e-05
-0.000749587
-3.87423e-05
-0.000752445
-5.03222e-05
-0.000752774
-6.26977e-05
-0.000750927
-7.68148e-05
-0.000746737
-9.35874e-05
-0.000739591
-0.000113849
-0.000728509
-0.000138319
-0.000712244
-0.000167558
-0.000689373
-0.000201935
-0.000658414
-0.00024158
-0.000617937
-0.000286354
-0.000566693
-0.000335807
-0.000503729
-0.000389176
-0.000428502
-0.000445382
-0.000340971
-0.000503068
-0.000241656
-0.000560662
-0.000131672
-0.000616455
-1.27006e-05
-0.00066874
0.000113081
-0.000715933
0.000243127
-0.00075672
0.000374703
-0.0007902
0.000505113
-0.000816001
0.000631975
-0.000834365
0.000753504
-0.000846152
0.000868752
-0.000852739
0.000977745
-0.00085581
0.00108146
-0.000857062
0.00118166
-0.000857907
0.00128054
-0.000859341
-0.000862893
0.00138034
0.000279501
-0.000173279
0.000767301
-0.000271638
0.00138078
-0.000296075
0.0022141
-0.000309357
0.00326005
-0.000288984
0.00441929
-0.000237712
0.00559336
-0.000172654
0.00672167
-0.000113844
0.00778294
-7.29021e-05
0.00877704
-5.02155e-05
0.00969984
-4.08338e-05
0.0105254
-4.04327e-05
0.0112202
-4.54885e-05
0.0117594
-4.8057e-05
0.012137
-4.78672e-05
0.0123516
-3.69665e-05
0.012404
-8.11624e-06
0.0122988
4.00414e-05
0.0120414
0.000105257
0.011641
0.000182656
0.0111089
0.000266007
0.0104576
0.000348801
0.00970157
0.000424584
0.00885703
0.000487122
0.0079435
0.000531405
0.0069832
0.000555135
0.00600292
0.000555347
0.00503516
0.000534417
0.00411459
0.000498033
0.0032732
0.000455898
0.00253854
0.000416726
0.00192838
0.000386112
0.00144686
0.000365428
0.00108878
0.000346893
0.000829032
0.000335305
0.000639837
0.000325378
0.000493639
0.000316567
0.000368282
0.000308107
0.000248628
0.000299224
0.000128281
0.0002868
8.14075e-06
0.000267588
-0.000105576
0.000238977
-0.000209801
0.000205999
-0.000297945
0.000166388
-0.000365175
0.000122927
-0.000414113
8.38908e-05
-0.000443356
4.55836e-05
-0.000454594
1.1191e-05
-0.000452111
-1.68408e-05
-0.000440942
-3.82015e-05
-0.000425684
-5.40001e-05
-0.000409774
-6.62313e-05
-0.000395207
-7.72641e-05
-0.000382586
-8.9436e-05
-0.000371363
-0.00010481
-0.000360118
-0.000125094
-0.000346863
-0.000151574
-0.000329291
-0.00018513
-0.000304998
-0.000226228
-0.000271679
-0.0002749
-0.000227302
-0.00033073
-0.000170271
-0.000392839
-9.95574e-05
-0.00045989
-1.48122e-05
-0.000530128
8.35602e-05
-0.00060144
0.000194359
-0.00067146
0.000315625
-0.000737721
0.000444696
-0.000797811
0.000578324
-0.00084956
0.000712845
-0.000891241
0.000844393
-0.000921749
0.000969176
-0.000940783
0.00108381
-0.000949003
0.00118576
-0.000948097
0.00127372
-0.000940695
0.00134796
-0.000930056
0.00141042
-0.00091952
0.00146439
-0.000911871
0.00151382
-0.000908777
-0.00091243
0.00156336
-0.000664883
0.000491604
-0.00198583
0.00104931
-0.00355442
0.00127252
-0.00511078
0.001247
-0.00644485
0.00104509
-0.00745807
0.000775505
-0.00813483
0.000504115
-0.00851071
0.000262033
-0.00864041
5.68014e-05
-0.00858403
-0.000106602
-0.00838381
-0.000241051
-0.0080679
-0.000356344
-0.00765686
-0.000456531
-0.00716454
-0.000540377
-0.00660234
-0.000610062
-0.00597564
-0.00066367
-0.00528599
-0.000697764
-0.00453766
-0.000708296
-0.00374141
-0.000690987
-0.00291644
-0.000642321
-0.00208836
-0.000562071
-0.0012838
-0.000455757
-0.000524672
-0.000334544
0.000173197
-0.000210746
0.000791211
-8.66095e-05
0.00131464
3.17045e-05
0.00172923
0.000140754
0.00202143
0.000242224
0.00218321
0.000336249
0.00221643
0.00042268
0.00213244
0.000500716
0.00194939
0.000569161
0.00168877
0.000626051
0.00136738
0.000668285
0.00100956
0.000693121
0.000635896
0.000699044
0.000266517
0.000685947
-8.03575e-05
0.000654981
-0.000388614
0.000607481
-0.000645934
0.00054412
-0.000844842
0.000466497
-0.000983009
0.000377144
-0.00106249
0.000285479
-0.00108001
0.000183909
-0.00103463
7.75468e-05
-0.00093762
-1.31199e-05
-0.000806306
-8.57303e-05
-0.000656917
-0.000138198
-0.000503571
-0.000170187
-0.000358097
-0.000183676
-0.00022914
-0.000182958
-0.000121591
-0.00017378
-3.66394e-05
-0.000162217
2.76338e-05
-0.000153709
7.53305e-05
-0.000152506
0.00011169
-0.000161454
0.00014231
-0.000182194
0.000172562
-0.000215382
0.000207176
-0.000260841
0.000250029
-0.000317753
0.000304057
-0.000384758
0.000371212
-0.000459994
0.000452454
-0.000541132
0.00054774
-0.000625413
0.000656035
-0.000709736
0.00077537
-0.000790795
0.000902924
-0.000865276
0.0010352
-0.00093009
0.00116824
-0.000982594
0.00129778
-0.00102078
0.00141949
-0.00104346
0.00152916
-0.00105046
0.00162298
-0.00104282
0.00169793
-0.00102305
0.00175234
-0.000995101
0.0017864
-0.000964122
0.00180255
-0.00093567
0.00180531
-0.000914622
0.00180037
-0.000903841
-0.000906754
0.00179469
0.000552121
-6.05168e-05
0.00128119
0.000320239
0.00182893
0.000724777
0.0021754
0.000900529
0.00233225
0.000888236
0.00232211
0.000785652
0.00216417
0.000662055
0.00187137
0.000554831
0.00145852
0.000469651
0.000956637
0.000395279
0.000400142
0.000315445
-0.000177096
0.000220895
-0.000728753
9.51253e-05
-0.00120318
-6.59473e-05
-0.00155723
-0.000256011
-0.00175519
-0.000465709
-0.001772
-0.00068096
-0.00159918
-0.000881117
-0.00125645
-0.00103371
-0.000804185
-0.00109459
-0.000339351
-0.0010269
4.19191e-05
-0.000837027
0.000298393
-0.000591017
0.000461718
-0.000374072
0.000600547
-0.000225439
0.000758471
-0.00012622
0.00094774
-4.85152e-05
0.0011565
3.34642e-05
0.00137253
0.000120222
0.00158501
0.000210193
0.00178838
0.000297351
0.00197624
0.000381296
0.00214395
0.000458345
0.00228849
0.000523745
0.00240801
0.000573602
0.00250114
0.000605909
0.00256678
0.000620313
0.00260409
0.000617665
0.00261274
0.000598838
0.00259226
0.000564594
0.00254322
0.000515537
0.00246746
0.000452909
0.00237354
0.000379394
0.00225959
0.000297857
0.00212345
0.000213694
0.00197776
0.000132572
0.00183068
6.13473e-05
0.0016815
1.09781e-05
0.00153827
-2.69571e-05
0.00140399
-4.93926e-05
0.00128039
-5.9362e-05
0.0011688
-6.2181e-05
0.00107042
-6.3836e-05
0.000986558
-6.98527e-05
0.00091854
-8.44879e-05
0.000867308
-0.000110222
0.000833805
-0.00014869
0.000818628
-0.000200205
0.000822047
-0.00026426
0.000844058
-0.000339765
0.000884354
-0.000425053
0.000942242
-0.000517882
0.00101654
-0.000615427
0.00110543
-0.000714302
0.00120637
-0.000810682
0.00131612
-0.00090054
0.00143083
-0.000979992
0.00154639
-0.00104564
0.00165862
-0.00109483
0.00176362
-0.00112577
0.00185777
-0.00113761
0.00193785
-0.00113053
0.00200102
-0.001106
0.00204505
-0.00106708
0.00206865
-0.00101871
0.00207206
-0.000967524
0.00205743
-0.000921046
0.00202902
-0.000886206
0.0019925
-0.000867328
-0.000868088
0.00195384
-0.000175623
0.000115107
0.000160957
-1.6342e-05
0.00109762
-0.000211882
0.0022152
-0.000217051
0.00315371
-5.02822e-05
0.00373496
0.000204403
0.00391733
0.000479686
0.00374113
0.000731038
0.00327752
0.000933259
0.00259904
0.00107376
0.00176765
0.00114683
0.000837362
0.00115118
-0.000155201
0.00108769
-0.00118051
0.000959367
-0.00220855
0.000772026
-0.00320688
0.000532617
-0.0041384
0.000250562
-0.00496072
-5.87961e-05
-0.00562795
-0.000366479
-0.00609582
-0.000626724
-0.00633439
-0.000788329
-0.00634623
-0.000825194
-0.00616675
-0.000770493
-0.0058694
-0.000671423
-0.00551056
-0.000584276
-0.00510873
-0.00052805
-0.00466681
-0.000490433
-0.00417345
-0.000459896
-0.00364072
-0.00041251
-0.00309078
-0.000339745
-0.00254383
-0.000249606
-0.00200746
-0.000155069
-0.00148346
-6.56551e-05
-0.000968944
9.22889e-06
-0.000469797
7.44559e-05
8.89415e-06
0.000127218
0.000462808
0.0001664
0.000888453
0.000192021
0.00128243
0.000204861
0.00164076
0.000206258
0.00195811
0.000198191
0.00222772
0.000183296
0.00244229
0.000164823
0.00259407
0.000146085
0.00267769
0.000130071
0.00269126
0.000118997
0.0026387
0.000113908
0.00253541
0.000114273
0.00239058
0.000117868
0.00221944
0.000121752
0.00203762
0.000122454
0.00185896
0.000116486
0.00169435
0.000100773
0.00155207
7.24199e-05
0.001438
2.95843e-05
0.00134607
-1.82938e-05
0.00127975
-8.23634e-05
0.00123874
-0.000159202
0.00122144
-0.000246956
0.00122579
-0.000344118
0.00124964
-0.000448896
0.00129072
-0.000558964
0.00134655
-0.000671262
0.00141418
-0.000781932
0.00149003
-0.000886531
0.00157001
-0.000980512
0.00164984
-0.00105983
0.00172563
-0.00112143
0.00179422
-0.00116341
0.0018534
-0.00118496
0.00190188
-0.0011861
0.00193903
-0.00116768
0.00196468
-0.00113164
0.001979
-0.0010814
0.00198261
-0.00102231
0.00197661
-0.000961525
0.00196277
-0.000907213
0.00194348
-0.000866911
0.0019216
-0.000845444
-0.000844759
0.00189827
-2.10985e-05
0.000136205
-0.000197665
0.000160224
-0.000439248
2.97006e-05
-0.000540863
-0.000115436
-0.000389063
-0.000202082
3.90182e-05
-0.000223679
0.000721504
-0.0002028
0.0016174
-0.000164858
0.00267371
-0.000123049
0.00383077
-8.33023e-05
0.0050282
-5.05923e-05
0.00620795
-2.8576e-05
0.00731183
-1.61849e-05
0.00827927
-8.07966e-06
0.00905109
2.0473e-07
0.00957536
8.35005e-06
0.00981383
1.20919e-05
0.00975354
1.4984e-06
0.00939577
-8.71537e-06
0.00880383
-3.47858e-05
0.00807703
-6.15249e-05
0.00731578
-6.39423e-05
0.00655941
-1.41267e-05
0.0057952
9.27928e-05
0.00499019
0.000220728
0.00414675
0.000315387
0.00330844
0.000347881
0.00251801
0.000330536
0.0018113
0.000294199
0.00121153
0.000260025
0.000728934
0.000232989
0.000362382
0.000211484
0.0001108
0.000185927
-3.99205e-05
0.000159949
-0.000100917
0.000135452
-8.52099e-05
0.000111511
-1.16017e-05
9.27914e-05
0.000101263
7.91559e-05
0.000235527
7.05978e-05
0.000374799
6.69864e-05
0.000505076
6.79142e-05
0.000615217
7.31555e-05
0.000700394
7.96455e-05
0.00075773
8.87494e-05
0.000790209
9.75923e-05
0.000802013
0.000107193
0.000798631
0.00011729
0.000787485
0.000125419
0.00077581
0.000129543
0.000769788
0.000127774
0.000773678
0.000118563
0.000789297
0.000100866
0.000815716
7.43545e-05
0.00084903
3.91062e-05
0.000892387
-1.37724e-05
0.000946255
-7.21622e-05
0.00100388
-0.000139992
0.0010621
-0.000217418
0.00111939
-0.000304244
0.00117529
-0.000400015
0.00123004
-0.000503646
0.00128407
-0.000612996
0.00133737
-0.000724566
0.00138901
-0.000833571
0.00143702
-0.000934544
0.00147882
-0.00102231
0.00151196
-0.00109297
0.00153491
-0.00114438
0.00154759
-0.00117609
0.00155129
-0.00118867
0.00154842
-0.00118323
0.001542
-0.00116126
0.00153526
-0.0011249
0.00153134
-0.00107748
0.00153296
-0.00102394
0.00154205
-0.000970609
0.00155921
-0.000924374
0.00158349
-0.000891188
0.00161255
-0.000874509
-0.000874462
0.00164226
0.000428114
-0.000291909
0.000791403
-0.000203065
0.000794493
2.66107e-05
0.000585238
9.38192e-05
0.000323505
5.96508e-05
9.42315e-05
5.59465e-06
-7.38341e-05
-3.47345e-05
-0.000180166
-5.85263e-05
-0.000222408
-8.08072e-05
-0.000184215
-0.000121495
-4.02452e-05
-0.000194562
0.000220934
-0.000289755
0.000563421
-0.000358672
0.000921102
-0.000365761
0.00124278
-0.000321473
0.00151217
-0.000261039
0.00173071
-0.000206444
0.00189512
-0.000162919
0.00200876
-0.000122353
0.00204609
-7.21187e-05
0.00200441
-1.98459e-05
0.00190416
3.6312e-05
0.00178745
0.000102587
0.00170319
0.000177054
0.00167427
0.00024964
0.00168238
0.000307278
0.00168865
0.000341613
0.00166608
0.00035311
0.00161256
0.000347719
0.00154068
0.000331897
0.0014635
0.000310173
0.00138946
0.000285527
0.00132037
0.000255012
0.00125944
0.000220882
0.00120718
0.000187714
0.00116092
0.000157773
0.00112059
0.000133114
0.0010846
0.000115144
0.00105064
0.000104564
0.00101652
0.000101103
0.000982549
0.000101887
0.000948891
0.000106814
0.000912861
0.000115676
0.00087693
0.00012468
0.000843077
0.000131445
0.000815611
0.00013466
0.000799272
0.000133629
0.000796946
0.000127745
0.000810161
0.000116327
0.000839189
9.8746e-05
0.000883336
7.44162e-05
0.000941592
4.26092e-05
0.0010048
1.11424e-05
0.00107233
-2.84236e-05
0.00113379
-7.52308e-05
0.00119014
-0.000128514
0.00123893
-0.000188781
0.00127864
-0.000257122
0.00130908
-0.000334687
0.00133126
-0.000422193
0.00134682
-0.000519205
0.00135727
-0.000623455
0.00136329
-0.00073058
0.00136429
-0.000834571
0.0013587
-0.000928956
0.00134471
-0.00100832
0.00132124
-0.0010695
0.00128873
-0.00111188
0.0012494
-0.00113676
0.001207
-0.00114626
0.00116626
-0.0011425
0.00113235
-0.00112734
0.00111022
-0.00110277
0.00110407
-0.00107134
0.00111667
-0.00103654
0.00114864
-0.00100258
0.00119797
-0.000973704
0.00126008
-0.000953298
0.00132861
-0.000943032
-0.000942946
0.00139709
-0.000685776
0.000393868
-0.00144615
0.000557308
-0.00195357
0.000534033
-0.00245437
0.000594614
-0.00310302
0.000708303
-0.00392161
0.000824188
-0.00486194
0.000905596
-0.00584574
0.000925273
-0.00678504
0.000858491
-0.00759345
0.000686917
-0.00820938
0.000421363
-0.00862328
0.000124147
-0.00886969
-0.000112264
-0.00900097
-0.000234474
-0.00905346
-0.000268982
-0.00903662
-0.000277887
-0.00894704
-0.000296025
-0.00878663
-0.000323329
-0.00855944
-0.000349544
-0.00826354
-0.000368011
-0.00790748
-0.000375911
-0.00749798
-0.00037319
-0.00703247
-0.000362914
-0.00651167
-0.000343749
-0.00594434
-0.000317691
-0.00534182
-0.000295242
-0.00472661
-0.000273598
-0.00411967
-0.000253825
-0.00353651
-0.000235446
-0.00298676
-0.000217857
-0.00247601
-0.000200571
-0.00200698
-0.0001835
-0.00158518
-0.000166794
-0.00121402
-0.000150273
-0.000892435
-0.000133875
-0.000617327
-0.000117335
-0.000384018
-0.000100194
-0.000186871
-8.20028e-05
-1.98097e-05
-6.24973e-05
0.000123089
-4.17957e-05
0.000245437
-2.04616e-05
0.000351706
5.44767e-07
0.000447082
2.02995e-05
0.000534266
3.74967e-05
0.000613687
5.20237e-05
0.000689385
5.89616e-05
0.000763561
5.94529e-05
0.000836392
5.49143e-05
0.000911525
4.11944e-05
0.000989919
2.03521e-05
0.00107174
-7.40876e-06
0.00115382
-3.94675e-05
0.00124
-7.50368e-05
0.00132506
-0.000113483
0.00140429
-0.000154459
0.00147416
-0.000198385
0.00153197
-0.00024659
0.00157607
-0.000301223
0.00160603
-0.000364652
0.00162244
-0.000438597
0.00162639
-0.000523157
0.00161901
-0.000616074
0.00160105
-0.000712622
0.00157283
-0.000806352
0.00153448
-0.000890599
0.00148637
-0.000960217
0.00142968
-0.0010128
0.0013666
-0.0010488
0.00130046
-0.00107062
0.00123548
-0.00108128
0.00117642
-0.00108344
0.00112814
-0.00107907
0.00109504
-0.00106967
0.00108037
-0.00105666
0.00108556
-0.00104173
0.00110978
-0.00102679
0.00114983
-0.00101375
0.00120067
-0.00100414
0.00125645
-0.000998819
-0.000998431
0.00131194
0.000539626
-0.000145758
0.00138285
-0.00028592
0.00223517
-0.000318282
0.00306793
-0.00023815
0.00385365
-7.74099e-05
0.00456653
0.000111307
0.00519201
0.000280116
0.00570857
0.000408709
0.00607817
0.000488888
0.00624008
0.000525009
0.00612581
0.000535632
0.00570409
0.000545872
0.00502224
0.000569586
0.00419351
0.000594258
0.00333687
0.000587651
0.00253534
0.000523649
0.00183075
0.000408557
0.00124114
0.000266282
0.000770641
0.000120959
0.000421217
-1.85873e-05
0.00017906
-0.000133754
2.33322e-05
-0.000217463
-6.59252e-05
-0.000273657
-9.9316e-05
-0.000310359
-8.46274e-05
-0.000332379
-3.87285e-05
-0.000341141
2.6572e-05
-0.000338898
0.000102217
-0.000329469
0.000183774
-0.000317003
0.000270436
-0.000304519
0.000363608
-0.000293743
0.000465119
-0.000285011
0.000576148
-0.000277823
0.000697026
-0.000271151
0.000826822
-0.000263671
0.000963615
-0.000254127
0.00110492
-0.000241501
0.00124806
-0.000225138
0.00139056
-0.000205005
0.00153045
-0.000181677
0.00166585
-0.000155862
0.00179493
-0.000128544
0.00191602
-0.00010079
0.00202854
-7.50227e-05
0.00213102
-5.04549e-05
0.00222089
-3.09026e-05
0.00229779
-1.74481e-05
0.00236408
-1.13768e-05
0.00241908
-1.38076e-05
0.00246506
-2.56314e-05
0.00249895
-4.12945e-05
0.00252407
-6.45855e-05
0.00254259
-9.35646e-05
0.00255554
-0.000126432
0.00256334
-0.00016226
0.00256588
-0.000200919
0.00256245
-0.000243168
0.0025518
-0.00029057
0.00253219
-0.000345038
0.00250168
-0.000408097
0.00245856
-0.000480032
0.00240171
-0.000559221
0.00233103
-0.000641949
0.00224763
-0.000722943
0.00215364
-0.000796618
0.00205206
-0.000858632
0.00194628
-0.000907015
0.00183978
-0.000942302
0.00173587
-0.000966713
0.00163759
-0.000982997
0.00154773
-0.000993576
0.00146888
-0.00100021
0.00140327
-0.00100406
0.0013525
-0.0010059
0.00131713
-0.00100636
0.00129642
-0.00100609
0.00128843
-0.00100576
0.00129033
-0.00100604
0.0012991
-0.00100759
-0.00101125
0.00131192
0.000310688
-0.000456446
0.000884737
-0.000859968
0.0015667
-0.00100025
0.00224307
-0.000914519
0.00279215
-0.000626496
0.00318218
-0.000278715
0.00347507
-1.27789e-05
0.00373697
0.000146814
0.00398779
0.000238066
0.00420792
0.000304876
0.00437313
0.000370421
0.00447578
0.00044322
0.00452165
0.000523715
0.00451757
0.000598345
0.004468
0.00063722
0.00438529
0.00060636
0.00428183
0.000512019
0.00420232
0.000345788
0.00419567
0.000127609
0.00427233
-9.52421e-05
0.00438774
-0.000249171
0.0044584
-0.000288121
0.00442626
-0.000241512
0.00429366
-0.000177759
0.00409934
-0.000138062
0.00388211
-0.000123912
0.00366595
-0.000122739
0.00346211
-0.000125629
0.00327428
-0.000129173
0.00310246
-0.000132695
0.00294497
-0.000136256
0.00279983
-0.000139871
0.00266529
-0.000143279
0.00254016
-0.00014602
0.00242404
-0.000147553
0.00231734
-0.000147435
0.00222131
-0.00014547
0.00213801
-0.000141835
0.00207011
-0.000137101
0.0020204
-0.000131969
0.00199157
-0.000127027
0.00198569
-0.000122667
0.00200387
-0.000118972
0.00204511
-0.000116258
0.00210953
-0.000114876
0.00219391
-0.000115279
0.00229447
-0.000118013
0.00240618
-0.000123082
0.00252285
-0.000130486
0.0026392
-0.000141981
0.00275353
-0.000155615
0.00286041
-0.000171466
0.00295612
-0.000189274
0.00303843
-0.000208744
0.00310603
-0.000229866
0.00315812
-0.000253002
0.00319388
-0.000278932
0.00321209
-0.000308781
0.00321086
-0.000343802
0.00318777
-0.000385008
0.00314045
-0.000432709
0.0030673
-0.000486078
0.00296831
-0.00054296
0.00284555
-0.000600177
0.00270332
-0.000654396
0.00254792
-0.000703233
0.00238675
-0.000745841
0.00222707
-0.000782621
0.0020748
-0.000814442
0.00193387
-0.000842073
0.00180639
-0.000866088
0.00169317
-0.000886998
0.00159443
-0.000905312
0.00151004
-0.000921506
0.00143966
-0.000935985
0.00138269
-0.000949116
0.00133822
-0.000961286
0.00130514
-0.000972962
0.00128225
-0.000984699
-0.000997161
0.00126816
-0.000480865
2.44194e-05
-0.00088091
-0.000459924
-0.000853506
-0.00102765
-0.000619663
-0.00114836
-0.000446992
-0.000799167
-0.000432167
-0.00029354
-0.000565892
0.000120947
-0.000804536
0.000385458
-0.00113425
0.000567782
-0.00154173
0.000712358
-0.00199597
0.000824657
-0.00241732
0.000864571
-0.00272369
0.000830084
-0.00287093
0.000745589
-0.00288791
0.000654194
-0.00283405
0.000552502
-0.00275259
0.000430555
-0.00267166
0.000264862
-0.00259367
4.96133e-05
-0.00250532
-0.000183585
-0.0023986
-0.000355891
-0.00228494
-0.000401786
-0.00218434
-0.00034211
-0.00210606
-0.000256036
-0.00205158
-0.000192544
-0.00200979
-0.000165701
-0.00197516
-0.000157371
-0.00194228
-0.000158504
-0.00190631
-0.000165146
-0.00186317
-0.000175839
-0.00180996
-0.000189459
-0.00174467
-0.000205166
-0.00166567
-0.000222273
-0.00157147
-0.000240227
-0.00146044
-0.000258576
-0.00133098
-0.000276903
-0.00118165
-0.000294794
-0.00101168
-0.000311808
-0.000821274
-0.000327507
-0.000611788
-0.000341455
-0.000385563
-0.000353252
-0.000145624
-0.000362605
0.000104837
-0.000369433
0.00036248
-0.000373902
0.000623953
-0.000376349
0.000885904
-0.00037723
0.00114495
-0.000377057
0.00139811
-0.000376241
0.00164271
-0.000375091
0.00187458
-0.000373855
0.00209144
-0.000372475
0.00229088
-0.000370904
0.00247084
-0.000369229
0.00262971
-0.000367622
0.00276627
-0.000366427
0.00287946
-0.000366185
0.00296813
-0.0003676
0.00303077
-0.000371423
0.00306525
-0.000378279
0.00306875
-0.000388515
0.00303821
-0.000402161
0.00297123
-0.000419097
0.00286765
-0.000439387
0.00273104
-0.000463565
0.00256922
-0.000492572
0.00239321
-0.000527233
0.00221487
-0.000567498
0.00204424
-0.000611988
0.00188804
-0.000658239
0.00174951
-0.00070355
0.00162928
-0.000745854
0.0015264
-0.000784115
0.00143928
-0.000818196
0.00136628
-0.000848504
0.00130595
-0.000875653
0.00125712
-0.000900292
0.00121888
-0.000923041
0.00119041
-0.000944492
0.00117093
-0.000965218
-0.000985808
0.00115957
0.000231821
-0.000207402
0.000557221
-0.000785324
0.000843929
-0.00131436
0.00124045
-0.00154489
0.0018951
-0.00145381
0.00279689
-0.00119533
0.00380805
-0.000890207
0.00474698
-0.000553475
0.0054248
-0.000110038
0.00566734
0.000469813
0.00539205
0.00109995
0.00467716
0.00157947
0.00378212
0.00172512
0.00300716
0.00152055
0.00254105
0.0011203
0.0023845
0.000709051
0.0024236
0.000391449
0.00250236
0.00018611
0.00248458
6.73879e-05
0.00229663
4.3689e-06
0.00195988
-1.91465e-05
0.00156772
-9.62639e-06
0.00120237
2.32428e-05
0.000882284
6.40516e-05
0.000591115
9.86239e-05
0.00030845
0.000116965
3.4706e-05
0.000116373
-0.000226052
0.000102254
-0.000467561
7.63621e-05
-0.000685913
4.25133e-05
-0.000879246
3.87484e-06
-0.00104633
-3.80816e-05
-0.00118559
-8.30155e-05
-0.00129516
-0.000130657
-0.001373
-0.000180736
-0.00141723
-0.000232676
-0.00142652
-0.000285502
-0.00140051
-0.000337816
-0.00134018
-0.000387831
-0.00124817
-0.00043347
-0.00112875
-0.000472672
-0.000987559
-0.000503796
-0.000830956
-0.000526036
-0.000665253
-0.000539604
-0.000496004
-0.000545598
-0.000327616
-0.000545619
-0.000163333
-0.00054134
-5.36096e-06
-0.000534212
0.000144878
-0.000525329
0.000286463
-0.00051544
0.000419015
-0.000505027
0.000542521
-0.00049441
0.000657132
-0.000483839
0.000763078
-0.000473567
0.000860541
-0.00046389
0.000949522
-0.000455166
0.00102974
-0.000447817
0.0011006
-0.000442281
0.00116127
-0.000438953
0.0012109
-0.000438148
0.00124892
-0.000440173
0.00127533
-0.000445513
0.001291
-0.000455057
0.00129752
-0.000470086
0.00129677
-0.00049182
0.00129025
-0.000520709
0.0012787
-0.000555948
0.00126233
-0.000595617
0.00124141
-0.000637325
0.00121679
-0.000678927
0.00118988
-0.00071894
0.00116235
-0.000756584
0.00113577
-0.00079162
0.0011114
-0.000824139
0.00109016
-0.000854408
0.00107264
-0.000882777
0.00105923
-0.000909628
0.0010501
-0.000935361
0.00104527
-0.000960383
-0.000985133
0.00104459
0.00049841
-0.000705813
0.0012012
-0.00148811
0.00171574
-0.0018289
0.00209466
-0.0019238
0.00246041
-0.00181956
0.00283067
-0.0015656
0.00317049
-0.00123003
0.00342823
-0.000811213
0.00359639
-0.000278199
0.00368553
0.000380674
0.00368775
0.00109772
0.00357019
0.00169703
0.00332622
0.00196909
0.00300239
0.00184437
0.00266459
0.00145811
0.00236687
0.00100677
0.00213634
0.000621983
0.00197101
0.000351445
0.00184629
0.000192103
0.00172815
0.000122508
0.00158882
0.00012018
0.00141319
0.00016601
0.00119434
0.00024209
0.000929098
0.000329295
0.000619662
0.00040806
0.000274352
0.000462275
-9.21111e-05
0.000482836
-0.000458892
0.000469035
-0.00080849
0.00042596
-0.00112493
0.000358953
-0.00139728
0.000276227
-0.00161881
0.000183448
-0.00178664
8.48113e-05
-0.00190075
-1.6544e-05
-0.00196329
-0.000118197
-0.00197786
-0.000218104
-0.001949
-0.000314365
-0.00188185
-0.000404961
-0.00178226
-0.000487421
-0.00165703
-0.000558706
-0.00151434
-0.000615358
-0.00136362
-0.000654522
-0.00121444
-0.000675213
-0.00107501
-0.000679035
-0.000950806
-0.0006698
-0.000844158
-0.000652266
-0.000754702
-0.000630796
-0.000680325
-0.000608589
-0.000618057
-0.000587597
-0.000564669
-0.000568827
-0.000517007
-0.000552689
-0.000472151
-0.000539267
-0.000427488
-0.000528502
-0.000380786
-0.000520269
-0.000330229
-0.000514447
-0.000274436
-0.000510958
-0.000212465
-0.000509788
-0.000143763
-0.000510983
-6.80867e-05
-0.00051463
1.45956e-05
-0.00052083
0.000104099
-0.000529676
0.000199834
-0.000541248
0.000300395
-0.000555618
0.00040314
-0.000572832
0.000504151
-0.000592832
0.000598824
-0.000615382
0.000682925
-0.000640049
0.000753587
-0.000666279
0.000809777
-0.000693515
0.000852132
-0.000721282
0.000882411
-0.00074922
0.000902899
-0.000777073
0.000915954
-0.000804675
0.000923751
-0.000831936
0.000928169
-0.000858826
0.000930758
-0.000885365
0.000932746
-0.000911616
0.000935067
-0.000937682
0.000938385
-0.000963701
-0.000989867
0.00094312
-0.000250597
-0.000455216
-0.00052813
-0.00121058
-0.000593742
-0.00176328
-0.000621496
-0.00189605
-0.000849674
-0.00159138
-0.00129173
-0.00112354
-0.00182135
-0.000700408
-0.0022823
-0.000350255
-0.00250353
-5.69702e-05
-0.00230346
0.000180605
-0.00157715
0.000371406
-0.000392903
0.000512788
0.000992081
0.000584108
0.0022499
0.000586554
0.00317019
0.000537822
0.00371091
0.000466038
0.00393743
0.000395468
0.00394282
0.000346054
0.00381575
0.000319172
0.00362638
0.00031188
0.00342764
0.000318918
0.00325902
0.000334631
0.00314725
0.000353856
0.00310451
0.00037204
0.00312733
0.000385241
0.00319966
0.00038994
0.00329942
0.000383083
0.00340485
0.000363597
0.00349958
0.000331231
0.00357179
0.000286745
0.00361591
0.000232106
0.00363005
0.000169312
0.00361391
0.000100951
0.00356735
3.00182e-05
0.00348965
-4.0506e-05
0.00337964
-0.000108089
0.00323632
-0.000171044
0.00305911
-0.000227754
0.00284622
-0.000274534
0.00260262
-0.000315101
0.00233571
-0.000348452
0.00205503
-0.000373841
0.00177126
-0.000391441
0.00149496
-0.000402738
0.00123538
-0.000410216
0.000999597
-0.000416485
0.000792271
-0.00042347
0.000615771
-0.000432089
0.000470594
-0.000442421
0.000355854
-0.000454088
0.000269755
-0.000466589
0.000209975