/*--------------------------------*- C++ -*----------------------------------*\
| =========                 |                                                 |
| \\      /  F ield         | OpenFOAM: The Open Source CFD Toolbox           |
|  \\    /   O peration     | Version:  2012                                  |
|   \\  /    A nd           | Website:  www.openfoam.com                      |
|    \\/     M anipulation  |                                                 |
\*---------------------------------------------------------------------------*/
FoamFile
{
    version     2.0;
    format      ascii;
    class       surfaceScalarField;
    location    "0.85";
    object      phi;
}
// * * * * * * * * * * * * * * * * * * * * * * * * * * * * * * * * * * * * * //

dimensions      [0 3 -1 0 0 0 0];
oriented        oriented;


internalField   nonuniform List<scalar> 
84340
(
0.000922675
-0.000419157
-0.000503517
0.00224448
-0.000600761
-0.000721044
0.00334186
-0.000427602
-0.000669777
0.00421164
-0.000216253
-0.000653524
0.00496394
-5.78476e-05
-0.000694456
0.00565993
7.32996e-05
-0.000769284
0.00631498
0.000204084
-0.000859136
0.00691821
0.00034656
-0.000949794
0.00746053
0.000491735
-0.00103405
0.007945
0.000625424
-0.00110989
0.00837075
0.000736413
-0.00116217
0.00873533
0.000806551
-0.00117113
0.00900698
0.000824962
-0.0010966
0.00913636
0.000781135
-0.000910518
0.0090692
0.000683991
-0.00061683
0.00874984
0.000567306
-0.000247949
0.00813681
0.0004734
0.00013963
0.00722179
0.000435331
0.000479691
0.0060438
0.000451627
0.000726364
0.00469277
0.000484351
0.000866673
0.00328705
0.000489777
0.000915941
0.00195072
0.000452301
0.000884033
0.000781204
0.000380203
0.000789313
-0.000170014
0.000283042
0.000668175
-0.000900567
0.000167691
0.000562862
-0.00144991
5.17434e-05
0.000497603
-0.00184648
-5.32699e-05
0.00044984
-0.00211458
-0.000137278
0.000405377
-0.00228568
-0.000176508
0.000347602
-0.00238415
-0.000182434
0.000280907
-0.00242883
-0.000171448
0.000216131
-0.00242912
-0.000156537
0.000156821
-0.0023927
-0.000144615
0.000108195
-0.00232575
-0.000138157
7.12098e-05
-0.0022341
-0.000137801
4.61501e-05
-0.00212486
-0.000143152
3.39104e-05
-0.00200247
-0.000153487
3.11044e-05
-0.00187023
-0.000168176
3.59291e-05
-0.00173011
-0.000186627
4.65095e-05
-0.00158335
-0.000208023
6.12603e-05
-0.00143283
-0.000231815
8.13036e-05
-0.00128088
-0.000257147
0.000105192
-0.001128
-0.000283156
0.000130279
-0.000975276
-0.000309068
0.000156341
-0.000823686
-0.000334216
0.000182626
-0.000674121
-0.0003581
0.000208535
-0.000527369
-0.000380309
0.000233556
-0.000384165
-0.000400605
0.0002574
-0.000245061
-0.000418846
0.000279742
-0.00011057
-0.000434971
0.000300479
1.86005e-05
-0.000448962
0.000319791
0.000141733
-0.000460789
0.000337656
0.000258055
-0.000470413
0.000354091
0.000366737
-0.000477791
0.000369108
0.000466914
-0.000482907
0.000382729
0.000557691
-0.000485795
0.000395019
0.000638151
-0.000486574
0.000406115
0.00070739
-0.00048549
0.000416251
0.00076452
-0.000482939
0.000425809
0.000808703
-0.000479515
0.000435333
0.000839209
-0.000476058
0.000445553
0.000855496
-0.00047368
0.000457393
0.000857323
-0.000473779
0.000471952
0.000844868
-0.000478009
0.000490463
0.000818846
-0.000488203
0.000514224
0.000780594
-0.00050626
0.000544512
0.000732114
-0.000533997
0.000582478
0.000676069
-0.000572986
0.000629031
0.000615733
-0.000624388
0.000684724
0.000554899
-0.000688797
0.000749631
0.000497742
-0.000766084
0.000823241
0.000448613
-0.000855256
0.000904385
0.000411764
-0.000954344
0.000991193
0.000390967
-0.00106033
0.00108113
0.000389023
-0.00116917
0.00117112
0.000407173
-0.00127592
0.00125777
0.000444421
-0.00137504
0.00133779
0.000497053
-0.00146113
0.00140849
0.000558771
-0.00153052
0.0014688
-0.00158294
0.00152239
0.000619319
-0.000347632
-7.15255e-05
-0.000901055
-4.73378e-05
-0.00136759
3.89364e-05
-0.00162111
3.72638e-05
-0.00161503
-6.39293e-05
-0.00134343
-0.000198304
-0.000841826
-0.000297516
-0.000175619
-0.000319647
0.000572992
-0.000256876
0.0013264
-0.000127986
0.00202341
3.94059e-05
0.0026163
0.000213658
0.00307491
0.000366359
0.00337912
0.000476924
0.00352475
0.000538356
0.00352405
0.000568003
0.00340912
0.000588335
0.00323207
0.000612381
0.00304587
0.000637826
0.00287876
0.00065146
0.00272719
0.000641348
0.00257453
0.00060496
0.00240699
0.000547743
0.00221258
0.000477448
0.00197841
0.000401868
0.00170072
0.000329428
0.001379
0.000268451
0.00101786
0.000223868
0.000647959
0.000193389
0.000297189
0.000168335
-1.45509e-05
0.000140293
-0.000278316
0.000107228
-0.00049048
6.75494e-05
-0.000653438
2.48005e-05
-0.000769301
-2.19382e-05
-0.000841034
-7.14192e-05
-0.000871745
-0.000122776
-0.000864738
-0.000175183
-0.000823565
-0.0002278
-0.000751876
-0.000279712
-0.000653767
-0.000329924
-0.000533516
-0.000377398
-0.000395502
-0.000421169
-0.00024413
-0.000460441
-8.36371e-05
-0.000494709
8.20669e-05
-0.000523804
0.000249637
-0.000547879
0.000416384
-0.000567352
0.000580343
-0.000582804
0.000740222
-0.00059485
0.000895276
-0.000604016
0.00104513
-0.000610644
0.00118956
-0.000614843
0.00132828
-0.000616511
0.00146078
-0.000615408
0.00158626
-0.000611268
0.00170359
-0.000603905
0.00181139
-0.000593294
0.00190809
-0.000579634
0.00199195
-0.00056338
0.00206118
-0.000545287
0.00211395
-0.000526456
0.00214854
-0.000508365
0.00216342
-0.000492889
0.00215748
-0.000482266
0.00213022
-0.000478994
0.00208189
-0.000485674
0.00201371
-0.000504806
0.00192788
-0.000538558
0.00182763
-0.000588545
0.00171717
-0.000655622
0.0016016
-0.00073969
0.00148679
-0.000839527
0.00137911
-0.00095265
0.00128511
-0.00107518
0.00121097
-0.00120177
0.00116162
-0.00132569
0.00114003
-0.00143954
0.0011454
-0.00153589
-0.00161603
0.00117849
-0.000504849
0.000433324
-0.00123735
0.00068516
-0.00183279
0.000634375
-0.0023144
0.000518879
-0.00278398
0.00040565
-0.00328204
0.000299754
-0.00379166
0.000212105
-0.00426096
0.000149657
-0.00462711
0.000109272
-0.00483593
8.08362e-05
-0.00485368
5.71562e-05
-0.00468217
4.21396e-05
-0.00436442
4.86144e-05
-0.00396728
7.97878e-05
-0.00357281
0.000143882
-0.00323293
0.000228127
-0.00296064
0.000316039
-0.00274118
0.000392926
-0.00255129
0.000447934
-0.00237488
0.000475047
-0.00220693
0.000473395
-0.0020487
0.000446732
-0.00190247
0.000401521
-0.00176991
0.000344887
-0.00165195
0.000283906
-0.00154692
0.0002244
-0.00144886
0.000170393
-0.00134862
0.000123619
-0.00123847
8.32475e-05
-0.00111739
4.72563e-05
-0.000990528
1.34259e-05
-0.000862036
-2.12636e-05
-0.00073569
-5.8797e-05
-0.000608194
-0.000102696
-0.000483118
-0.000147014
-0.00036388
-0.000190657
-0.000242989
-0.000243667
-0.000116785
-0.000301387
1.69774e-05
-0.000361563
0.000159186
-0.00042192
0.000309283
-0.000480021
0.000465323
-0.000533438
0.000624246
-0.000580092
0.00078231
-0.000618504
0.000935613
-0.000648012
0.00108071
-0.000668901
0.00121523
-0.000682397
0.00133834
-0.000690464
0.00145101
-0.000695473
0.00155593
-0.000699766
0.00165709
-0.000705177
0.0017591
-0.000712654
0.00186633
-0.000722079
0.00198218
-0.000732354
0.0021085
-0.000741729
0.00224549
-0.000748257
0.00239178
-0.000750198
0.00254479
-0.000746304
0.00270109
-0.00073593
0.00285674
-0.000719035
0.00300758
-0.000696126
0.00314933
-0.000668203
0.00327769
-0.000636722
0.00338838
-0.000603579
0.0034772
-0.000571094
0.00354018
-0.000541971
0.00357372
-0.000519209
0.00357488
-0.000505965
0.00354169
-0.000505371
0.00347346
-0.000520317
0.00337106
-0.000553219
0.00323716
-0.000605789
0.00307641
-0.000678781
0.0028955
-0.000771738
0.00270298
-0.00088266
0.00250897
-0.00100777
0.00232407
-0.0011408
0.00215887
-0.00127433
0.00201762
-0.00139464
-0.00151372
0.0019153
0.000643727
-0.000210403
0.00159798
-0.000269094
0.00241437
-0.000182016
0.00299799
-6.47403e-05
0.00331857
8.50771e-05
0.00337416
0.00024416
0.00321189
0.000374372
0.00292917
0.000432378
0.00264708
0.000391367
0.00245838
0.000269536
0.00240949
0.000106042
0.00250516
-5.3535e-05
0.00271099
-0.000157208
0.00296745
-0.000176672
0.00322385
-0.000112522
0.00344124
1.07364e-05
0.00359886
0.000158415
0.00369243
0.000299364
0.00372739
0.000412966
0.00371304
0.0004894
0.00365966
0.000526776
0.00357828
0.000528112
0.00348069
0.000499113
0.00337888
0.0004467
0.00328444
0.00037834
0.00320758
0.000301265
0.00315637
0.000221597
0.00313613
0.000143863
0.0031481
7.12803e-05
0.00318753
7.82528e-06
0.00325417
-5.32201e-05
0.00334202
-0.000109111
0.00344295
-0.000159726
0.00354672
-0.000206465
0.0036496
-0.000249897
0.00375133
-0.000292381
0.00384231
-0.000334649
0.00391769
-0.000376774
0.0039743
-0.000418164
0.00400998
-0.00045761
0.00402341
-0.000493448
0.00401385
-0.000523879
0.00398102
-0.000547258
0.00392498
-0.00056247
0.00384634
-0.000569367
0.00374648
-0.000569037
0.00362799
-0.000563916
0.00349522
-0.000557685
0.00335449
-0.000554752
0.00321422
-0.000559493
0.00308419
-0.000575145
0.00297421
-0.000602676
0.00289263
-0.000640496
0.00284515
-0.000684873
0.00283436
-0.00073094
0.00285997
-0.000773865
0.00291949
-0.000809726
0.00300913
-0.000835937
0.00312443
-0.000851234
0.00326082
-0.000855423
0.00341375
-0.000849063
0.00357875
-0.000833198
0.00375122
-0.000809188
0.00392626
-0.000778627
0.00409851
-0.000743336
0.0042619
-0.000705364
0.0044097
-0.000667008
0.00453455
-0.000630816
0.00462876
-0.000599578
0.00468472
-0.000576283
0.00469556
-0.000564051
0.0046558
-0.00056603
0.00456223
-0.000585215
0.00441474
-0.000624243
0.00421693
-0.000684856
0.00397694
-0.000767773
0.00370647
-0.000870323
0.00342243
-0.000990293
0.00313518
-0.00110739
-0.00125181
0.00287328
-0.000193031
-1.73718e-05
-0.000405781
-5.63438e-05
-0.000531988
-5.58098e-05
-0.000604534
7.80609e-06
-0.000622147
0.00010269
-0.000570403
0.000192416
-0.000436787
0.000240756
-0.000233451
0.000229043
-8.2078e-06
0.000166123
0.000197804
6.35247e-05
0.000354334
-5.04886e-05
0.000448572
-0.000147773
0.000503796
-0.000212432
0.000568135
-0.000241012
0.000694346
-0.000238733
0.000918419
-0.000213337
0.00124964
-0.000172808
0.00167275
-0.000123742
0.00215748
-7.17662e-05
0.00266843
-2.15453e-05
0.00317241
2.27909e-05
0.00364291
5.76122e-05
0.00406193
8.0095e-05
0.00442033
8.82953e-05
0.0047169
8.17749e-05
0.00495733
6.08317e-05
0.00515125
2.76753e-05
0.00531394
-1.88232e-05
0.00546147
-7.62539e-05
0.00560993
-0.000140631
0.00576158
-0.000204876
0.00591345
-0.000260979
0.00605742
-0.000303689
0.00618331
-0.000332361
0.00628275
-0.000349331
0.00634852
-0.000358153
0.00637589
-0.00036202
0.00636195
-0.000362832
0.00630515
-0.000361362
0.00620529
-0.000357757
0.00606339
-0.000351544
0.0058817
-0.000342183
0.00566399
-0.000329549
0.00541555
-0.000314036
0.00514326
-0.000297076
0.00485525
-0.000281022
0.00456074
-0.00026941
0.0042698
-0.000266748
0.00399304
-0.000277994
0.00374108
-0.000307531
0.00352267
-0.000356732
0.0033437
-0.000423704
0.00320675
-0.000503551
0.00311133
-0.000589448
0.00305469
-0.000674297
0.00303299
-0.000752171
0.00304234
-0.000819076
0.0030794
-0.000872997
0.00314162
-0.000913454
0.00322711
-0.000940909
0.00333429
-0.000956245
0.00346154
-0.000960443
0.00360679
-0.000954442
0.0037673
-0.000939138
0.00393942
-0.000915456
0.00411849
-0.000884437
0.00429882
-0.000847334
0.00447369
-0.000805692
0.00463551
-0.000761397
0.00477594
-0.000716709
0.00488616
-0.000674275
0.00495726
-0.000637124
0.00498067
-0.000608627
0.00494891
-0.000592488
0.00485642
-0.000592357
0.00470078
-0.000612136
0.00448352
-0.000653061
0.00421241
-0.00071919
0.00389852
-0.000793498
-0.000913354
0.00356006
-1.34582e-05
-3.91366e-06
-1.25263e-05
-5.72758e-05
8.21428e-05
-0.000150479
0.00028503
-0.000195081
0.000560742
-0.000173022
0.000901322
-0.000148164
0.00129229
-0.000150215
0.00169489
-0.000173556
0.00206294
-0.000201924
0.00235914
-0.000232674
0.00256594
-0.000257292
0.00269812
-0.000279954
0.00278939
-0.000303704
0.00287191
-0.000323523
0.00297483
-0.00034166
0.00311821
-0.000356713
0.00331077
-0.000365372
0.00355053
-0.000363496
0.00382823
-0.000349469
0.00412933
-0.000322644
0.00443512
-0.000282997
0.00472432
-0.000231587
0.00497534
-0.000170924
0.00516913
-0.000105497
0.00529346
-4.25603e-05
0.00534629
8.00428e-06
0.00533909
3.48801e-05
0.00529089
2.93701e-05
0.0052275
-1.28566e-05
0.00518082
-9.39521e-05
0.00517513
-0.000199185
0.00522036
-0.000306219
0.00531261
-0.000395933
0.00543791
-0.000457666
0.00557482
-0.000486242
0.00569909
-0.000482421
0.00579167
-0.000454599
0.00583728
-0.000408444
0.00582547
-0.00034955
0.00575037
-0.000282656
0.00561089
-0.000212071
0.00541084
-0.000142128
0.00515652
-7.52292e-05
0.00485616
-1.36806e-05
0.00452888
3.02081e-05
0.00419493
5.29267e-05
0.00387556
4.99644e-05
0.00358108
2.77327e-05
0.00331426
-1.11831e-05
0.00309046
-8.3726e-05
0.00291202
-0.000178295
0.00277534
-0.00028702
0.00267347
-0.000401687
0.00259866
-0.000514637
0.0025443
-0.000619938
0.0025061
-0.000713965
0.00248227
-0.000795248
0.00247309
-0.000863816
0.00248005
-0.000920418
0.00250505
-0.000965906
0.0025497
-0.0010009
0.00261493
-0.00102568
0.00270076
-0.00104027
0.00280616
-0.00104454
0.0029291
-0.0010384
0.00306652
-0.00102186
0.00321443
-0.000995239
0.00336796
-0.00095922
0.00352151
-0.000914953
0.00366892
-0.000864111
0.00380357
-0.000808926
0.00391862
-0.000752178
0.00400714
-0.000697144
0.00406217
-0.000647517
0.00407694
-0.000607134
0.00404477
-0.000579968
0.00396057
-0.000568862
0.00381943
-0.000578044
0.00362882
-0.000602886
-0.000666446
0.00338191
-0.000254876
0.000250962
-0.00075721
0.000445058
-0.00138963
0.000481945
-0.00207356
0.000488841
-0.0027295
0.000482928
-0.00331601
0.000438343
-0.00381521
0.000348984
-0.00424082
0.000252057
-0.00460214
0.000159394
-0.00485339
1.85716e-05
-0.00490211
-0.000208574
-0.0046946
-0.000487462
-0.00424274
-0.000755559
-0.00359165
-0.00097462
-0.00279791
-0.0011354
-0.00191334
-0.00124128
-0.00098066
-0.00129805
-3.32468e-05
-0.00131091
0.000902193
-0.00128491
0.00180381
-0.00122426
0.0026524
-0.00113158
0.00342872
-0.00100791
0.00411301
-0.000855214
0.00467179
-0.000664275
0.00507277
-0.000443537
0.00529127
-0.0002105
0.00531369
1.2464e-05
0.00513666
0.0002064
0.00479108
0.00033272
0.0043181
0.000379029
0.00377075
0.000348168
0.0031994
0.000265126
0.00264954
0.000153936
0.0021471
4.47669e-05
0.0017051
-4.42398e-05
0.00132765
-0.000104968
0.00101092
-0.000137867
0.000750473
-0.000147999
0.00054248
-0.000141556
0.00038303
-0.000123206
0.000271941
-0.000100982
0.000210466
-8.06522e-05
0.000197392
-6.21552e-05
0.000232912
-4.92002e-05
0.000308893
-4.57727e-05
0.000417262
-5.54426e-05
0.000553589
-8.6362e-05
0.000708559
-0.000127237
0.000879254
-0.000181877
0.00104474
-0.000249216
0.00119206
-0.000325607
0.00131169
-0.000406655
0.00139838
-0.000488375
0.0014516
-0.000567857
0.00147517
-0.000643508
0.00147599
-0.000714782
0.00146242
-0.000781674
0.00144281
-0.000844208
0.00142452
-0.000902134
0.00141345
-0.000954831
0.00141392
-0.00100137
0.00142887
-0.00104062
0.00145996
-0.00107136
0.00150782
-0.0010924
0.00157207
-0.00110265
0.00165148
-0.00110127
0.00174401
-0.00108777
0.00184689
-0.0010621
0.00195671
-0.00102477
0.00206945
-0.000976849
0.00218055
-0.000920031
0.00228501
-0.000856633
0.00237745
-0.000789586
0.00245229
-0.000722355
0.00250395
-0.000658801
0.00252711
-0.000603123
0.00251851
-0.00056026
0.00247692
-0.00053646
0.00241292
-0.000538884
-0.000574435
0.00232091
0.000509578
-0.000258615
0.00133511
-0.000380477
0.00206629
-0.000249233
0.00252735
2.77772e-05
0.00257358
0.0004367
0.00208751
0.000924416
0.00114162
0.00129488
8.06379e-05
0.00131304
-0.00067918
0.000919212
-0.000944747
0.000284139
-0.000833529
-0.000319792
-0.000580065
-0.000740925
-0.000373741
-0.000961883
-0.000297137
-0.00105122
-0.000368615
-0.00106392
-0.000570117
-0.00103978
-0.000867143
-0.00100102
-0.00121923
-0.000958818
-0.00158509
-0.000919056
-0.0019254
-0.000883948
-0.00220576
-0.000851226
-0.00240008
-0.000813587
-0.00250039
-0.000754909
-0.00250744
-0.000657225
-0.00244409
-0.000506884
-0.00234427
-0.000310324
-0.00223455
-9.72517e-05
-0.0021212
9.30416e-05
-0.00200727
0.000218797
-0.00189959
0.000271345
-0.00180412
0.000252696
-0.00171958
0.000180588
-0.00164437
7.8729e-05
-0.00157279
-2.68197e-05
-0.00149876
-0.00011827
-0.00141864
-0.000185085
-0.00133089
-0.00022562
-0.00123484
-0.00024405
-0.00112953
-0.000246861
-0.00101229
-0.000240444
-0.000883078
-0.000230198
-0.000743556
-0.000220175
-0.000592325
-0.000213386
-0.000429366
-0.00021216
-0.000256984
-0.000218155
-8.00373e-05
-0.00023239
8.85282e-05
-0.000254928
0.000246241
-0.00028495
0.000385797
-0.000321434
0.000499664
-0.000363084
0.000582722
-0.000408664
0.000633288
-0.000457221
0.000653174
-0.00050826
0.000646947
-0.00056163
0.000620678
-0.000617238
0.000580655
-0.000674759
0.000532468
-0.000733487
0.000480618
-0.000792359
0.000428541
-0.000850057
0.00037896
-0.00090525
0.000334084
-0.000956495
0.000295809
-0.00100235
0.000265771
-0.00104133
0.000245315
-0.00107194
0.000235432
-0.00109277
0.000236707
-0.00110254
0.000249279
-0.00110034
0.000272833
-0.00108566
0.000306574
-0.00105851
0.0003492
-0.00101948
0.000398876
-0.000969708
0.000453391
-0.000911147
0.000510551
-0.000846746
0.0005689
-0.000780704
0.000628481
-0.000718383
0.000691441
-0.000666082
0.000761649
-0.000630468
0.000843289
-0.0006181
0.000938297
-0.000633892
-0.00067749
0.00104135
-1.33307e-05
-0.000245285
0.00021225
-0.000606057
0.000831221
-0.000868204
0.001769
-0.000909998
0.00279507
-0.000589373
0.00364545
7.40361e-05
0.00415996
0.000780362
0.00436631
0.00110669
0.00444863
0.00083689
0.00454645
0.000186322
0.0046514
-0.000424741
0.004658
-0.000747529
0.00449273
-0.000796611
0.00411434
-0.000672837
0.00355695
-0.000506533
0.00289221
-0.000375037
0.00218796
-0.000296771
0.00148265
-0.000253513
0.000790462
-0.000226868
0.000120306
-0.000213793
-0.000515232
-0.000215688
-0.0011052
-0.000223616
-0.00164225
-0.000217857
-0.00212568
-0.000173805
-0.00254116
-9.13996e-05
-0.0028702
1.87152e-05
-0.00309222
0.00012477
-0.00320427
0.00020509
-0.00322809
0.000242622
-0.00319269
0.000235939
-0.00311719
0.000177194
-0.00302308
8.64786e-05
-0.00290809
-3.62539e-05
-0.00277986
-0.000155051
-0.00263681
-0.00026132
-0.00247831
-0.000343584
-0.0023069
-0.000397034
-0.00212634
-0.000424607
-0.00193967
-0.000433529
-0.00174914
-0.000430973
-0.00155704
-0.0004223
-0.00136584
-0.000411375
-0.00117812
-0.00040111
-0.000996644
-0.000393633
-0.000824407
-0.000390392
-0.000664618
-0.000392179
-0.000520313
-0.000399233
-0.000393779
-0.000411484
-0.00028655
-0.000428662
-0.000199163
-0.000450472
-0.000131209
-0.000476618
-8.16128e-05
-0.000506818
-4.91212e-05
-0.000540752
-3.2733e-05
-0.000578019
-3.18627e-05
-0.000618109
-4.62039e-05
-0.000660418
-7.54076e-05
-0.000704284
-0.000118752
-0.000749014
-0.000174887
-0.000793923
-0.000241966
-0.000838171
-0.000317569
-0.000880893
-0.000398882
-0.000921033
-0.000482846
-0.000957363
-0.00056627
-0.000988521
-0.000645932
-0.0010131
-0.000718648
-0.00102983
-0.000781295
-0.00103769
-0.000830781
-0.00103617
-0.000863995
-0.0010253
-0.000877766
-0.0010057
-0.00086884
-0.000978634
-0.000834013
-0.000945974
-0.000770371
-0.000910387
-0.000675701
-0.000875375
-0.000548927
-0.000845156
-0.000391058
-0.000823952
-0.000206228
-0.000815297
-3.07175e-06
-0.000821257
0.000205433
-0.000842397
-0.000879523
0.000407466
-0.000642208
0.000396923
-0.00172171
0.000473444
-0.00276755
0.000177637
-0.00354606
-0.000131485
-0.00385798
-0.000277457
-0.00359052
-0.000193421
-0.00284657
3.64094e-05
-0.00196329
0.00022341
-0.0013394
0.000213006
-0.001156
2.91916e-06
-0.00131623
-0.000264512
-0.00160639
-0.000457364
-0.00187658
-0.000526421
-0.00207047
-0.000478955
-0.00216903
-0.000407968
-0.00213099
-0.000413075
-0.00193061
-0.000497154
-0.00159945
-0.000584674
-0.00119131
-0.000635008
-0.000738047
-0.000667054
-0.000257622
-0.000696113
0.000217625
-0.000698864
0.000648694
-0.000648925
0.00102115
-0.000546264
0.00135079
-0.00042104
0.0016344
-0.000264895
0.00187883
-0.000119659
0.00208827
-4.34923e-06
0.00225038
8.05168e-05
0.00235098
0.000135335
0.00236564
0.000162533
0.00228716
0.000164955
0.00210633
0.000144578
0.00184528
0.000105998
0.00153193
5.20353e-05
0.00119951
-1.11628e-05
0.000883967
-8.14942e-05
0.000600256
-0.000140897
0.000358734
-0.000192007
0.00016634
-0.000238579
1.96394e-05
-0.000275599
-8.75535e-05
-0.000304183
-0.000161573
-0.00032709
-0.000207985
-0.000347221
-0.000231758
-0.000366619
-0.000237533
-0.000386404
-0.000229701
-0.000407065
-0.000212351
-0.000428834
-0.000189167
-0.000451846
-0.000163426
-0.000476212
-0.000138009
-0.000502035
-0.000115463
-0.000529364
-9.80312e-05
-0.000558184
-8.76351e-05
-0.000588415
-8.58247e-05
-0.000619919
-9.37241e-05
-0.000652519
-0.000112008
-0.000685999
-0.000140914
-0.000720109
-0.000180292
-0.000754545
-0.000229516
-0.000788948
-0.000287517
-0.000822892
-0.000352674
-0.000855876
-0.000422739
-0.000887299
-0.000494821
-0.000916439
-0.000565465
-0.000942461
-0.000630824
-0.000964468
-0.000686892
-0.000981623
-0.000729745
-0.000993317
-0.000755698
-0.000999345
-0.000761403
-0.001
-0.000743966
-0.000996071
-0.000701172
-0.000988767
-0.000631927
-0.000979632
-0.000536786
-0.000970517
-0.000418491
-0.000963452
-0.000281985
-0.000960458
-0.000134048
-0.000963234
1.76339e-05
-0.000972939
0.000165487
-0.00099025
-0.00101667
0.000302637
0.000854742
-0.000457819
0.00198454
-0.000656356
0.0026955
-0.000533319
0.00296291
-0.000398895
0.00302198
-0.000336532
0.00314218
-0.000313617
0.00350713
-0.000328545
0.00411643
-0.000385888
0.00479787
-0.000468429
0.00535226
-0.000551474
0.0056792
-0.000591457
0.00584447
-0.000622629
0.00595166
-0.000633612
0.00601174
-0.000539032
0.00589396
-0.000290195
0.00548437
-3.4853e-06
0.00478832
0.000198903
0.00389205
0.000311589
0.00290839
0.000348651
0.0019785
0.000262838
0.0012518
3.05923e-05
0.000799924
-0.00024699
0.000577903
-0.000426903
0.000497678
-0.000466039
0.000490968
-0.00041433
0.000551025
-0.000324952
0.000657694
-0.000226328
0.00077279
-0.000119446
0.000871917
-1.86101e-05
0.000932701
7.45515e-05
0.000938748
0.000156486
0.000881588
0.000222115
0.000763823
0.000262343
0.000600753
0.000269067
0.000414167
0.000238621
0.000228963
0.000174042
6.25211e-05
8.49473e-05
-6.8974e-05
-9.40142e-06
-0.000164821
-9.61591e-05
-0.000230441
-0.000172959
-0.000273541
-0.0002325
-0.000299231
-0.000278493
-0.000311353
-0.000314968
-0.000312982
-0.000345592
-0.000306535
-0.000373066
-0.000293867
-0.000399072
-0.000276388
-0.000424544
-0.000255233
-0.000449989
-0.000231397
-0.000475683
-0.00020584
-0.000501769
-0.000179564
-0.000528311
-0.000153607
-0.000555321
-0.000129012
-0.00058278
-0.000106778
-0.000610648
-8.78309e-05
-0.000638866
-7.29965e-05
-0.000667353
-6.29985e-05
-0.000695997
-5.84543e-05
-0.000724654
-5.98598e-05
-0.000753139
-6.75672e-05
-0.00078124
-8.17418e-05
-0.000808717
-0.000102294
-0.000835324
-0.000128776
-0.000860816
-0.000160263
-0.000884952
-0.000195236
-0.000907487
-0.000231543
-0.00092816
-0.000266469
-0.000946697
-0.000296946
-0.00096284
-0.000319873
-0.000976417
-0.000332443
-0.00098743
-0.000332387
-0.000996127
-0.000318117
-0.00100304
-0.000288814
-0.00100894
-0.000244574
-0.00101476
-0.000186521
-0.0010215
-0.000116795
-0.00103018
-3.834e-05
-0.00104169
4.55633e-05
-0.00105684
0.000131883
-0.00107657
-0.00110201
0.000217215
-0.000260377
-0.000197442
-0.000509156
-0.000407577
-0.000585534
-0.000456941
-0.000538548
-0.000445881
-0.000385971
-0.000489109
-0.000116507
-0.000583082
0.000226257
-0.000671309
0.000523047
-0.000682678
0.000622768
-0.00056815
0.000402922
-0.000331629
-0.000148406
-4.01281e-05
-0.000939077
0.000168043
-0.00175016
0.000177466
-0.00237649
8.7305e-05
-0.00274898
8.22966e-05
-0.00294234
0.000189875
-0.00302879
0.00028535
-0.00303867
0.000321473
-0.00298338
0.000293357
-0.00289188
0.00017134
-0.00281958
-4.17093e-05
-0.00279753
-0.000269038
-0.00281113
-0.000413309
-0.00282584
-0.000451321
-0.00282053
-0.000419643
-0.00278973
-0.000355748
-0.00274149
-0.00027457
-0.00267578
-0.000185163
-0.00259414
-0.000100251
-0.00249613
-2.34529e-05
-0.00237651
3.68631e-05
-0.0022286
7.42031e-05
-0.00205206
8.58053e-05
-0.00185524
7.22454e-05
-0.00165373
3.71119e-05
-0.00146575
-1.39325e-05
-0.0013097
-7.1102e-05
-0.00118429
-0.000134812
-0.00108906
-0.000191396
-0.00102089
-0.000241124
-0.000968867
-0.000284522
-0.000924923
-0.000322437
-0.000884064
-0.000355827
-0.000844026
-0.00038563
-0.000804343
-0.000412749
-0.000765364
-0.000438052
-0.000727597
-0.000462311
-0.000691437
-0.000486149
-0.000657111
-0.000510008
-0.000624734
-0.000534146
-0.00059436
-0.000558684
-0.000566033
-0.000583648
-0.000539803
-0.00060901
-0.00051574
-0.000634712
-0.000493927
-0.000660679
-0.000474457
-0.000686823
-0.000457407
-0.000713047
-0.000442821
-0.00073924
-0.00043068
-0.00076528
-0.000420891
-0.000791029
-0.000413277
-0.00081633
-0.000407592
-0.00084101
-0.000403522
-0.000864887
-0.000400682
-0.000887793
-0.000398577
-0.000909592
-0.000396535
-0.000930202
-0.000393635
-0.000949597
-0.000388676
-0.000967799
-0.000380227
-0.000984866
-0.000366773
-0.00100088
-0.000346916
-0.00101598
-0.000319585
-0.00103037
-0.00028418
-0.00104434
-0.000240625
-0.00105831
-0.000189355
-0.00107277
-0.000131288
-0.00108825
-6.77235e-05
-0.00110525
-2.81167e-07
-0.00112428
6.91291e-05
-0.00114598
-0.00117122
0.000138342
-0.000301852
0.000104411
-0.00051897
-0.000190459
-0.000191685
-0.000784226
0.000586308
-0.00122387
0.0015148
-0.0014176
0.00235344
-0.00142173
0.00296414
-0.001282
0.00334448
-0.00106303
0.00356451
-0.000788173
0.00370268
-0.000469803
0.00379018
-0.000127627
0.0038218
0.000136423
0.00378466
0.000214608
0.00371556
0.000156401
0.00370867
8.91831e-05
0.00384831
5.02367e-05
0.00410947
2.41951e-05
0.00442596
4.98459e-06
0.00472393
-4.61636e-06
0.00489839
-3.12111e-06
0.00484716
9.51837e-06
0.00454362
3.4509e-05
0.00405727
7.30327e-05
0.00348357
0.000122381
0.00288826
0.000175672
0.00231013
0.00022238
0.00176748
0.000268082
0.00128214
0.000300169
0.00086439
0.000317504
0.00052149
0.000319446
0.00025179
0.000306563
4.59096e-05
0.000280084
-0.000109284
0.000240998
-0.000227241
0.000190203
-0.000318454
0.000128325
-0.000392363
5.99774e-05
-0.000456837
-6.62846e-06
-0.000517786
-7.38634e-05
-0.000578749
-0.000130433
-0.000631064
-0.00018881
-0.000671691
-0.000243894
-0.000700556
-0.000293572
-0.000719096
-0.000337286
-0.000729395
-0.000375331
-0.00073355
-0.000408594
-0.000733292
-0.00043831
-0.000729832
-0.000465771
-0.00072391
-0.000492071
-0.000715956
-0.000517962
-0.000706264
-0.000543838
-0.00069511
-0.000569838
-0.000682795
-0.000595964
-0.000669627
-0.000622177
-0.000655899
-0.000648439
-0.000641859
-0.000674718
-0.0006277
-0.000700982
-0.000613562
-0.000727186
-0.000599531
-0.000753271
-0.000585643
-0.000779168
-0.000571872
-0.000804799
-0.000558116
-0.000830086
-0.000544181
-0.000854946
-0.000529777
-0.000879291
-0.00051454
-0.00090303
-0.000498059
-0.000926071
-0.000479931
-0.00094833
-0.000459786
-0.000969741
-0.000437303
-0.000990283
-0.000412186
-0.00100998
-0.000384136
-0.00102893
-0.000352835
-0.00104728
-0.000317971
-0.00106523
-0.000279302
-0.00108301
-0.00023674
-0.00110087
-0.00019042
-0.00111909
-0.000140718
-0.00113795
-8.82212e-05
-0.00115775
-3.36749e-05
-0.00117883
2.20432e-05
-0.0012017
-0.00122698
7.78054e-05
0.000129335
-2.49242e-05
0.000247991
-0.000309116
0.000293143
-0.000829377
0.00022224
-0.00115297
-8.17826e-05
-0.00111357
-0.000657362
-0.00084615
-0.00139354
-0.00054582
-0.00209712
-0.000359451
-0.00255713
-0.000328161
-0.00263801
-0.000388921
-0.00230558
-0.000460062
-0.00166264
-0.000506511
-0.000919849
-0.000528188
-0.000234902
-0.000528546
0.000360696
-0.000506414
0.000872947
-0.000462014
0.00129371
-0.000396568
0.00161236
-0.000313662
0.00182954
-0.000221803
0.00195749
-0.000131072
0.00201224
-4.52296e-05
0.00200499
4.1761e-05
0.00193625
0.000141773
0.00179968
0.000258949
0.00158801
0.000387347
0.00129659
0.000513795
0.000944533
0.000620139
0.000563106
0.000681596
0.000180317
0.000700293
-0.000175679
0.000675442
-0.000485254
0.000616139
-0.000738009
0.000532838
-0.000931816
0.000434805
-0.00107214
0.000330526
-0.00117305
0.000229234
-0.00123309
0.000120023
-0.00125732
1.76027e-05
-0.00124583
-8.53556e-05
-0.00120677
-0.000169494
-0.0011564
-0.000239187
-0.00110381
-0.000296481
-0.0010541
-0.000343278
-0.00100979
-0.000381594
-0.000971648
-0.000413478
-0.000939265
-0.000440977
-0.000911535
-0.00046604
-0.000887004
-0.000490302
-0.000864209
-0.000514866
-0.00084197
-0.0005402
-0.000819551
-0.000566257
-0.000796657
-0.000592732
-0.000773323
-0.000619298
-0.000749761
-0.000645739
-0.000726238
-0.000671961
-0.000702996
-0.00069796
-0.000680214
-0.000723765
-0.000657998
-0.000749402
-0.000636391
-0.000774878
-0.000615386
-0.000800173
-0.000594938
-0.000825247
-0.000574977
-0.000850047
-0.000555408
-0.000874515
-0.000536098
-0.000898601
-0.000516863
-0.000922265
-0.000497446
-0.000945488
-0.000477511
-0.000968265
-0.000456646
-0.000990607
-0.000434389
-0.00101254
-0.000410277
-0.0010341
-0.000383886
-0.00105533
-0.000354884
-0.00107629
-0.000323054
-0.00109706
-0.000288307
-0.00111776
-0.000250681
-0.0011385
-0.00021034
-0.00115944
-0.000167558
-0.00118073
-0.000122722
-0.00120259
-7.63352e-05
-0.00122522
-2.90515e-05
-0.00124898
-0.00127432
1.82831e-05
0.000153679
-0.000178604
8.41681e-05
-0.000239604
-0.000454117
-0.000291092
-0.0012956
-0.000311491
-0.00221762
-0.000191548
-0.00307071
6.93493e-06
-0.00379217
0.000175642
-0.00441081
0.000259192
-0.00500549
0.000266512
-0.00561687
0.000222464
-0.00623553
0.000158599
-0.00681685
7.48098e-05
-0.00732104
-2.39975e-05
-0.00771356
-0.000136031
-0.00796342
-0.000256551
-0.0080512
-0.000374237
-0.00797527
-0.000472489
-0.00776041
-0.000528522
-0.00746633
-0.000515884
-0.0071699
-0.000427505
-0.00691436
-0.00030077
-0.0066831
-0.000189497
-0.00643748
-0.000103843
-0.00614925
-2.929e-05
-0.00580638
4.44811e-05
-0.00540401
0.000111427
-0.00494331
0.000159436
-0.00444512
0.000183406
-0.00391707
0.00017225
-0.00338253
0.000140904
-0.00286754
0.000101148
-0.00239037
5.56613e-05
-0.00195698
1.41491e-06
-0.00156843
-5.80183e-05
-0.00121977
-0.000119432
-0.000925759
-0.000173983
-0.000693901
-0.000214255