/*--------------------------------*- C++ -*----------------------------------*\
| =========                 |                                                 |
| \\      /  F ield         | OpenFOAM: The Open Source CFD Toolbox           |
|  \\    /   O peration     | Version:  2012                                  |
|   \\  /    A nd           | Website:  www.openfoam.com                      |
|    \\/     M anipulation  |                                                 |
\*---------------------------------------------------------------------------*/
FoamFile
{
    version     2.0;
    format      ascii;
    class       volScalarField;
    location    "0.89";
    object      p;
}
// * * * * * * * * * * * * * * * * * * * * * * * * * * * * * * * * * * * * * //

dimensions      [0 2 -2 0 0 0 0];


internalField   nonuniform List<scalar> 
42400
(
-6903.92
-6719.63
-6447.65
-6061.6
-5555.44
-4956.86
-4315.79
-3711.3
-3203.94
-2786.85
-2414.52
-2082.64
-1821.37
-1629.62
-1461.99
-1275.97
-1061.54
-827.845
-585.277
-342.552
-109.585
100.34
273.791
401.112
477.508
505
494.052
462.023
425.663
394.477
370.241
349.728
329.571
307.979
285.033
262.086
240.564
221.354
204.802
191.265
181.114
173.851
168.801
165.279
162.599
160.129
157.344
153.844
149.376
143.834
137.252
129.783
121.693
113.398
105.564
99.18
95.1549
93.8529
95.9636
101.618
110.543
121.657
133.225
143.105
149.514
151.861
150.315
145.892
139.611
132.301
124.648
117.131
110.061
103.375
97.1969
91.5465
86.3364
81.4927
76.945
72.5584
11204.9
11052.9
10873
10628.6
10290.6
9927.64
9545.84
9122.54
8631.94
8056.84
7390.85
6641.4
5842.61
5044.79
4289.27
3599.53
2987.73
2460.13
2018.1
1656.92
1365.48
1126.97
920.276
726.06
532.868
339.479
155.159
-3.82137
-119.673
-182.159
-194.203
-168.657
-121.015
-64.7946
-9.28371
40.3933
81.742
114.494
139.344
156.926
168.3
174.751
177.329
176.787
173.648
168.291
161.033
152.184
142.08
131.105
119.701
108.375
97.6944
88.2658
80.7142
75.6505
73.3856
74.3756
78.296
84.7431
93.1053
102.449
111.647
119.601
125.492
128.954
130.041
129.082
126.512
122.76
118.211
113.187
107.942
102.637
97.489
92.5086
87.768
83.3003
79.1102
75.169
-2571.61
-2182.47
-1650.62
-1106.52
-588.92
-184.721
155.649
470.833
748.967
970.612
1134.53
1250.41
1329.34
1380.56
1408.19
1413.12
1394.61
1350.92
1279.26
1178.28
1051.95
910.674
768.153
637.864
529.542
447.335
390.051
353.108
331.061
319.083
313.454
311.584
311.907
312.757
312.497
310.535
307.124
302.303
296.446
289.829
282.533
274.502
265.627
255.837
245.136
233.626
221.482
208.929
196.223
183.639
171.474
160.043
149.668
140.687
133.423
128.154
124.87
123.022
123.083
124.377
126.456
128.872
131.074
132.653
133.289
132.819
131.232
128.634
125.198
121.117
116.58
111.759
106.805
101.843
96.9816
92.2977
87.8438
83.6512
79.7399
76.1117
-6190.23
-6303.66
-6423.27
-6482.06
-6471.07
-6413.75
-6340.63
-6260.75
-6174.36
-6082.92
-5985.31
-5880.65
-5767.95
-5641.04
-5483.6
-5276.94
-5011.56
-4692.69
-4331.02
-3931.16
-3492.55
-3013.33
-2496.04
-1959.29
-1442.78
-991.411
-631.893
-364.53
-172.151
-33.3804
69.2301
147.787
209.479
257.818
294.257
319.745
335.658
343.432
345.041
342.346
336.876
329.723
321.581
312.846
303.737
294.369
284.795
275.036
265.102
255.015
244.826
234.622
224.532
214.717
205.37
196.677
188.781
181.73
175.145
169.171
163.812
158.88
154.195
149.602
144.979
140.248
135.377
130.367
125.245
120.054
114.847
109.68
104.613
99.7008
94.9915
90.5199
86.3075
82.3662
78.7058
75.3172
-1785.51
-1585.5
-1303.92
-961.773
-564.337
-153.513
258.909
659.401
1030.76
1360.07
1638.76
1850.96
1967.46
1966.74
1858.59
1681.21
1476.52
1274.16
1088.05
919.55
765.848
625.505
501.405
400.637
328.575
283.832
259.741
250.166
252.197
264.581
285.818
313.04
342.88
372.267
398.29
418.493
431.509
437.197
435.885
429.272
419.048
406.451
392.417
377.674
362.758
348.035
333.734
319.98
306.822
294.255
282.244
270.74
259.689
249.04
238.75
228.782
219.106
209.698
200.531
191.716
183.134
174.796
166.717
158.905
151.367
144.104
137.118
130.409
123.976
117.823
111.957
106.386
101.121
96.1683
91.528
87.1938
83.1552
79.4025
75.9341
72.7284
12919.1
12746.8
12525.7
12195.3
11694.8
11039.9
10225.9
9281.8
8307.4
7444.46
6760.93
6199.09
5690.25
5250.63
4919.52
4684.68
4492.33
4293.81
4073.11
3845.15
3626
3416.72
3204.64
2979.13
2748.37
2526.08
2318.37
2125.65
1944.3
1770.24
1601.96
1439.77
1285.41
1141.12
1009.28
891.898
790.15
704.054
632.554
573.784
525.382
485.437
452.318
424.603
401.093
380.793
362.892
346.737
331.822
317.766
304.308
291.282
278.595
266.208
254.111
242.308
230.803
219.602
208.712
198.14
187.892
177.981
168.431
159.258
150.484
142.127
134.201
126.713
119.67
113.072
106.919
101.202
95.9077
91.0122
86.4839
82.2886
78.3963
74.7893
71.4661
68.4034
-72.5892
-43.6845
-1.83408
47.9486
87.0277
108.583
120.617
162.276
289.284
519.841
808.752
1086.82
1307.25
1446.66
1484.92
1408.93
1234.21
1021.29
851.357
769.475
784.021
887.871
1037.52
1153
1181.09
1132.75
1051.72
974.244
915.467
873.881
842.002
814.14
786.921
758.438
727.845
695.069
660.412
624.445
588.446
553.341
519.653
487.748
457.873
430.169
404.663
381.281
359.867
340.217
322.12
305.381
289.839
275.362
261.84
249.164
237.23
225.931
215.163
204.835
194.87
185.216
175.844
166.749
157.831
149.227
140.949
133.013
125.45
118.284
111.538
105.227
99.3567
93.92
88.8959
84.2492
79.9365
75.9161
72.1601
68.6643
65.4478
62.5087
-5122.06
-5112.44
-5084.98
-5007.7
-4857.88
-4636.41
-4356.18
-4034.96
-3686.48
-3317.53
-2932.45
-2542.7
-2169.82
-1846.14
-1612.42
-1489.33
-1451.92
-1468.11
-1516.78
-1566.44
-1564.6
-1445.09
-1179.15
-821.542
-461.382
-147.293
114.495
327.904
493.431
608.159
672.678
694.287
684.111
653.999
612.552
565.848
518.378
472.913
431
393.353
360.16
331.296
306.452
285.227
267.196
251.927
239
228.011
218.591
210.41
203.183
196.667
190.661
185
179.546
174.185
168.824
163.393
157.842
152.146
146.302
140.32
134.347
128.303
122.267
116.313
110.493
104.852
99.4318
94.2609
89.3569
84.7222
80.3438
76.1917
72.2389
68.4637
64.8688
61.4892
58.3942
55.6262
-1148.99
-1046.82
-873.645
-624.39
-327.379
-17.8078
282.515
563.208
829.849
1097.48
1381.62
1691.81
2029.55
2386.53
2746.8
3084.52
3330.07
3393.86
3292.79
3153.49
3044.64
2923.97
2745.03
2519.81
2279.38
2036
1788.33
1534.85
1278.25
1027.54
794.972
590.662
419.806
282.38
176.498
98.6208
44.4491
9.54789
-9.72653
-16.3839
-13.1562
-2.41103
13.7076
33.0714
53.5932
73.4889
91.4101
106.245
117.433
125.017
129.468
131.463
131.688
130.718
128.976
126.747
124.214
121.486
118.627
115.671
112.629
109.495
106.245
102.927
99.5302
96.0572
92.5248
88.9526
85.3611
81.7697
78.193
74.639
71.1073
67.5979
64.109
60.6609
57.3055
54.1292
51.2756
48.8235
11045.9
10854.7
10552.1
10061
9360.44
8568.91
7764.28
6992.76
6277.25
5624.48
5031.59
4485.46
3963.42
3437.56
2881.86
2280.06
1633.67
976.419
376.914
-105.878
-459.109
-698.639
-839.248
-889.692
-860.768
-773.452
-654.958
-529.128
-411.147
-308.178
-222.541
-154.32
-102.397
-64.8025
-39.0944
-22.5772
-12.6004
-6.64366
-2.8253
-0.0197198
2.57283
5.53063
9.15941
13.5512
18.7517
24.6672
30.8939
37.1348
43.1457
48.7328
53.7699
58.1852
61.9401
65.0217
67.4494
69.2788
70.5976
71.5125
72.1318
72.5514
72.8416
73.0607
73.1173
73.0972
72.9469
72.6109
72.0467
71.2144
70.0814
68.626
66.8408
64.7342
62.3313
59.6751
56.8262
53.8634
50.9093
48.105
45.6872
43.7305
-12143.1
-11672.7
-11072.1
-10382.8
-9549.63
-8656.1
-7751.82
-6876.32
-6050.71
-5285.82
-4588.93
-3966.43
-3425.59
-2972.54
-2606.47
-2314.36
-2072.67
-1856.97
-1651.86
-1454.48
-1272.05
-1115.33
-990.064
-893.464
-818.095
-756.223
-702.611
-653.527
-607.38
-562.911
-519.164
-475.607
-432.203
-389.359
-347.666
-307.842
-270.613
-236.655
-206.57
-180.495
-158.151
-139.037
-122.43
-107.421
-93.1855
-79.2928
-65.5169
-51.8083
-38.3255
-25.3874
-13.378
-2.6375
6.62553
14.3686
20.6779
25.7178
29.7163
32.9433
35.6698
38.1255
40.4743
42.7982
45.3016
47.7404
50.0656
52.2037
54.0481
55.4962
56.4609
56.8804
56.7267
56.0104
54.779
53.1071
51.1006
48.891
46.6408
44.5225
42.8338
41.6108
1863.5
1909.4
2037.8
2233.52
2475.64
2698.65
2868.81
2962.87
2963.37
2859.24
2651.17
2355.39
2002.72
1631.16
1277.43
969.222
719.52
526.559
378.112
257.796
150.704
46.6132
-59.2137
-164.9
-264.908
-353.208
-425.814
-481.853
-522.861
-551.388
-569.915
-580.258
-583.439
-579.868
-569.653
-552.972
-530.291
-502.345
-470.233
-434.857
-397.221
-358.313
-318.898
-279.471
-240.142
-201.31
-163.76
-128.437
-96.3248
-68.3446
-45.1853
-27.1209
-14.0292
-4.91826
1.52951
6.14502
9.63641
12.5668
15.3421
18.2175
21.3169
24.666
28.1517
31.7638
35.377
38.8359
42.0011
44.7451
46.9625
48.5805
49.5681
49.9413
49.7767
49.1175
48.0768
46.8032
45.4732
44.2513
43.3942
42.9484
9918.3
9572.33
9085.66
8427.02
7580.91
6653.56
5706.05
4783.82
3926.03
3167.9
2538.07
2048.91
1689.08
1426.72
1224.57
1055.08
907.551
781.975
675.268
581.811
497.878
420.692
348.107
278.629
211.456
147.161
87.0961
32.4958
-15.9987
-58.3659
-95.0373
-126.703
-154.128
-177.968
-198.604
-216.152
-230.565
-241.596
-248.757
-251.996
-251.377
-247.045
-239.097
-227.571
-212.931
-195.687
-176.491
-155.926
-135.097
-114.915
-96.1472
-79.3123
-64.4139
-51.4805
-40.3353
-30.7765
-22.4521
-15.0338
-8.26793
-1.97137
3.98068
9.66454
15.1096
20.2937
25.1778
29.712
33.8249
37.4461
40.5176
43.0019
44.8871
46.1868
46.922
47.2097
47.1482
46.8475
46.4401
46.0695
45.8644
45.9499
-14018.1
-13380.6
-12531.6
-11487.9
-10163.5
-8718.85
-7311.16
-6054.44
-4985.47
-4111.65
-3439.63
-2961.64
-2648.64
-2457.08
-2349.63
-2330.58
-2407.54
-2499.2
-2504.17
-2437.63
-2351.36
-2225.86
-2028.21
-1772.34
-1497.11
-1235.95
-1007.77
-818.546
-666.684
-547.347
-454.838
-383.811
-329.757
-289.05
-258.796
-236.645
-220.653
-209.166
-200.778
-194.316
-188.818
-183.5
-177.737
-171.033
-163.034
-153.539
-142.565
-130.628
-117.939
-104.979
-92.2679
-80.2149
-69.0376
-58.8043
-49.6035
-41.1044
-33.1926
-25.7598
-18.7139
-11.9864
-5.53185
0.669712
6.61461
12.2789
17.6243
22.6036
27.1658
31.2629
34.8566
37.9233
40.4584
42.4775
44.0164
45.1337
45.9004
46.3993
46.7154
46.9523
47.1459
47.4707
3748.73
3568.84
3345.03
3084.32
2795.7
2521.01
2264.27
2017.54
1779.13
1552.06
1335.64
1122.66
904.655
676.032
436.95
195.806
-33.3812
-236.089
-401.333
-523.739
-597.561
-616.574
-580.004
-499.031
-398.727
-304.887
-231.167
-179.512
-147.305
-131.203
-127.535
-132.192
-141.266
-151.687
-161.425
-169.361
-175.014
-178.305
-179.374
-178.46
-175.826
-171.712
-166.308
-159.752
-152.143
-143.57
-134.154
-124.066
-113.532
-102.825
-92.2304
-81.9944
-72.2845
-63.171
-54.6461
-46.6436
-39.0785
-31.8706
-24.9588
-18.3009
-11.8797
-5.6954
0.23729
5.89319
11.2404
16.2439
20.8693
25.0858
28.87
32.2079
35.0973
37.549
39.5863
41.2443
42.5687
43.6125
44.4332
45.0916
45.6284
46.1496
4821.47
4833.63
4859.74
4857.08
4819.46
4736.39
4623.76
4505.86
4403.49
4325.32
4266.35
4212.17
4147.26
4059.19
3934.78
3767.78
3556.58
3306.33
3026.4
2723.94
2402.27
2064.56
1715.72
1365.39
1031.44
733.936
483.401
279.142
115.504
-13.3268
-111.514
-182.376
-229.356
-256.39
-267.756
-267.701
-259.902
-247.477
-232.739
-217.269
-202.052
-187.617
-174.174
-161.735
-150.198
-139.411
-129.215
-119.465
-110.056
-100.918
-92.0215
-83.3619
-74.9477
-66.7908
-58.8989
-51.2743
-43.9147
-36.8162
-29.9759
-23.393
-17.0708
-11.015
-5.23658
0.250379
5.42948
10.2831
14.7943
18.9481
22.7335
26.145
29.1834
31.8569
34.1811
36.1788
37.8793
39.3173
40.5318
41.5638
42.4604
43.2523
-3960.75
-3918.12
-3897.22
-3923.82
-4011.58
-4165.52
-4359.8
-4558.04
-4727.96
-4848.53
-4914.75
-4930.6
-4901.71
-4830.86
-4719.82
-4571.71
-4391.19
-4182.87
-3949.88
-3694.8
-3421.71
-3136.55
-2845.57
-2554.48
-2267.96
-1988.54
-1717.69
-1459.5
-1220.82
-1008.75
-827.48
-677.569
-556.798
-461.379
-387.01
-329.589
-285.548
-251.909
-226.212
-206.412
-190.821
-178.083
-167.161
-157.307
-148.023
-139.005
-130.093
-121.221
-112.385
-103.614
-94.9533
-86.4488
-78.1415
-70.0633
-62.2364
-54.6745
-47.385
-40.3717
-33.6364
-27.1803
-21.0057
-15.1157
-9.51502
-4.2094
0.794724
5.49084
9.87302
13.9367
17.6795
21.1022
24.2091
27.009
29.5152
31.7456
33.7225
35.4718
37.021
38.3985
39.6316
40.7308
-5794.22
-5896.32
-5989.88
-6027.35
-5994.73
-5922.55
-5844.61
-5780.07
-5733.85
-5701.84
-5676.44
-5648.33
-5607.48
-5544.14
-5449.44
-5312.68
-5124.35
-4877.38
-4567.93
-4196.7
-3769.8
-3298.16
-2798.98
-2294.11
-1810.56
-1380.87
-1036.67
-792.709
-637.385
-542.719
-481.303
-435.853
-398.295
-365.3
-335.293
-307.395
-281.202
-256.678
-234.005
-213.388
-194.936
-178.62
-164.278
-151.659
-140.468
-130.407
-121.207
-112.636
-104.514
-96.7052
-89.1164
-81.6919
-74.4041
-67.2465
-60.2266
-53.3603
-46.6674
-40.1685
-33.883
-27.828
-22.0178
-16.4638
-11.175
-6.15795
-1.41729
3.04424
7.2256
11.1273
14.7516
18.1024
21.186
24.0105
26.5864
28.9263
31.0443
32.9564
34.6792
36.2305
37.6282
38.8784
-2238.48
-1734.76
-1072.65
-453.576
122.633
554.525
881.824
1147.14
1367.69
1544.74
1680.5
1783.67
1865.36
1933.72
1993.1
2041.33
2069.93
2062.97
2005.07
1898.94
1769.54
1639.31
1510.21
1374.07
1225.33
1062.61
889.122
714.672
551.862
410.55
293.458
197.957
120.84
58.8014
9.37418
-29.2662
-58.6798
-80.3646
-95.7852
-106.288
-112.999
-116.77
-118.211
-117.761
-115.754
-112.47
-108.15
-103.009
-97.2405
-91.012
-84.4692
-77.7359
-70.9155
-64.0935
-57.3395
-50.7091
-44.2467
-37.9863
-31.9536
-26.1673
-20.6397
-15.3783
-10.3867
-5.66525
-1.21205
2.97653
6.90521
10.5796
14.0061
17.1914
20.143
22.8692
25.3787
27.6813
29.7873
31.7079
33.4549
35.0406
36.4766
37.7697
9070.48
9009.81
8836.36
8459.09
7887.86
7236.35
6624.56
6142.06
5823.93
5636.27
5491.56
5300.1
5013.66
4623.76
4138.64
3572.77
2939.76
2271.11
1667.37
1254.58
1030.07
867.344
693.558
529.55
398.174
293.115
200.469
110.547
24.4566
-51.7157
-110.595
-147.963
-166.253
-171.199
-169.063
-164.471
-159.812
-155.747
-152.064
-148.335
-144.198
-139.421
-133.912
-127.717
-120.98
-113.882
-106.589
-99.2277
-91.8858
-84.6197
-77.4654
-70.447
-63.583
-56.8898
-50.3836
-44.0808
-37.9973
-32.1479
-26.545
-21.198
-16.113
-11.2922
-6.73439
-2.43556
1.61053
5.41154
8.97583
12.312
15.4287
18.3343
21.0369
23.5447
25.8657
28.0078
29.9794
31.7886
33.4436
34.9531
36.3251
37.5691
944.845
682.122
381.682
140.259
-51.381
-152.732
-195.803
-204.611
-186.587
-144.464
-83.5038
-12.662
58.2814
120.713
168.609
199.985
216.865
224.38
228.57
234.814
247.86
270.53
302.835
342.77
387.14
431.151
467.107
484.427
473.092
429.475
359.344
273.832
182.566
92.0938
5.91278
-74.492
-148.823
-217.481
-281.162
-340.525
-395.989
-447.654
-495.281
-538.343
-576.13
-607.807
-632.658
-650.453
-659.798
-660.501
-652.972
-636.866
-612.044
-578.831
-537.929
-490.363
-437.545
-381.427
-324.673
-270.597
-222.567
-183.028
-152.777
-131
-115.974
-105.861
-99.1415
-94.6932
-91.7227
-89.6755
-88.172
-86.9606
-85.8823
-84.8461
-83.8056
-82.7428
-81.6573
-80.5529
-79.4441
-78.3146
-4665.41
-4031.51
-3172.51
-2297.18
-1484.41
-847.487
-343.222
62.5716
384.218
643.321
851.775
998.808
1070.52
1068.61
1010.28
919.517
820.735
733.896
672.447
642.486
641.702
660.175
684.065
700.058
699.413
679.24
639.638
581.06
505.437
418.354
327.834
241.134
162.109
91.3324
27.7747
-30.0678
-83.6748
-134.293
-182.815
-229.711
-275.033
-318.476
-359.438
-397.098
-430.435
-458.266
-479.498
-493.735
-501.988
-504.932
-502.331
-494.1
-480.256
-460.943
-436.468
-407.377
-374.526
-339.133
-302.746
-267.098
-233.847
-204.273
-179.059
-158.275
-141.536
-128.237
-117.737
-109.457
-102.909
-97.6948
-93.4953
-90.0603
-87.1985
-84.7667
-82.6596
-80.8022
-79.1428
-77.6432
-76.2802
-75.0162
3883.11
3679.64
3435.43
3155.15
2730.17
2222.68
1650.11
1059.7
549.385
204.871
0.473721
-171.361
-355.871
-517.727
-632.024
-705.555
-750.854
-777.466
-788.446
-780.812
-751.095
-699.533
-630.607
-551.187
-468.513
-389.25
-319.212
-262.582
-220.857
-192.286
-173.15
-160.466
-152.857
-149.992
-151.794
-158.033
-168.294
-182.036
-198.657
-217.525
-237.989
-259.372
-280.977
-302.079
-321.914
-339.769
-354.972
-366.741
-374.229
-376.972
-375.295
-369.457
-359.8
-346.73
-330.716
-312.298
-292.08
-270.723
-248.928
-227.4
-206.792
-187.636
-170.292
-154.933
-141.559
-130.056
-120.242
-111.911
-104.856
-98.882
-93.8165
-89.5078
-85.828
-82.6703
-79.9477
-77.5901
-75.5428
-73.7608
-72.2117
-70.8634
587.32
575.203
582.746
594.448
573.128
486.058
309.89
35.8753
-313.708
-681.954
-1018.3
-1319.54
-1611.66
-1904.44
-2180.33
-2407.83
-2550.76
-2579.29
-2486.45
-2298.78
-2062.99
-1820.66
-1595.45
-1395.22
-1218.43
-1060.79
-918.903
-791.25
-677.272
-576.456
-488.047
-411.802
-348.067
-297.34
-259.529
-233.645
-218.082
-210.936
-210.208
-213.927
-220.302
-227.947
-235.968
-243.876
-251.428
-258.439
-264.635
-269.84
-273.9
-276.402
-276.857
-274.99
-270.698
-264.041
-255.227
-244.573
-232.476
-219.374
-205.71
-191.905
-178.333
-165.301
-153.039
-141.696
-131.351
-122.025
-113.695
-106.311
-99.8003
-94.0855
-89.0848
-84.7192
-80.9147
-77.6043
-74.7285
-72.2355
-70.0807
-68.2251
-66.6381
-65.2911
-5476.14
-5245.48
-4933.1
-4577.83
-4187.69
-3793.85
-3401.08
-3022.22
-2674.56
-2372.16
-2123.07
-1931.03
-1795.33
-1706.72
-1646.71
-1590.72
-1515.63
-1410.47
-1286.68
-1169.71
-1081.19
-1025.31
-990.8
-962.447
-929.209
-886.046
-833.914
-779.546
-730.048
-686.709
-645.784
-604.428
-563.741
-525.954
-491.208
-458.087
-425.741
-393.746
-362.149
-331.606
-303.566
-279.833
-261.69
-249.315
-241.81
-237.757
-235.748
-234.575
-233.425
-231.761
-229.243
-225.675
-220.966
-215.11
-208.168
-200.255
-191.535
-182.201
-172.468
-162.555
-152.669
-142.998
-133.695
-124.879
-116.635
-109.013
-102.037
-95.7064
-90.0055
-84.9044
-80.366
-76.3489
-72.8104
-69.7085
-67.0034
-64.6583
-62.6402
-60.9179
-59.4665
-58.2795
4583.5
4449.4
4262.14
4008.7
3664.49
3294.85
2917.3
2538.91
2162.59
1787.75
1415.68
1049.95
697.083
366.412
68.2317
-189.005
-402.916
-580.993
-735.502
-876.178
-1009.78
-1140.58
-1264.55
-1364.95
-1421.46
-1429.66
-1401.47
-1350.53
-1279.73
-1183.35
-1061.65
-931.642
-817.289
-728.948
-660.265
-601.414
-547.214
-496.883
-450.998
-410.365
-375.521
-346.403
-322.333
-302.277
-285.214
-270.336
-257.083
-245.088
-234.093
-223.891
-214.301
-205.165
-196.341
-187.713
-179.191
-170.716
-162.259
-153.821
-145.431
-137.138
-129.007
-121.108
-113.513
-106.287
-99.4825
-93.1405
-87.2862
-81.9303
-77.0708
-72.695
-68.7822
-65.3066
-62.2394
-59.5511
-57.2127
-55.1972
-53.4791
-52.0341
-50.8437
-49.9229
-11940.1
-11534.7
-11066.9
-10521.8
-9814.82
-8889.79
-7741.56
-6432.26
-5053.87
-3690.69
-2404.08
-1236.2
-217.667
628.041
1285.55
1752.9
2040.47
2166.97
2155.32
2029.89
1817.25
1546.38
1249.8
960.494
701.309
482.357
303.673
160.842
50.0216
-32.9918
-95.032
-145.215
-190.595
-231.697
-265.147
-288.382
-301.348
-305.618
-303.319
-296.497
-286.837
-275.621
-263.734
-251.742
-239.981
-228.629
-217.769
-207.422
-197.578
-188.204
-179.261
-170.701
-162.477
-154.54
-146.85
-139.368
-132.065
-124.922
-117.934
-111.105
-104.456
-98.0156
-91.8219
-85.9172
-80.3426
-75.1343
-70.3194
-65.9135
-61.9211
-58.3355
-55.1419
-52.3197
-49.8454
-47.6945
-45.8433
-44.27
-42.9549
-41.8787
-41.0266
-40.4319
10544
10189.5
9711.29
9090.27
8292.18
7476.55
6685.74
5920.49
5174.91
4445.66
3734.01
3047.02
2396.52
1793.5
1241.65
739.244
286.029
-112.968
-448.155
-711.616
-900.578
-1017.47
-1070.07
-1069.38
-1027.57
-957.446
-871.625
-780.38
-691.313
-609.547
-538.121
-478.423
-429.765
-390.499
-358.589
-332.097
-309.438
-289.415
-271.185
-254.247
-238.378
-223.527
-209.702
-196.898
-185.089
-174.232
-164.274
-155.156
-146.809
-139.155
-132.107
-125.577
-119.476
-113.721
-108.236
-102.953
-97.8164
-92.7815
-87.8158
-82.9021
-78.0398
-73.2458
-68.5536
-64.0099
-59.6691
-55.5855
-51.8054
-48.3613
-45.2687
-42.5269
-40.1225
-38.034
-36.2364
-34.7048
-33.4168
-32.3536
-31.4996
-30.8405
-30.3649
-30.1159
2945.83
2742.81
2459.35
2197.77
1957.52
1796.22
1677.47
1576.61
1483.93
1397.11
1322.23
1262.97
1207.53
1140.42
1055.6
956.916
849.051
732.787
608.272
477.593
344.542
213.109
87.2092
-29.2272
-132.287
-218.397
-284.678
-329.506
-353.669
-359.882
-351.953
-334.041
-310.039
-283.087
-255.34
-228.304
-202.98
-180.023
-159.918
-142.955
-129.137
-118.162
-109.517
-102.632
-97.0007
-92.2455
-88.1172
-84.4688
-81.2203
-78.3266
-75.7537
-73.4629
-71.4029
-69.508
-67.7005
-65.8956
-64.0081
-61.9588
-59.682
-57.133
-54.2949
-51.1852
-47.858
-44.4027
-40.9337
-37.5738
-34.4339
-31.5962
-29.105
-26.9688
-25.1697
-23.6754
-22.4487
-21.4567
-20.6716
-20.0726
-19.6448
-19.3764
-19.2571
-19.3282
-3958.37
-3849.67
-3817.18
-3924.45
-4095.47
-4346.97
-4684.6
-5049.15
-5320.96
-5415.67
-5335.89
-5124.45
-4795.36
-4342.54
-3781.02
-3161.1
-2556.27
-2032.26
-1614.26
-1286.11
-1018.56
-790.61
-592.196
-421.124
-279.627
-169.105
-88.1353
-33.1452
0.765885
18.7796
25.6486
25.3146
20.8525
14.6509
8.33663
2.88282
-1.21233
-3.86247
-5.28236
-5.84681
-5.9682
-6.0008
-6.18693
-6.65079
-7.4241
-8.4849
-9.79154
-11.303
-12.9845
-14.805
-16.7308
-18.7214
-20.7255
-22.6807
-24.5143
-26.145
-27.486
-28.4496
-28.9544
-28.9363
-28.3596
-27.23
-25.603
-23.586
-21.3282
-18.9975
-16.7515
-14.7109
-12.9467
-11.4817
-10.3046
-9.38596
-8.69167
-8.19086
-7.85903
-7.67847
-7.63739
-7.72752
-7.9404
-8.30676
-9457.55
-9013.92
-8457.33
-7849.02
-7215.72
-6655.03
-6158.41
-5650.24
-5009.58
-4147.18
-3050.35
-1733.21
-283.639
985.701
1723.94
1919.65
1825.18
1619.56
1363.03
1116.34
939.405
835.931
770.205
715.176
663.423
613.93
565.722
518.339
472.106
427.883
386.569
348.721
314.437
283.614
256.119
231.523
209.575
189.87
171.966
155.461
140.046
125.543
111.893
99.1214
87.2915
76.461
66.6506
57.834
49.9462
42.8977
36.5914
30.9356
25.8538
21.2894
17.2077
13.5952
10.4559
7.80684
5.67044
4.06571
2.9976
2.4464
2.35943
2.64839
3.19557
3.86983
4.54885
5.13961
5.58883
5.88035
6.02323
6.03757
5.9438
5.75728
5.48693
5.1362
4.7047
4.19025
3.59279
2.89029
11806.7
11614.3
11393.6
11127.6
10766.9
10449
10183.8
9940.67
9671.6
9311.3
8797.3
8086.31
7175.23
6124.51
5062.56
4126.71
3373.13
2756.92
2173.99
1575.85
1062.76
752.265
613.593
542.079
488.509
451.946
433.606
428.892
432.08
438.54
443.201
441.676
431.914
414.427
391.21
364.793
336.972
309.017
281.781
255.74
231.159
208.399
187.527
168.385
150.869
134.965
120.638
107.826
96.4437
86.3917
77.5597
69.8332
63.0978
57.2437
52.1683
47.779
43.9949
40.7462
37.9734
35.6244
33.6498
31.9992
30.6175
29.4443
28.4165
27.4748
26.5703
25.6702
24.7586
23.833
22.8984
21.9611
21.0251
20.0897
19.1503
18.1993
17.2273
16.2248
15.185
14.0909
10069.7
9605.14
8864.2
7890.1
6806.69
5847.39
5066.23
4441.08
3958.13
3613.2
3392.51
3271.4
3219.99
3207.5
3206.44
3196.86
3167.83
3112.22
3016.42
2860.06
2637.51
2369.66
2085.35
1804.35
1538.96
1297.53
1085.52
906.339
761.498
647.69
559.249
489.936
434.389
388.892
351.076
319.243
292.072
268.515
247.699
228.991
211.946
196.056
181.134
167.23
154.367
142.574
131.748
121.857
112.876
104.772
97.5049
91.0289
85.2895
80.2245
75.7662
71.8424
68.3799
65.3065
62.5541
60.0601
57.7689
55.6328
53.6116
51.6728
49.7909
47.9467
46.1274
44.3266
42.5441
40.7844
39.0545
37.3614
35.7093
34.0985
32.5256
30.9835
29.4634
27.9557
26.4526
24.9382
-11990.5
-11226.6
-10262.3
-9247.95
-8074.55
-6826.17
-5576.9
-4427.86
-3437.54
-2616.35
-1949.42
-1414.02
-987.954
-654.763
-402.294
-218.051
-87.9156
1.90031
63.3929
106.399
137.907
162.334
181.877
197.302
209.18
218.604
227.186
236.456
246.899
257.609
265.039
265.304
257.25
242.858
225.406
207.657
191.289
177.094
165.288
155.745
148.13
142.012
136.961
132.606
128.664
124.853
121.08
117.332
113.597
109.894
106.256
102.721
99.3174
96.0688
92.9851
90.0649
87.2967
84.6612
82.1345
79.6904
77.3035
74.9507
72.6127
70.275
67.9281
65.5675
63.1941
60.8138
58.4371
56.077
53.7472
51.4603
49.2251
47.0467
44.9258
42.8598
40.8436
38.8701
36.9322
35.0094
1474.53
1352.79
1210.05
1073.68
950.105
829.949
672.248
439.884
121.269
-269.654
-699.879
-1129.08
-1520.42
-1846.3
-2086.76
-2227.62
-2265.59
-2213.51
-2096.81
-1942.87
-1772.39
-1597.51
-1425.84
-1262.95
-1112.89
-978.12
-859.197
-754.623
-661.249
-575.271
-493.499
-414.222
-337.359
-264.06
-196.021
-134.767
-81.2062
-35.5797
2.37618
33.2304
57.7173
76.6588
90.9083
101.283
108.527
113.338
116.353
117.905
118.331
117.91
116.86
115.353
113.52
111.462
109.248
106.929
104.536
102.089
99.5944
97.0556
94.4706
91.8364
89.1507
86.414
83.6302
80.8068
77.9554
75.0903
72.2277
69.3846
66.5771
63.8187
61.1195
58.4857
55.9203
53.4223
50.9931
48.6226
46.303
44.003
-4010.52
-3856.02
-3655.72
-3420.48
-3125.71
-2796.15
-2436.93
-2057.96
-1675.27
-1307.55
-973.48
-689.631
-470.071
-325.049
-257.391
-259.853
-316.121
-405.496
-508.644
-612.066
-706.586
-785.093
-840.523
-867.535
-863.865
-830.074
-769.912
-689.119
-594.404
-492.275
-388.346
-287.405
-193.686
-110.774
-41.1277
14.4656
57.0587
88.5512
111.15
126.884
137.414
144.042
147.779
149.42
149.564
148.61
146.846
144.599
142.073
139.403
136.676
133.938
131.209
128.493
125.785
123.074
120.35
117.601
114.815
111.984
109.099
106.152
103.138
100.06
96.9209
93.7327
90.5104
87.2712
84.0334
80.8152
77.6325
74.4987
71.4241
68.4158
65.4806
62.6175
59.8209
57.0912
54.4182
51.7643
-1843.52
-1988.4
-2142.4
-2259.92
-2359.02
-2456.28
-2573.4
-2713.77
-2868.15
-3020.38
-3146.22
-3214.64
-3191.96
-3053.09
-2793.74
-2430.83
-1994.43
-1519.96
-1045.4
-604.839
-220.352
97.7117
347.342
531.284
655.386
727.611
757.426
754.394
726.375
680.578
624.488
565.201
508.001
455.603
408.921
368.081
332.671
302.276
276.358
254.316
235.58
219.656
206.14
194.697
185.033
176.884
170.005
164.175
159.184
154.852
151.016
147.539
144.31
141.24
138.264
135.335
132.424
129.513
126.591
123.649
120.672
117.646
114.553
111.377
108.114
104.766
101.347
97.8732
94.3685
90.8514
87.342
83.8588
80.4191
77.0355
73.7163
70.4713
67.3039
64.2138
61.1957
58.2053
994.314
1447.72
2107.71
2855.14
3647.15
4370.48
5008.48
5544.6
5958.3
6243.89
6411.55
6471.35
6425.8
6282.62
6059.03
5773.02
5437.24
5059.12
4646.69
4210.59
3763.25
3317.56
2882.39
2466.6
2079.33
1732.71
1440.99
1210.29
1033.1
893.073
777.388
680.32
599.23
531.179
472.942
422.193
377.645
338.678
304.92
276.024
251.595
231.193
214.356
200.647
189.654
180.883
173.922
168.399
163.981
160.355
157.257
154.461
151.79
149.115
146.358
143.489
140.526
137.525
134.559
131.682
128.906
126.191
123.456
120.621
117.621
114.42
111.016
107.429
103.744
99.9428
96.0792
92.1832
88.3163
84.4825
80.7131
77.0318
73.4556
69.9965
66.6693
63.4527
15097.8
14746.8
14175.5
13251.9
11900.4
10385.6
8963.7
7778.45
6830.17
6046.95
5335.22
4615.46
3871.76
3153.61
2520
2000.77
1596.37
1294.46
1079.44
935.633
846.026
792.374
756.515
721.701
676.848
620.286
557.132
494.586
437.308
386.283
340.79
300.302
264.875
234.817
210.228
190.776
175.772
164.409
155.959
149.856
145.692
143.254
142.162
142.196
143.135
144.796
146.913
149.191
151.324
153.008
153.967
153.97
152.868
150.629
147.387
143.484
139.452
135.87
133.136
131.361
130.372
129.806
129.228
128.271
126.713
124.459
121.54
118.043
113.981
109.555
105.002
100.433
95.7424
91.1802
86.7673
82.5146
78.4344
74.5311
70.8149
67.2566
-7682.08
-7504.49
-7303.92
-7055.7
-6721.61
-6226.65
-5584.51
-4909.81
-4314.44
-3821.9
-3410.58
-3073.91
-2810.69
-2603.35
-2428.32
-2272.2
-2133.8
-2015.17
-1915.95
-1831.46
-1752.95
-1668.29
-1564.54
-1433.16
-1276.3
-1106.18
-938.031
-782.665
-644.857
-521.111
-409.685
-309.749
-222.812
-150.338
-92.3016
-47.2552
-12.956
13.0392
33.0448
49.2685
62.9425
75.0009
86.2342
96.9884
107.376
117.338
126.702
135.255
142.808
149.221
154.429
158.438
161.31
163.116
163.879
163.407
161.626
159.075
156.01
152.917
149.986
147.376
144.873
142.242
139.3
135.785
131.794
127.205
122.215
117.076
111.806
106.485
101.312
96.388
91.5599
86.8886
82.4044
78.1091
74.0105
70.0454
-76.0755
-72.8928
-70.2305
-68.0144
-66.05
-64.0973
-61.9348
-59.3866
-56.363
-52.9036
-48.9811
-44.6331
-39.966
-35.1735
-30.4798
-26.0844
-22.1109
-18.6044
-15.557
-12.9373
-10.7083
-8.83287
-7.27459
-5.99545
-4.95521
-4.11229
-3.42672
-2.86439
-2.40037
-2.01991
-1.71668
-1.48933
-1.33843
-1.26484
-1.2693
-1.35272
-1.51682
-1.76491
-2.10246
-2.53685
-3.07529
-3.72069
-4.46686
-5.29688
-6.18735
-7.1176
-8.07851
-9.07582
-10.127
-11.2542
-12.4774
-13.807
-15.2403
-16.7572
-18.3199
-19.8734
-21.3505
-22.6788
-23.7896
-24.627
-25.1544
-25.3573
-25.2429
-24.834
-24.1636
-23.2698
-22.1926
-20.971
-19.6417
-18.2377
-16.7876
-15.3156
-13.8421
-12.3854
-10.9624
-9.58868
-8.27819
-7.04186
-5.8869
-4.81657
-3.83055
-2.92577
-2.09735
-1.33948
-0.646059
-0.0111066
0.570919
1.10501
1.59559
2.04647
2.46099
2.84198
3.19187
3.51269
3.80617
4.07379
4.31689
4.53682
4.73496
4.91284
5.07208
5.21438
5.3415
5.45515
5.55695
5.64841
5.73086
5.80551
5.87335
5.93523
5.99184
6.04371
6.09127
6.13489
6.17488
6.21154
6.24509
6.27572
6.3036
6.32889
6.35172
6.37219
6.39045
6.40663
6.4209
6.43339
6.44423
6.45354
6.46145
6.46808
6.47357
6.47808
6.48172
6.48464
6.48696
6.48879
6.49027
6.49149
6.49258
6.4936
6.49464
6.49572
6.49684
6.49799
6.49911
6.50013
6.50094
6.50142
6.50141
6.50071
6.49913
6.49644
6.49235
6.48656
6.47872
6.46849
6.45548
6.43931
6.41951
6.39556
6.3668
6.33247
6.29171
6.24355
6.18696
6.12077
6.0437
5.95432
5.851
5.7319
5.59492
5.43773
5.25772
5.05211
4.81799
4.55252
4.25306
3.91748
3.54438
3.13342
2.68553
2.20311
1.69022
1.15265
0.597969
0.0355438
-0.523474
-1.06629
-1.57852
-2.04461
-2.44788
-2.77125
-2.99721
-3.10929
-3.09077
-2.92968
-2.60873
-2.13257
-1.45646
-0.664634
-72.709
-69.7185
-67.5237
-65.866
-64.4712
-63.0746
-61.4388
-59.3784
-56.767
-53.7166
-50.0714
-45.8553
-41.1892
-36.2671
-31.3674
-26.7464
-22.5682
-18.8948
-15.718
-12.9988
-10.6919
-8.75396
-7.14452
-5.82301
-4.74735
-3.87459
-3.16388
-2.58046
-2.0988
-1.70338
-1.38689
-1.14691
-0.983127
-0.89572
-0.884954
-0.951388
-1.09642
-1.32294
-1.63581
-2.04167
-2.54692
-3.15385
-3.85615
-4.63729
-5.47467
-6.34843
-7.24976
-8.18414
-9.16833
-10.2239
-11.3702
-12.6183
-13.9667
-15.3981
-16.8784
-18.3569
-19.7707
-21.0521
-22.1358
-22.9668
-23.508
-23.7422
-23.6735
-23.3214
-22.7156
-21.8917
-20.8882
-19.7432
-18.4926
-17.1686
-15.7995
-14.4094
-13.0194
-11.6482
-10.3127
-9.02762
-7.80525
-6.65444
-5.58035
-4.58456
-3.66571
-2.82031
-2.04356
-1.33004
-0.674249
-0.0709096
0.484812
0.997242
1.47018
1.90694