/*--------------------------------*- C++ -*----------------------------------*\
| =========                 |                                                 |
| \\      /  F ield         | OpenFOAM: The Open Source CFD Toolbox           |
|  \\    /   O peration     | Version:  2012                                  |
|   \\  /    A nd           | Website:  www.openfoam.com                      |
|    \\/     M anipulation  |                                                 |
\*---------------------------------------------------------------------------*/
FoamFile
{
    version     2.0;
    format      ascii;
    class       volVectorField;
    location    "0.89";
    object      U;
}
// * * * * * * * * * * * * * * * * * * * * * * * * * * * * * * * * * * * * * //

dimensions      [0 1 -1 0 0 0 0];


internalField   nonuniform List<vector> 
42400
(
(6.99513 -5.06875 -6.18596e-17)
(14.041 -10.1374 -8.86289e-17)
(20.2467 -15.6553 9.07612e-17)
(27.3994 -21.8178 0)
(33.1966 -25.9862 0)
(36.4202 -25.2777 -2.84282e-19)
(37.6941 -20.843 0)
(37.7214 -14.1744 3.20929e-19)
(36.3257 -5.50195 0)
(32.7417 6.12367 3.24799e-19)
(27.2723 19.5516 3.12995e-19)
(21.7591 31.4227 -2.92557e-19)
(18.0596 40.2684 2.89302e-17)
(16.0534 47.5934 -2.94879e-17)
(14.3438 54.9501 -1.92203e-19)
(11.759 62.5871 0)
(8.13374 70.2079 0)
(3.91849 77.4563 0)
(-0.345596 83.8257 0)
(-4.11302 88.683 0)
(-6.75358 91.326 0)
(-7.62088 90.9988 -1.90512e-19)
(-6.357 87.574 -6.99038e-18)
(-3.19877 81.4009 -2.28242e-18)
(1.0544 73.3714 9.15813e-18)
(5.26093 64.7191 -1.39757e-19)
(8.45884 56.5272 -1.08928e-19)
(10.1969 49.3419 1.55757e-19)
(10.5433 43.1985 0)
(9.8682 37.8926 0)
(8.63133 33.227 8.10954e-18)
(7.26914 29.1188 -8.19219e-18)
(6.07238 25.5148 7.48297e-20)
(5.20849 22.3657 -6.87269e-18)
(4.75795 19.6178 6.82728e-18)
(4.73814 17.2091 0)
(5.11661 15.0725 0)
(5.84905 13.1808 0)
(6.86364 11.4989 0)
(8.06664 9.9964 -4.47267e-18)
(9.37169 8.66111 4.48601e-18)
(10.7192 7.50354 -4.13565e-18)
(12.0527 6.5325 3.6519e-19)
(13.3196 5.75244 7.74161e-18)
(14.4777 5.16824 -3.70587e-18)
(15.495 4.78355 3.58027e-18)
(16.3487 4.59992 -7.32086e-18)
(17.0248 4.61637 3.49988e-18)
(17.5179 4.82919 2.17259e-19)
(17.8298 5.23152 -3.3353e-18)
(17.9684 5.81324 6.46197e-18)
(17.9457 6.55944 1.66338e-19)
(17.7767 7.44904 -3.23622e-18)
(17.4764 8.45182 2.89626e-19)
(17.0573 9.52241 0)
(16.5194 10.5903 0)
(15.8827 11.5952 0)
(15.1629 12.4747 -2.30702e-19)
(14.3538 13.1419 -2.3579e-19)
(13.4377 13.5165 0)
(12.4047 13.5478 -4.88047e-18)
(11.2413 13.2043 5.09606e-18)
(9.9696 12.5004 5.62882e-18)
(8.6557 11.506 -5.5339e-18)
(7.37621 10.3275 0)
(6.19088 9.09051 0)
(5.13059 7.88843 5.60695e-18)
(4.22214 6.77949 -5.4887e-18)
(3.49525 5.78973 -6.02566e-19)
(2.96731 4.91627 0)
(2.64022 4.14368 0)
(2.50194 3.45705 -4.84308e-19)
(2.53073 2.84407 -4.46317e-19)
(2.69598 2.28136 0)
(2.96819 1.75744 -3.76758e-19)
(3.32621 1.27631 -2.67521e-18)
(3.74691 0.84066 2.59521e-18)
(4.20679 0.452932 5.8231e-19)
(4.68866 0.123716 2.04764e-18)
(5.1744 -0.113195 1.75659e-18)
(5.67606 -7.25995 0)
(13.3724 -17.6967 1.47119e-16)
(20.2363 -23.3791 -1.50437e-16)
(22.9367 -29.3648 0)
(24.7405 -34.0653 0)
(24.1156 -39.6518 1.41977e-16)
(20.838 -45.2636 -1.44668e-16)
(15.0952 -49.5359 -3.20667e-19)
(7.25466 -52.1071 0)
(-1.56499 -53.2081 -3.25988e-19)
(-10.1275 -53.6588 -3.14546e-19)
(-17.5112 -53.9887 -1.025e-16)
(-23.5499 -53.9936 1.39551e-17)
(-28.662 -53.5097 9.39603e-17)
(-33.1578 -52.5807 6.96689e-17)
(-37.0792 -51.1249 -7.0131e-17)
(-40.4202 -48.9647 0)
(-43.1706 -46.0268 5.53925e-19)
(-45.3546 -42.3147 0)
(-47.0611 -37.9134 0)
(-48.3308 -32.9365 0)
(-49.1406 -27.6967 -2.01722e-17)
(-49.5181 -22.5384 4.23217e-18)
(-49.5263 -17.634 1.72803e-17)
(-49.3009 -13.0968 0)
(-48.9286 -8.99081 9.50612e-21)
(-48.2537 -5.36223 1.0865e-19)
(-46.9354 -2.31399 -1.55638e-19)
(-44.6316 -0.0545922 3.31643e-18)
(-41.1273 1.1991 -3.36047e-18)
(-36.549 1.47082 -4.21353e-20)
(-31.268 1.05072 -5.10661e-20)
(-25.713 0.301177 2.14972e-18)
(-20.248 -0.467816 -2.17554e-18)
(-15.091 -1.0809 4.57414e-19)
(-10.3355 -1.49619 -4.8839e-19)
(-6.03523 -1.76418 0)
(-2.19523 -1.94148 1.5578e-19)
(1.20074 -2.06254 0)
(4.17303 -2.14834 3.36573e-19)
(6.72737 -2.2222 -3.80471e-18)
(8.86897 -2.30006 4.15363e-18)
(10.6121 -2.37914 -2.6234e-19)
(11.9751 -2.44299 2.59387e-19)
(12.9773 -2.46871 6.25693e-20)
(13.6389 -2.43159 2.48688e-19)
(13.9809 -2.30916 -2.40611e-19)
(14.0253 -2.08302 -3.31948e-18)
(13.7952 -1.73979 3.31807e-18)
(13.3152 -1.27105 0)
(12.61 -0.673792 -2.16384e-19)
(11.7062 0.0493719 -3.51655e-19)
(10.6307 0.887207 -1.86044e-18)
(9.41416 1.81896 1.87039e-18)
(8.09239 2.81403 3.08196e-19)
(6.70041 3.83084 -3.10675e-18)
(5.27259 4.80776 3.63737e-18)
(3.88499 5.71972 2.33917e-19)
(2.59489 6.53544 2.3905e-19)
(1.43759 7.21594 -3.84427e-18)
(0.442102 7.72961 3.78498e-18)
(-0.360485 8.05731 -2.93425e-19)
(-0.943394 8.1875 -3.12267e-19)
(-1.28965 8.11573 0)
(-1.40256 7.85032 4.39978e-18)
(-1.31151 7.41917 8.90827e-20)
(-1.06357 6.86491 -5.5414e-18)
(-0.709388 6.23692 0)
(-0.289671 5.57838 1.17493e-18)
(0.16824 4.91894 -5.40074e-19)
(0.649778 4.27553 -3.99901e-18)
(1.15014 3.65516 4.38056e-18)
(1.66907 3.05756 3.89773e-18)
(2.20947 2.48433 -3.76369e-18)
(2.77016 1.94342 7.53073e-19)
(3.34315 1.4369 -2.71079e-18)
(3.91611 0.965255 1.98953e-18)
(4.47743 0.531335 -5.82233e-19)
(5.01692 0.138302 2.65627e-18)
(5.51691 -0.198442 -2.06918e-18)
(15.0423 -12.8375 1.15235e-17)
(52.0507 -36.8583 -2.23667e-19)
(72.3068 -55.4631 2.49124e-19)
(67.3035 -46.1567 -2.10137e-19)
(38.9429 -22.0274 0)
(10.3936 3.76843 2.55361e-19)
(-6.6376 20.7005 4.49422e-18)
(-13.8303 28.7637 -4.87611e-18)
(-16.2798 31.9117 1.37867e-17)
(-16.4763 32.8349 3.17564e-18)
(-15.7114 32.626 -1.7972e-17)
(-14.8519 31.7471 -5.28321e-19)
(-14.3364 30.4069 -4.89617e-19)
(-14.2797 28.6172 2.48311e-17)
(-14.7101 26.3461 -2.52934e-17)
(-15.6601 23.6003 -1.00224e-18)
(-17.1858 20.5115 -2.52881e-17)
(-19.3528 17.2534 1.02936e-18)
(-22.1009 13.9087 2.56145e-17)
(-25.0676 10.4232 -4.25896e-19)
(-27.6589 6.72171 3.83903e-19)
(-29.2711 2.64082 3.36106e-19)
(-29.5482 -1.72824 0)
(-28.5593 -5.94423 -4.42414e-19)
(-26.5931 -9.51521 1.04602e-17)
(-23.9127 -12.1184 -1.96458e-17)
(-20.7741 -13.7311 9.20156e-18)
(-17.3912 -14.5 -7.60396e-18)
(-13.9392 -14.6578 7.68909e-18)
(-10.5092 -14.4657 7.28133e-18)
(-7.19819 -14.1182 -1.43686e-17)
(-4.06978 -13.7331 -9.60368e-20)
(-1.16157 -13.3459 7.38721e-18)
(1.44453 -12.9532 0)
(3.67726 -12.5289 0)
(5.49159 -12.0588 1.30551e-19)
(6.84841 -11.5287 0)
(7.74497 -10.945 8.61557e-20)
(8.21088 -10.3289 -7.09637e-18)
(8.32227 -9.7166 1.42258e-17)
(8.18704 -9.15072 -7.3269e-18)
(7.9171 -8.67031 0)
(7.60289 -8.29748 0)
(7.29715 -8.03072 -6.15e-18)
(7.01582 -7.8459 5.83003e-18)
(6.74966 -7.70522 4.04749e-19)
(6.47696 -7.56862 0)
(6.17393 -7.39969 0)
(5.81932 -7.16874 -4.62296e-18)
(5.39693 -6.85283 4.60064e-18)
(4.89546 -6.43538 2.18997e-19)
(4.30941 -5.90538 0)
(3.6381 -5.25879 3.99859e-18)
(2.88956 -4.49623 -3.41302e-18)
(2.08108 -3.62484 5.77524e-18)
(1.24295 -2.65274 -5.84487e-18)
(0.395154 -1.61702 5.35189e-18)
(-0.428177 -0.553011 -1.10776e-17)
(-1.18379 0.503435 1.09093e-17)
(-1.82388 1.51903 7.31339e-20)
(-2.31964 2.44687 -5.37059e-18)
(-2.64533 3.25176 -5.46998e-18)
(-2.78575 3.90653 5.68421e-18)
(-2.74216 4.39192 0)
(-2.53217 4.70229 -4.6439e-18)
(-2.18846 4.84489 3.96628e-20)
(-1.74995 4.83759 6.28098e-18)
(-1.25195 4.70418 0)
(-0.719214 4.46898 -1.14026e-18)
(-0.164593 4.15371 -3.67438e-18)
(0.408471 3.77664 3.60917e-18)
(1.00124 3.35327 0)
(1.61453 2.89781 0)
(2.24457 2.4249 4.07228e-19)
(2.88287 1.94802 -3.76306e-19)
(3.51629 1.479 -2.02157e-18)
(4.12906 1.02841 3.26741e-18)
(4.70751 0.603999 0)
(5.24303 0.211513 -5.4355e-19)
(5.7258 -0.125911 -1.9869e-18)
(4.80816 -3.734 5.55777e-17)
(14.762 -13.7532 -8.47629e-17)
(24.218 -25.4405 4.38968e-17)
(33.0306 -38.494 4.57064e-17)
(38.8518 -47.4019 -4.67023e-17)
(39.4111 -49.7199 0)
(36.9787 -47.293 9.46424e-17)
(33.6376 -42.5561 -9.61297e-17)
(29.9035 -36.749 9.55772e-17)
(25.6302 -30.1912 -9.73073e-17)
(20.7123 -23.0398 9.59054e-17)
(15.3181 -15.554 -1.93314e-16)
(9.70091 -8.05605 1.92615e-16)
(3.9566 -0.71809 -1.91817e-16)
(-1.85501 6.47631 1.89947e-16)
(-7.411 13.4693 -9.50219e-17)
(-12.2332 20.0606 -8.79115e-17)
(-15.8924 26.1559 1.71565e-16)
(-18.0981 31.7199 -8.45628e-17)
(-18.7415 36.5824 4.10883e-19)
(-17.7669 40.3988 4.35443e-20)
(-14.9581 42.7458 -5.54749e-17)
(-9.99939 43.032 5.58015e-17)
(-3.04097 40.7144 2.12557e-19)
(4.77916 36.0232 0)
(11.8557 30.1416 9.04153e-20)
(16.997 24.3834 0)
(19.8801 19.4311 5.88685e-18)
(20.8905 15.3141 -3.68042e-18)
(20.6922 11.7727 -2.43065e-18)
(19.8831 8.56848 2.44853e-18)
(18.852 5.60835 -2.30977e-18)
(17.7802 2.94093 1.12086e-20)
(16.7047 0.663194 2.30115e-19)
(15.6271 -1.1218 7.23216e-18)
(14.5251 -2.37095 -7.56272e-18)
(13.4174 -3.15973 0)
(12.3731 -3.64335 -8.5303e-18)
(11.4855 -3.98488 8.33259e-18)
(10.8319 -4.30342 -4.80407e-19)
(10.4318 -4.65199 5.76551e-19)
(10.2443 -5.0298 0)
(10.1933 -5.4088 0)
(10.1947 -5.75668 0)
(10.1743 -6.04737 5.11063e-19)
(10.0758 -6.26311 -7.50489e-18)
(9.86202 -6.39255 7.0868e-18)
(9.51271 -6.42892 0)
(9.02173 -6.36838 0)
(8.39424 -6.20881 -6.04688e-18)
(7.644 -5.94895 5.61596e-18)
(6.79092 -5.58808 -5.48544e-18)
(5.85919 -5.1259 4.1712e-18)
(4.87512 -4.56353 -6.80835e-19)
(3.86863 -3.90383 4.03126e-18)
(2.87035 -3.15364 -5.09243e-18)
(1.91729 -2.32675 8.42208e-18)
(1.03816 -1.44307 -7.76291e-18)
(0.246928 -0.539413 0)
(-0.430116 0.346845 4.91079e-19)
(-0.967766 1.19091 6.91354e-18)
(-1.35131 1.9666 -6.41529e-19)
(-1.57817 2.64582 -1.31678e-17)
(-1.65565 3.20649 1.17441e-17)
(-1.59865 3.63474 -5.1187e-18)
(-1.42694 3.92538 -5.36393e-18)
(-1.16087 4.08126 3.96486e-18)
(-0.817319 4.11117 6.06402e-19)
(-0.407652 4.02762 4.4608e-18)
(0.0617866 3.84485 -4.34984e-18)
(0.587058 3.578 9.89858e-19)
(1.163 3.24288 4.0633e-18)
(1.77998 2.85607 -3.51207e-18)
(2.42249 2.43473 0)
(3.07023 1.99547 2.87266e-18)
(3.70179 1.55303 -8.17382e-19)
(4.29938 1.11883 -5.65629e-18)
(4.85303 0.70043 2.38445e-18)
(5.36189 0.304171 -2.10894e-18)
(5.82462 -0.0475944 2.06245e-18)
(4.18809 -2.22141 8.13906e-18)
(-1.72426 4.63019 0)
(-17.6509 16.0273 0)
(-24.4801 22.4123 -1.0451e-19)
(-21.8566 20.0562 0)
(-17.0145 16.6047 0)
(-13.5708 15.1138 0)
(-12.2249 16.2023 -9.31495e-19)
(-12.9459 19.5441 0)
(-15.5184 24.2187 5.4956e-19)
(-19.5502 28.8281 -2.76302e-17)
(-24.9088 32.4443 6.08504e-17)
(-31.844 35.4612 -3.22286e-17)
(-39.976 38.6869 0)
(-46.8012 41.4019 -2.51246e-19)
(-48.8298 41.7411 7.04217e-19)
(-45.0847 39.0418 0)
(-37.9668 34.6897 -2.21831e-17)
(-30.5681 30.5761 4.24631e-17)
(-24.5304 27.716 -2.39826e-18)
(-20.1835 26.2831 -1.69715e-17)
(-17.4753 26.1543 3.71003e-19)
(-16.4813 27.1375 0)
(-17.3206 28.9121 6.92696e-18)
(-19.7745 30.9971 -8.07187e-18)
(-23.0498 32.8595 5.7213e-18)
(-26.0067 34.0486 -6.2323e-18)
(-27.6797 34.2683 -5.41405e-18)
(-27.6239 33.3932 5.5071e-18)
(-25.874 31.4619 0)
(-22.6705 28.6073 6.73016e-18)
(-18.3225 25.0083 -6.81077e-18)
(-13.212 20.8889 -1.98675e-19)
(-7.83983 16.5472 8.72913e-18)
(-2.78428 12.3658 -9.04563e-18)
(1.41715 8.73598 -2.11865e-19)
(4.49834 5.87919 4.55944e-19)
(6.51503 3.80185 1.04992e-17)
(7.71133 2.33291 -1.05609e-17)
(8.35962 1.24797 -9.93192e-18)
(8.68084 0.390486 -2.98474e-19)
(8.81519 -0.326809 1.07858e-17)
(8.83496 -0.949833 0)
(8.77405 -1.49846 -6.15324e-19)
(8.64863 -1.97733 7.62826e-18)
(8.4664 -2.38365 -1.76358e-17)
(8.23034 -2.71182 1.63453e-17)
(7.94074 -2.95585 -7.46903e-18)
(7.59652 -3.11046 0)
(7.19627 -3.17149 -4.62491e-19)
(6.73914 -3.13603 6.60384e-18)
(6.22565 -3.00237 -6.6022e-18)
(5.65852 -2.77025 -8.00117e-20)
(5.04341 -2.44133 5.64975e-18)
(4.38961 -2.01988 -4.30735e-18)
(3.71064 -1.51392 5.14656e-18)
(3.02415 -0.936087 5.28923e-18)
(2.35158 -0.304791 -1.01555e-17)
(1.71312 0.356106 8.66429e-18)
(1.13022 1.02689 -9.02361e-18)
(0.622414 1.68505 0)
(0.203672 2.30223 4.38577e-19)
(-0.115499 2.85432 6.7087e-18)
(-0.329451 3.32195 -5.80604e-18)
(-0.437248 3.69075 -1.48479e-18)
(-0.441083 3.95213 0)
(-0.344512 4.10301 -5.08872e-18)
(-0.151091 4.14506 4.37072e-18)
(0.135859 4.08372 5.65754e-19)
(0.51208 3.92747 5.11449e-19)
(0.970221 3.68745 -9.62448e-19)
(1.49751 3.37725 -1.78338e-20)
(2.07459 3.01256 3.63602e-18)
(2.67666 2.61 -3.1436e-18)
(3.27723 2.18544 3.4436e-19)
(3.85399 1.75206 0)
(4.39412 1.31923 2.98802e-18)
(4.89667 0.892737 -2.29791e-18)
(5.37052 0.479155 0)
(5.81796 0.097076 1.90167e-18)
(5.31139 -5.35582 3.80131e-19)
(11.0039 -12.3161 8.6668e-17)
(12.9566 -13.3788 -8.5356e-17)
(14.5742 -14.5855 1.71281e-16)
(22.2709 -16.6877 -8.59537e-17)
(36.1128 -22.7824 -6.4098e-19)
(54.4654 -32.5419 -7.28951e-17)
(71.6741 -42.9084 7.58313e-17)
(79.0646 -47.7801 5.30059e-19)
(69.9833 -41.9412 -5.30836e-20)
(47.0947 -27.9952 5.32243e-17)
(22.6501 -14.765 4.60552e-17)
(7.3331 -6.99799 -1.03903e-16)
(2.36055 -3.73775 9.16538e-17)
(3.69412 -3.16213 -1.81243e-16)
(6.89651 -3.31915 9.02467e-17)
(8.38906 -2.80642 0)
(7.25244 -1.41765 0)
(4.56334 0.291911 -7.99715e-17)
(1.31601 1.59053 3.73845e-18)
(-2.10371 2.29261 7.58551e-17)
(-5.91846 3.20949 -6.8012e-17)
(-10.7151 5.66405 1.33097e-16)
(-15.85 9.59172 -6.45292e-17)
(-19.0882 13.1628 -5.57456e-17)
(-19.058 14.9591 4.64861e-18)
(-16.3819 15.2259 5.35277e-17)
(-12.5187 14.8861 -5.37174e-19)
(-8.52525 14.4727 5.01402e-19)
(-4.86916 14.08 -9.37268e-19)
(-1.64921 13.6433 0)
(1.14567 13.0814 -3.07299e-17)
(3.53627 12.3408 5.93962e-17)
(5.51662 11.42 -2.85602e-17)
(7.06785 10.3633 0)
(8.19444 9.23831 2.05646e-17)
(8.95386 8.10492 -2.06542e-17)
(9.44753 7.01232 0)
(9.78785 6.00307 0)
(10.0578 5.09735 1.29943e-17)
(10.2956 4.2892 -1.34158e-17)
(10.5078 3.56142 6.2109e-20)
(10.6881 2.90623 0)
(10.8229 2.32393 -9.50193e-18)
(10.8935 1.81721 1.12127e-18)
(10.8806 1.38961 1.01192e-17)
(10.7676 1.04325 5.50996e-19)
(10.5439 0.777667 -1.02874e-18)
(10.2064 0.589462 0)
(9.76035 0.473135 7.95924e-18)
(9.21794 0.422705 -1.45959e-17)
(8.59614 0.433489 7.50846e-18)
(7.91385 0.503231 7.94065e-19)
(7.18964 0.632063 6.84167e-18)
(6.44051 0.821274 -9.90329e-19)
(5.68166 1.07138 -1.11103e-17)
(4.92708 1.38008 4.08953e-18)
(4.19048 1.74103 0)
(3.48516 2.14306 0)
(2.82454 2.57152 -5.20004e-19)
(2.22279 3.00712 -4.85527e-19)
(1.69263 3.42933 0)
(1.24507 3.81796 -6.3285e-18)
(0.890331 4.15328 6.23096e-18)
(0.635982 4.41885 6.55479e-18)
(0.48749 4.60248 3.51624e-19)
(0.44876 4.69635 -4.60988e-18)
(0.521752 4.69699 4.57999e-18)
(0.705597 4.60507 -4.47328e-18)
(0.995004 4.42523 -2.78827e-20)
(1.37846 4.16607 -3.12263e-18)
(1.83701 3.83976 3.06564e-18)
(2.34491 3.46108 2.6582e-18)
(2.87299 3.04561 -3.32607e-18)
(3.39482 2.60746 2.26794e-18)
(3.89352 2.15717 -2.53636e-18)
(4.36614 1.70108 2.23348e-18)
(4.82289 1.2431 -4.23252e-18)
(5.28084 0.790157 8.74633e-20)
(5.73885 0.352775 8.23299e-20)
(1.42798 -0.262049 3.25189e-19)
(18.1559 -9.64053 -3.34288e-19)
(46.1227 -24.7153 4.93504e-19)
(70.2893 -37.1597 -6.33564e-19)
(84.477 -42.7023 4.84507e-19)
(87.621 -41.3578 -2.02252e-19)
(75.9745 -31.4173 -5.61798e-19)
(50.9842 -13.9729 1.3265e-18)
(23 4.73598 -3.51735e-18)
(1.97388 18.6993 2.94626e-18)
(-10.5083 27.6083 -7.87434e-18)
(-16.5939 33.7227 8.1562e-18)
(-17.4654 37.9022 -1.19859e-17)
(-14.0408 39.9768 1.17651e-17)
(-7.69495 39.9905 -4.52811e-19)
(-0.634008 38.9903 -4.37632e-19)
(3.9963 39.0312 -2.10578e-17)
(4.72548 41.28 2.13503e-17)
(2.3912 44.7426 7.38138e-19)
(-1.59077 46.6807 1.21395e-19)
(-3.32103 43.5945 -1.64373e-17)
(2.0508 33.5002 1.69242e-17)
(11.8571 20.1647 0)
(17.7611 10.8575 5.3879e-20)
(17.7417 7.84385 0)
(15.7311 8.03363 0)
(14.6266 8.53844 1.97872e-19)
(14.2752 8.77819 2.11152e-17)
(13.5631 9.22536 -2.15725e-17)
(12.1971 10.1302 -1.84337e-17)
(10.6873 11.2891 1.95865e-17)
(9.56177 12.382 -8.12146e-19)
(8.9774 13.2358 7.53748e-19)
(8.82089 13.8172 0)
(8.91293 14.1556 4.95308e-19)
(9.11716 14.2877 0)
(9.36014 14.2283 0)
(9.60976 13.9864 4.12553e-19)
(9.85484 13.583 0)
(10.0955 13.0468 0)
(10.3308 12.4069 -1.22486e-17)
(10.5515 11.6915 1.15302e-17)
(10.7429 10.9293 0)
(10.8866 10.1496 0)
(10.9629 9.38009 0)
(10.9534 8.64528 4.81422e-19)
(10.8434 7.96463 -5.4826e-19)
(10.6253 7.35082 -7.49777e-18)
(10.3002 6.80908 7.98523e-18)
(9.87829 6.33803 -7.14089e-18)
(9.37726 5.93216 7.90967e-18)
(8.81802 5.58523 -7.68778e-19)
(8.22048 5.29316 -3.32351e-19)
(7.60023 5.05544 0)
(6.96745 4.87465 0)
(6.32794 4.75457 4.46614e-18)
(5.68548 4.69786 3.90835e-19)
(5.04427 4.70423 -4.68014e-18)
(4.41053 4.76933 4.17743e-18)
(3.79328 4.88469 -4.05375e-18)
(3.20469 5.03833 -6.81906e-18)
(2.65943 5.21542 3.77465e-19)
(2.17085 5.3943 1.26309e-17)
(1.75154 5.55286 -6.20518e-18)
(1.4175 5.67484 -3.25789e-19)
(1.18216 5.74391 -6.67132e-19)
(1.05531 5.74605 -4.62888e-18)
(1.04301 5.67207 8.79291e-18)
(1.14622 5.51792 -4.16834e-18)
(1.35921 5.28487 -4.82771e-19)
(1.6682 4.9794 -3.33587e-18)
(2.05115 4.61259 3.62527e-18)
(2.47991 4.1984 0)
(2.92566 3.75115 3.48605e-19)
(3.36671 3.28272 0)
(3.79553 2.80063 -2.22455e-18)
(4.22092 2.30831 1.05724e-19)
(4.66325 1.80819 1.99014e-18)
(5.14425 1.30735 -1.32806e-18)
(5.65151 0.80303 -3.19044e-19)
(-3.1791 1.9252 -2.29302e-17)
(-2.36552 -0.940711 3.45196e-17)
(6.58125 -12.1734 1.60816e-19)
(19.9286 -28.4132 3.48875e-17)
(35.1479 -46.2122 -3.56716e-17)
(50.1145 -62.6872 3.33612e-17)
(61.0311 -75.0823 -6.58339e-17)
(65.2497 -81.3161 3.2077e-17)
(63.3473 -81.3668 -2.77265e-17)
(58.2128 -77.2063 2.78852e-17)
(52.5197 -71.1586 0)
(47.8745 -64.8009 -3.92793e-20)
(45.0923 -59.0199 -9.2697e-21)
(44.1952 -54.4288 0)
(43.8201 -51.2099 0)
(40.9105 -48.2497 0)
(32.4402 -43.8159 0)
(18.6357 -37.1124 -1.39056e-19)
(-2.38315 -24.4157 0)
(-35.8618 -1.79023 -1.52092e-17)
(-73.6438 25.619 1.52939e-17)
(-89.6551 43.2693 2.63296e-17)
(-74.1665 43.5068 -2.69306e-17)
(-47.9723 35.5356 -1.34885e-17)
(-29.6681 30.4147 1.33442e-17)
(-20.625 29.9072 -3.9597e-19)
(-16.2465 31.3416 2.02902e-19)
(-13.2682 32.5709 8.92225e-18)
(-10.1491 32.655 3.1331e-18)
(-6.45339 31.5646 -1.24014e-17)
(-2.444 29.7313 0)
(1.37738 27.602 -4.62153e-19)
(4.62692 25.4649 -4.00574e-19)
(7.16981 23.4913 0)
(9.04077 21.7683 -4.93692e-19)
(10.3493 20.3109 0)
(11.2164 19.0693 0)
(11.7621 17.9882 -1.12433e-17)
(12.0863 17.0159 2.06323e-17)
(12.2648 16.1073 -9.94762e-18)
(12.3516 15.2271 -8.23276e-18)
(12.3805 14.3497 8.37872e-18)
(12.3676 13.4619 1.21288e-19)
(12.3127 12.5626 0)
(12.2015 11.6624 -6.5397e-18)
(12.0112 10.7808 5.81048e-18)
(11.7203 9.9438 0)
(11.3158 9.18027 0)
(10.8005 8.51519 4.90173e-18)
(10.1957 7.96441 -5.38091e-18)
(9.53634 7.53196 -5.36833e-18)
(8.86021 7.21081 5.072e-18)
(8.19779 6.9866 4.73555e-18)
(7.56597 6.84208 -8.60313e-18)
(6.96762 6.76062 4.19618e-18)
(6.39584 6.72778 9.97721e-19)
(5.84009 6.73146 0)
(5.29144 6.76146 -3.95653e-19)
(4.74569 6.80911 3.01956e-18)
(4.20397 6.86711 -6.11729e-18)
(3.67174 6.92811 3.17379e-18)
(3.15742 6.98407 0)
(2.67723 7.03234 3.75138e-19)
(2.2473 7.06847 0)
(1.88155 7.07909 3.25254e-19)
(1.59584 7.05137 2.57077e-19)
(1.4058 6.97385 4.81045e-19)
(1.32333 6.83609 3.7881e-18)
(1.35426 6.63093 -3.28239e-18)
(1.49585 6.35609 3.88879e-19)
(1.73515 6.01499 3.00155e-18)
(2.04962 5.61663 -3.63402e-18)
(2.41109 5.17343 2.56015e-18)
(2.79324 4.69848 -2.49028e-18)
(3.18104 4.20233 2.43894e-18)
(3.57731 3.69106 -1.87046e-18)
(4.00143 3.16673 -1.84103e-18)
(4.48011 2.63092 1.78499e-18)
(5.03607 2.09145 -4.23517e-19)
(5.63722 1.5229 3.93156e-19)
(-20.0327 10.2509 5.14754e-18)
(-65.585 33.051 6.22334e-18)
(-102.514 50.7635 -1.19858e-17)
(-108.35 52.4826 8.69421e-18)
(-86.5371 39.5891 -3.46298e-18)
(-56.0349 22.1213 -1.34681e-19)
(-29.9191 6.52247 -3.18387e-18)
(-12.0646 -4.98599 8.61018e-18)
(-1.71416 -12.4439 2.5385e-18)
(3.03027 -16.6081 -7.70281e-18)
(3.79582 -18.3282 4.08367e-19)
(1.49997 -18.214 1.53515e-17)
(-3.93409 -16.4272 -1.56687e-17)
(-13.6419 -12.841 2.20341e-17)
(-29.871 -6.58426 -2.24744e-17)
(-52.6618 2.85862 -2.87054e-17)
(-69.4884 8.00536 2.93564e-17)
(-61.5715 -0.549227 1.4086e-19)
(-34.0192 -16.3718 0)
(-8.02779 -27.3063 3.03786e-17)
(8.14276 -30.3451 -3.06214e-17)
(17.3707 -27.7716 -3.48322e-19)
(22.6136 -22.376 -2.67291e-17)
(24.7226 -16.306 2.73095e-17)
(24.1444 -10.5355 6.47853e-20)
(21.8084 -5.21573 0)
(18.7729 -0.38851 1.87534e-19)
(15.727 3.86305 4.79009e-19)
(12.9951 7.52321 2.47598e-17)
(10.7433 10.597 -2.51257e-17)
(9.08054 13.055 -1.52416e-17)
(8.04756 14.8812 1.57462e-17)
(7.56995 16.1265 2.74565e-19)
(7.47678 16.9052 5.26743e-18)
(7.57416 17.3215 -8.37896e-18)
(7.72329 17.482 3.16934e-18)
(7.83369 17.4777 6.19268e-19)
(7.85565 17.3623 -6.35666e-19)
(7.77003 17.1613 1.59106e-19)
(7.57155 16.8815 -6.05462e-21)
(7.27124 16.5382 -1.28798e-19)
(6.8849 16.1412 1.31735e-19)
(6.42667 15.6891 3.04563e-19)
(5.91681 15.1793 -5.582e-19)
(5.3873 14.6053 1.76663e-18)
(4.87999 13.9514 -1.52637e-18)
(4.44882 13.2128 0)
(4.15332 12.4086 -2.79314e-18)
(4.03277 11.5719 2.92951e-18)
(4.08749 10.7456 -2.78586e-18)
(4.27847 9.97887 1.69826e-19)
(4.54039 9.31688 -2.65285e-20)
(4.80139 8.79106 8.48821e-21)
(4.99972 8.4144 3.13313e-20)
(5.0929 8.18211 2.98511e-18)
(5.05972 8.07572 -2.88401e-19)
(4.89814 8.06825 0)
(4.6212 8.12906 3.0593e-18)
(4.25259 8.22779 -2.24964e-18)
(3.82163 8.33761 0)
(3.35956 8.43707 2.60405e-18)
(2.89474 8.51116 -2.08079e-18)
(2.44964 8.54833 0)
(2.04661 8.54277 2.21483e-19)
(1.70541 8.49352 0)
(1.44172 8.39865 3.39189e-18)
(1.26859 8.25404 -7.29365e-18)
(1.19538 8.05507 3.36072e-18)
(1.22556 7.79782 -4.17785e-19)
(1.35472 7.48124 -3.8847e-19)
(1.56995 7.10849 2.63248e-18)
(1.85123 6.68745 -2.23092e-18)
(2.17638 6.22934 2.72451e-19)
(2.52882 5.74638 2.52784e-19)
(2.90534 5.24776 -4.96671e-19)
(3.31959 4.73758 -2.42076e-19)
(3.79784 4.21662 -1.81939e-18)
(4.3656 3.68346 8.51596e-20)
(5.04315 3.15026 1.60722e-18)
(5.76953 2.54728 3.06379e-19)
(-15.7746 5.27567 0)
(-37.0512 12.3887 2.57583e-19)
(-45.1357 19.0102 -1.39529e-20)
(-40.595 18.8177 6.81792e-17)
(-26.0882 16.3274 -1.33949e-16)
(-7.48985 10.1301 1.25524e-16)
(9.99911 2.06218 -6.11151e-17)
(23.7851 -6.16882 0)
(33.3165 -13.7147 -4.32459e-19)
(39.1692 -20.1206 4.23518e-17)
(42.2223 -25.3166 -4.35698e-17)
(43.2655 -29.3791 -3.48706e-17)
(42.8453 -32.3239 6.66738e-17)
(41.3347 -34.0364 -4.59414e-18)
(39.0583 -34.209 -5.04182e-18)
(36.5356 -32.3875 -2.29676e-17)
(35.1545 -28.8032 3.10429e-20)
(37.0729 -25.2234 6.28422e-18)
(43.1291 -23.946 -6.49739e-18)
(51.9762 -25.6814 -2.28026e-19)
(61.5162 -29.1874 1.31945e-19)
(69.8652 -32.709 6.27005e-19)
(75.2182 -34.8687 -8.73698e-18)
(75.7117 -34.6547 -9.23964e-20)
(70.5126 -31.7495 9.10842e-18)
(60.7207 -26.7131 2.53691e-19)
(48.8268 -20.6157 -6.80468e-18)
(37.2848 -14.5041 1.14413e-17)
(27.5428 -9.04247 -9.03942e-18)
(19.9718 -4.48264 3.87818e-18)
(14.3001 -0.811909 0)
(10.0542 2.08464 -2.86309e-18)
(6.80577 4.33292 5.0178e-18)
(4.25846 6.02805 -2.0306e-18)
(2.22798 7.24034 5.84458e-19)
(0.608297 8.02559 -8.53526e-19)
(-0.66115 8.42957 1.1835e-20)
(-1.61316 8.50681 0)
(-2.26676 8.32558 7.39602e-20)
(-2.63466 7.95597 1.04643e-19)
(-2.73594 7.45461 -3.04388e-20)
(-2.59835 6.86992 -5.06924e-20)
(-2.24675 6.25694 4.30838e-20)
(-1.7108 5.66853 0)
(-1.02477 5.14784 0)
(-0.219381 4.73316 -7.16178e-19)
(0.674797 4.44475 6.46886e-19)
(1.62325 4.27899 1.08414e-19)
(2.58586 4.22289 1.10574e-18)
(3.51464 4.26185 -2.3448e-18)
(4.35581 4.38183 1.18967e-18)
(5.05713 4.57103 0)
(5.5764 4.81969 -1.53857e-18)
(5.88835 5.11881 1.47479e-18)
(5.98701 5.45944 0)
(5.88399 5.83239 -1.73062e-18)
(5.6047 6.22778 1.57224e-18)
(5.18391 6.63445 -1.59393e-18)
(4.66149 7.03912 1.42441e-18)
(4.07925 7.42725 0)
(3.47736 7.78273 -3.96348e-19)
(2.89338 8.094 -2.38129e-19)
(2.35667 8.34724 1.49894e-18)
(1.88483 8.53235 -2.23081e-19)
(1.49142 8.64813 -1.4409e-18)
(1.18544 8.69406 0)
(0.972353 8.66932 -1.94601e-19)
(0.856532 8.57356 0)
(0.840922 8.40684 0)
(0.925203 8.17104 2.39055e-18)
(1.10376 7.87145 -2.33139e-18)
(1.3652 7.51782 -1.878e-18)
(1.69562 7.1236 -1.89753e-19)
(2.08539 6.70291 1.68529e-18)
(2.53507 6.26642 1.94219e-18)
(3.05666 5.81961 -1.65952e-18)
(3.6699 5.3658 1.96688e-19)
(4.38664 4.89746 1.32279e-18)
(5.22141 4.44426 -2.81964e-18)
(6.08274 3.86098 8.71394e-19)
(11.824 -2.51523 1.07795e-16)
(41.7757 -5.49297 -8.03722e-17)
(66.6723 -11.7459 -7.41661e-17)
(79.6458 -7.97657 7.59478e-17)
(77.4224 -2.04426 5.35508e-21)
(66.418 6.82862 2.52687e-21)
(52.9183 15.4972 0)
(41.9882 22.3735 5.02905e-17)
(35.1284 27.2128 -5.1539e-17)
(31.4381 30.6129 0)
(29.5298 33.3309 -3.55627e-17)
(28.3675 35.8561 6.76722e-17)
(27.3393 38.3096 -4.33943e-18)
(26.1963 40.5883 -5.28701e-17)
(24.9387 42.5891 2.5065e-17)
(23.6475 44.2564 2.44807e-21)
(22.4119 45.546 6.63654e-20)
(21.1661 46.3049 0)
(19.6182 46.29 1.50299e-17)
(17.5379 45.2511 -1.51804e-17)
(15.0219 42.9732 -4.72765e-20)
(12.3993 39.3613 1.03371e-17)
(10.022 34.5509 -1.07038e-17)
(8.09713 28.9681 8.60932e-18)
(6.79604 23.1672 -8.7501e-18)
(6.16413 17.7126 -2.55389e-19)
(6.0803 13.0401 7.57369e-18)
(6.31617 9.38216 -5.22057e-19)
(6.63729 6.77616 -1.32896e-17)
(6.86926 5.11256 4.51885e-19)
(6.9214 4.2203 5.93848e-18)
(6.77329 3.92635 5.19389e-18)
(6.44513 4.0714 -5.42322e-18)
(5.98332 4.52665 0)
(5.43657 5.18683 1.41607e-19)
(4.86182 5.96244 1.21784e-19)
(4.30389 6.78379 0)
(3.802 7.59621 5.29109e-18)
(3.38842 8.35331 -5.39266e-18)
(3.08652 9.01288 -6.78091e-20)
(2.9138 9.54314 0)
(2.88017 9.92495 5.04e-20)
(2.99231 10.1449 2.90727e-18)
(3.24506 10.1999 -2.78483e-18)
(3.62356 10.1002 0)
(4.10728 9.86724 -1.60587e-18)
(4.66582 9.52481 1.77598e-18)
(5.25831 9.09614 0)
(5.83682 8.60922 0)
(6.34907 8.09442 1.74141e-20)
(6.74208 7.58197 2.99653e-20)
(6.96979 7.0999 0)
(7.00156 6.67117 -1.94126e-19)
(6.83326 6.31126 2.42249e-19)
(6.48848 6.0303 5.32594e-19)
(6.00456 5.8352 8.03877e-20)
(5.42151 5.72906 -1.32719e-18)
(4.77519 5.71008 1.45723e-18)
(4.09494 5.77125 2.04507e-19)
(3.40614 5.90107 -7.204e-19)
(2.73218 6.08332 1.50569e-19)
(2.09379 6.29522 0)
(1.51449 6.52244 0)
(1.01442 6.75267 -9.85307e-19)
(0.605752 6.96484 1.07157e-18)
(0.298347 7.14442 0)
(0.100275 7.28298 -1.13713e-19)
(0.0169885 7.37434 0)
(0.0510329 7.41494 -1.02509e-18)
(0.200872 7.40385 1.00038e-18)
(0.459976 7.34306 -2.28706e-19)
(0.817645 7.23742 -2.11122e-18)
(1.26318 7.09381 1.80861e-18)
(1.78829 6.91987 -2.02828e-19)
(2.39188 6.72242 0)
(3.079 6.50452 0)
(3.85713 6.27001 0)
(4.72092 5.99646 1.38689e-18)
(5.67355 5.74372 1.11112e-19)
(6.61247 5.29095 -2.18375e-18)
(6.89599 -3.82664 -8.34766e-18)
(0.767938 -3.17407 -1.32883e-17)
(-20.7985 -1.51064 1.36015e-17)
(-38.626 0.00439581 -1.66009e-17)
(-47.3532 -2.6973 1.72624e-17)
(-49.6247 -6.19012 2.69468e-19)
(-47.5486 -9.36036 2.52385e-19)
(-41.9509 -11.7797 0)
(-33.2462 -13.5007 9.46969e-20)
(-22.1321 -14.5568 0)
(-10.0079 -14.8632 1.65655e-19)
(1.10631 -14.3329 1.83239e-17)
(9.28247 -13.0876 -1.85305e-17)
(13.5823 -11.5728 -1.2607e-17)
(14.3824 -10.3411 1.26644e-17)
(12.8935 -9.77219 -7.44622e-18)
(10.4338 -9.9379 7.73839e-18)
(7.94347 -10.5862 0)
(5.88639 -11.3252 0)
(4.44252 -11.8839 0)
(3.67643 -12.1827 8.32542e-19)
(3.59968 -12.2072 -8.91278e-19)
(4.16545 -11.9419 9.76595e-19)
(5.24266 -11.4263 -3.30328e-18)
(6.61764 -10.7081 2.21271e-18)
(8.03489 -9.82811 0)
(9.25448 -8.827 5.59442e-20)
(10.1073 -7.72457 0)
(10.5211 -6.52436 -6.01057e-18)
(10.5139 -5.22961 5.97488e-18)
(10.1636 -3.84871 7.35069e-20)
(9.57633 -2.39367 0)
(8.86208 -0.880388 6.76742e-18)
(8.10912 0.672867 -1.3357e-17)
(7.37612 2.24935 6.76744e-18)
(6.71036 3.82674 -6.29773e-18)
(6.12759 5.3912 1.23895e-17)
(5.63198 6.92846 -6.08505e-18)
(5.21557 8.4005 0)
(4.85682 9.76791 0)
(4.53662 10.9978 0)
(4.23871 12.061 4.06017e-18)
(3.95675 12.9278 -1.14252e-17)
(3.69024 13.5604 7.2003e-18)
(3.43709 13.9181 0)
(3.20095 13.9746 -4.50224e-18)
(2.99207 13.725 4.39231e-18)
(2.82106 13.1776 2.70104e-18)
(2.69198 12.3618 -8.92317e-19)
(2.59616 11.3313 -6.10275e-19)
(2.51809 10.1638 -4.89963e-19)
(2.44727 8.95628 -8.56404e-19)
(2.38369 7.7913 0)
(2.32769 6.71501 0)
(2.27423 5.76324 1.15511e-19)
(2.20717 4.9685 -4.64045e-20)
(2.10525 4.35146 0)
(1.95019 3.91456 0)
(1.73465 3.64796 -4.85896e-21)
(1.46424 3.5334 -7.62713e-20)
(1.15637 3.54981 0)
(0.834058 3.67475 0)
(0.521209 3.88275 5.56765e-20)
(0.242998 4.1485 6.57401e-20)
(0.022325 4.4535 -8.40136e-19)
(-0.12249 4.78017 1.50259e-18)
(-0.177278 5.11216 1.70043e-19)
(-0.131935 5.43617 -1.65409e-18)
(0.0191629 5.74162 1.79406e-18)
(0.276817 6.02036 -1.71078e-18)
(0.637239 6.26671 3.18704e-19)
(1.09283 6.47552 8.34497e-19)
(1.63606 6.64723 -1.6143e-18)
(2.26139 6.78495 3.85711e-20)
(2.96418 6.88782 2.96165e-18)
(3.74063 6.95086 -1.59532e-18)
(4.58336 6.97671 0)
(5.47939 6.93381 -3.14937e-19)
(6.40551 6.88827 0)
(7.29451 6.63607 1.11281e-18)
(-16.9436 3.17234 0)
(-33.3808 3.01387 5.00629e-20)
(-32.644 0.950068 -4.63241e-20)
(-22.2991 -5.86968 5.63714e-17)
(-4.94185 -10.6428 -1.09161e-16)
(18.3645 -16.3064 5.2058e-17)
(45.1766 -22.568 -2.51726e-19)
(72.8381 -29.0706 0)
(98.5919 -35.2319 0)
(118.784 -39.945 0)
(128.625 -41.8181 -1.66163e-19)
(123.968 -39.7589 -1.73971e-19)
(104.434 -33.8274 0)
(74.9323 -25.5312 3.51801e-20)
(43.4391 -17.1366 2.52912e-19)
(16.9497 -10.6094 -9.00467e-18)
(-0.65502 -6.93572 8.90836e-18)
(-8.83571 -6.19319 -1.27269e-19)
(-10.2333 -7.69211 0)
(-8.73562 -10.0571 1.42807e-19)
(-6.60273 -12.4263 5.07898e-20)
(-4.26206 -14.5186 -3.96184e-18)
(-1.7496 -16.2095 8.72457e-19)
(0.704738 -17.4376 3.3056e-18)
(2.86261 -18.2243 -8.93052e-21)
(4.63568 -18.6609 9.22946e-20)
(6.02465 -18.8414 4.46045e-19)
(7.05967 -18.8261 -8.08132e-19)
(7.77515 -18.6412 1.20355e-19)
(8.20446 -18.2932 1.08724e-19)
(8.37894 -17.7832 1.19816e-19)
(8.3287 -17.1158 -1.63241e-18)
(8.08278 -16.3028 1.64678e-18)
(7.66985 -15.3608 2.26584e-19)
(7.11777 -14.3062 -1.43127e-19)
(6.45499 -13.1575 8.48839e-20)
(5.70484 -11.945 -8.50451e-20)
(4.89288 -10.6971 0)
(4.04438 -9.42559 1.70864e-19)
(3.17826 -8.13505 -3.0702e-18)
(2.30922 -6.84568 3.2448e-18)
(1.44713 -5.57529 0)
(0.601584 -4.33976 -1.59517e-19)
(-0.216489 -3.15632 1.52498e-19)
(-0.99462 -2.04223 2.5003e-18)
(-1.71268 -1.0301 -4.76924e-18)
(-2.32855 -0.160866 2.14621e-18)