/*--------------------------------*- C++ -*----------------------------------*\
| =========                 |                                                 |
| \\      /  F ield         | OpenFOAM: The Open Source CFD Toolbox           |
|  \\    /   O peration     | Version:  2012                                  |
|   \\  /    A nd           | Website:  www.openfoam.com                      |
|    \\/     M anipulation  |                                                 |
\*---------------------------------------------------------------------------*/
FoamFile
{
    version     2.0;
    format      ascii;
    class       volScalarField;
    location    "0.73";
    object      p;
}
// * * * * * * * * * * * * * * * * * * * * * * * * * * * * * * * * * * * * * //

dimensions      [0 2 -2 0 0 0 0];


internalField   nonuniform List<scalar> 
42400
(
12997.7
12692.7
12319.7
11829.4
11101.9
10234.9
9321.15
8436.53
7614.45
6855.61
6156.38
5529.97
4997.33
4552.45
4157.04
3772.67
3386.26
3004.95
2638.99
2294.67
1975.08
1680.96
1412.6
1170.05
952.131
757.697
585.345
434.114
303.127
191.508
98.311
22.4678
-37.2507
-82.2839
-114.275
-135.02
-146.336
-149.799
-146.913
-139.449
-128.899
-116.335
-102.699
-88.7357
-74.9981
-61.8618
-49.562
-38.2333
-27.9363
-18.6793
-10.4342
-3.148
3.24871
8.83422
13.6898
17.8946
21.5217
24.6358
27.2914
29.5335
31.3977
32.9128
34.1024
34.9876
35.5892
35.929
36.0304
35.9185
35.619
35.1569
34.5555
33.8351
33.0123
32.0995
31.1053
30.0337
28.8844
27.65
26.3142
24.7664
-11669.2
-11267.2
-10719.9
-10036.8
-9220.37
-8347.23
-7464
-6602.7
-5779.81
-5005.71
-4300.02
-3681.83
-3149.97
-2673.1
-2227.07
-1820.07
-1465.71
-1169.11
-923.06
-719.528
-552.865
-416.627
-305.107
-215.126
-144.76
-92.4365
-56.0529
-33.0574
-20.6246
-15.9883
-16.7971
-21.2391
-27.6788
-35.0475
-42.5932
-49.7286
-55.9623
-60.9266
-64.6019
-66.7636
-67.1002
-65.7216
-62.8032
-58.5731
-53.3088
-47.3057
-40.8564
-34.2269
-27.6413
-21.2736
-15.2445
-9.62498
-4.44532
0.293988
4.60984
8.52816
12.0757
15.2754
18.1444
20.6926
22.9246
24.841
26.4416
27.7285
28.7084
29.3945
29.8068
29.9709
29.9162
29.6733
29.2715
28.7367
28.0902
27.3487
26.5239
25.6238
24.6533
23.6131
22.4958
21.2592
-5393.85
-5460.95
-5585.61
-5724.58
-5862.13
-5937.56
-5924.87
-5814.7
-5605.6
-5295.94
-4880.82
-4353.74
-3718.92
-3024.93
-2370.34
-1853.41
-1501.52
-1277.87
-1134.13
-1038.19
-971.696
-921.995
-879.648
-838.308
-793.049
-741.076
-681.392
-614.5
-542.533
-468.927
-397.507
-331.52
-273.497
-224.627
-184.742
-153.03
-128.347
-109.427
-95.0676
-84.3455
-75.946
-68.8972
-62.5354
-56.422
-50.3216
-44.1668
-38.0081
-31.9593
-26.1442
-20.6579
-15.5506
-10.8299
-6.47497
-2.45312
1.26748
4.71104
7.89228
10.8172
13.4849
15.889
18.0199
19.8667
21.4204
22.6759
23.6358
24.3107
24.7203
24.8915
24.8558
24.6463
24.2945
23.8283
23.2703
22.6378
21.9432
21.1953
20.4006
19.5638
18.6878
17.751
10544.5
10451.7
10284.8
9974.37
9527.58
8971.11
8334.04
7640.51
6909.97
6156.89
5392.95
4633.4
3900.11
3216.66
2594.3
2026.72
1508.52
1044.06
640.43
305.257
46.7244
-132.203
-237.856
-284.974
-293.047
-279.869
-258.389
-236.093
-216.113
-199.024
-184.912
-173.707
-165.2
-159.206
-155.78
-154.641
-155.071
-156.011
-156.091
-153.742
-148.668
-140.634
-129.606
-115.996
-100.614
-84.5061
-68.7175
-54.0965
-41.1764
-30.1531
-20.9474
-13.3273
-7.02133
-1.78574
2.5746
6.21137
9.24527
11.7754
13.8835
15.6346
17.0775
18.2462
19.1636
19.8455
20.3058
20.5602
20.6279
20.532
20.2983
19.9528
19.5202
19.0217
18.4746
17.8913
17.2804
16.6472
15.9956
15.3282
14.6456
13.9206
-9237.98
-8669.03
-7921.56
-7044.52
-5983.36
-4823.23
-3619.93
-2446.02
-1364.26
-413.727
384.232
1018.85
1490.56
1815.65
2019.91
2131.3
2170.65
2151.07
2081.84
1971.4
1828.28
1661.05
1478.29
1286.87
1091.64
898.275
714.483
547.835
402.976
280.773
179.683
96.4453
27.3304
-30.6636
-79.4039
-119.806
-151.62
-173.945
-186.049
-187.57
-178.367
-159.695
-133.999
-104.121
-72.9401
-43.2146
-17.2607
3.678
19.3154
29.6606
35.2409
37.0898
36.4141
34.3094
31.61
28.8609
26.3653
24.2547
22.5532
21.2243
20.2023
19.4117
18.7799
18.244
17.7549
17.2783
16.7934
16.2903
15.7671
15.2268
14.6754
14.1195
13.5651
13.0167
12.4766
11.9452
11.422
10.9055
10.3917
9.84661
4992.26
4610.09
4096.87
3443.81
2590
1678.14
797.991
2.28154
-685.931
-1257.57
-1710.97
-2053.23
-2296.25
-2453.58
-2540.13
-2571.59
-2561.87
-2521.67
-2458.47
-2377.4
-2282.29
-2175.57
-2057.21
-1926.15
-1782.13
-1626.75
-1464.43
-1301.5
-1143.73
-994.531
-855.482
-727.918
-613.443
-513.3
-427.284
-353.997
-291.792
-238.97
-193.782
-154.742
-120.701
-90.9685
-65.25
-43.4974
-25.7227
-11.6731
-0.788122
7.3269
12.8182
16.1495
17.9544
18.7597
18.9607
18.8304
18.5332
18.1527
17.7222
17.2515
16.7425
16.1968
15.6176
15.0097
14.3792
13.7326
13.0774
12.4213
11.7716
11.1348
10.5159
9.91919
9.34805
8.80573
8.29479
7.81661
7.37083
6.95552
6.56786
6.20396
5.85694
5.48771
186.038
110.137
48.6043
-11.0733
-130.84
-296.855
-473.994
-628.108
-745.592
-832.826
-905.23
-976.947
-1054.26
-1133.6
-1205.65
-1262.73
-1301.88
-1322.32
-1321.17
-1292.73
-1229.74
-1128.1
-991.528
-832.671
-671.594
-530.784
-427.071
-364.94
-336.373
-327.132
-324.147
-319.389
-309.733
-294.86
-275.755
-253.382
-228.569
-202.161
-174.882
-147.467
-120.571
-94.7583
-70.6834
-48.9501
-30.0482
-14.5503
-2.28811
6.93671
13.4221
17.6477
20.0759
21.137
21.2106
20.614
19.5986
18.352
17.005
15.641
14.3085
13.0319
11.8215
10.6802
9.60818
8.60553
7.67264
6.80997
6.01722
5.29282
4.63412
4.03799
3.50165
3.02297
2.60015
2.23105
1.91253
1.64033
1.40965
1.21463
1.04597
0.860977
-3047.87
-2281.99
-1369.67
-636.087
-22.6312
439.846
810.59
1113.39
1354.85
1538.81
1669.98
1755.18
1804
1821.37
1794.83
1698.01
1521.35
1293.63
1062.65
864.625
714.652
612.855
548.47
504.165
463.026
415.585
361.467
305.849
254.161
209.357
172.253
142.416
118.72
99.8294
84.5646
72.0841
61.816
53.3713
46.4308
40.6189
35.7058
31.674
28.443
25.8731
23.8525
22.5374
21.5573
20.7491
20.0006
19.2085
18.3012
17.2464
16.0491
14.7404
13.3626
11.9566
10.5534
9.17278
7.82629
6.52098
5.26321
4.06081
2.92354
1.86201
0.885935
0.00240068
-0.785156
-1.4769
-2.07574
-2.58607
-3.01277
-3.36072
-3.63485
-3.84043
-3.98335
-4.07008
-4.10725
-4.10231
-4.06636
-4.0432
8377.87
8248.78
8096.8
7883.72
7564.26
7167.94
6705.85
6185.33
5608.17
4963.54
4238.61
3411.59
2438.91
1347.08
355.589
-294.827
-629.206
-822.704
-933.574
-937.762
-847.479
-701.725
-533.095
-364.616
-211.737
-83.1785
18.1953
93.7991
147.268
183.209
205.806
218.277
222.946
221.484
215.203
205.166
192.23
177.145
160.643
143.527
126.436
109.796
94.0232
79.4991
66.4905
55.144
45.4793
37.4132
30.7769
25.3415
20.8551
17.0837
13.8377
10.982
8.42807
6.11975
4.01943
2.09994
0.340872
-1.27225
-2.74821
-4.09067
-5.2997
-6.37385
-7.31229
-8.11623
-8.78954
-9.33835
-9.77026
-10.0935
-10.3163
-10.4469
-10.4935
-10.4644
-10.368
-10.2127
-10.0067
-9.75862
-9.4806
-9.2152
-8875.01
-8534.17
-8052.95
-7428.58
-6604.47
-5677.83
-4709.68
-3773.31
-2933.75
-2217.48
-1617.48
-1126.64
-758.068
-521.927
-392.465
-324.853
-293.821
-287.08
-285.429
-272.144
-243.079
-202.343
-156.296
-110.368
-68.2492
-32.1578
-2.78867
20.2618
37.9124
50.7765
59.4834
65.1388
67.2627
66.7326
63.8705
58.9482
52.3572
44.5873
36.2418
27.9889
20.4601
14.1605
9.40235
6.26825
4.59642
4.01018
4.03703
4.2225
4.22223
3.83955
3.00779
1.76524
0.214893
-1.52284
-3.3419
-5.16374
-6.93732
-8.63199
-10.2287
-11.7134
-13.0726
-14.2933
-15.3637
-16.2752
-17.0239
-17.6113
-18.0437
-18.3306
-18.4832
-18.5137
-18.4341
-18.2562
-17.9914
-17.6508
-17.245
-16.7842
-16.278
-15.736
-15.171
-14.6224
-5947.53
-5673.34
-5333.15
-4976.35
-4555.49
-4111.14
-3643.17
-3144.78
-2616.95
-2079.48
-1568.71
-1124.35
-775.687
-533.223
-383.996
-289.961
-211.571
-146.06
-113.868
-117.185
-141.242
-174.019
-210.124
-247.16
-283.605
-318.105
-349.186
-375.181
-394.411
-405.54
-407.807
-401.115
-386.004
-363.498
-335.012
-302.254
-267.086
-231.39
-196.678
-163.987
-134.035
-107.51
-84.8084
-65.7037
-50.005
-37.4792
-27.8717
-20.9318
-16.2723
-13.5411
-12.3858
-12.421
-13.2684
-14.6039
-16.188
-17.8598
-19.5196
-21.1086
-22.592
-23.9454
-25.1487
-26.1829
-27.032
-27.6854
-28.1397
-28.3999
-28.4774
-28.3878
-28.1492
-27.7797
-27.2969
-26.7169
-26.0548
-25.3243
-24.5382
-23.708
-22.8445
-21.9581
-21.0615
-20.1898
12974.8
12658.4
12225.8
11634
10861.6
10061.7
9298.68
8580.57
7882.16
7163.64
6386.18
5519
4547
3481.84
2369.85
1315.47
483.155
-17.8253
-246.583
-350.779
-426.672
-497.511
-559.2
-606.775
-638.394
-654.162
-655.324
-643.833
-622.009
-592.187
-556.464
-516.647
-474.392
-431.299
-388.825
-348.119
-309.888
-274.381
-241.38
-210.494
-181.558
-154.477
-129.394
-106.906
-87.4239
-71.1872
-58.2714
-48.5492
-41.7208
-37.3127
-34.8492
-33.8364
-33.8255
-34.4414
-35.4058
-36.517
-37.6386
-38.6835
-39.5989
-40.3536
-40.9291
-41.3139
-41.5011
-41.4895
-41.2837
-40.8947
-40.3384
-39.634
-38.8016
-37.8609
-36.83
-35.7255
-34.5624
-33.3539
-32.1124
-30.8488
-29.5733
-28.296
-27.0281
-25.7989
-6103.02
-5909.68
-5649.12
-5299.21
-4854.39
-4312.36
-3672.03
-2957.48
-2220.31
-1526.06
-937.469
-506.739
-290.078
-366.973
-787.552
-1451.23
-2085.11
-2425.31
-2427.05
-2241.54
-2025.35
-1836.29
-1672.25
-1520.89
-1373.99
-1227.66
-1081.61
-937.471
-797.23
-661.211
-529.233
-402.424
-284.653
-181.536
-97.7495
-35.1537
7.29327
32.559
44.3818
46.4461
41.9513
33.5195
23.116
12.0929
1.34603
-8.5802
-17.4374
-25.1546
-31.7563
-37.3313
-41.9913
-45.8564
-49.0371
-51.6245
-53.6898
-55.2879
-56.4645
-57.2625
-57.7243
-57.8893
-57.7907
-57.4532
-56.8951
-56.1314
-55.1777
-54.0523
-52.7765
-51.3732
-49.8656
-48.2758
-46.6237
-44.9271
-43.2013
-41.4599
-39.7145
-37.9757
-36.2527
-34.5548
-32.8911
-31.2844
-1857.48
-1870.95
-1951.5
-2112.8
-2355.73
-2570.01
-2671.21
-2632.74
-2474.14
-2226.52
-1921.61
-1585.19
-1243.17
-928.941
-681.003
-512.67
-373.814
-177.165
107.729
418.638
683.122
875.983
1006.93
1092.62
1145.57
1173.42
1183.36
1183.59
1180.83
1177.53
1170.96
1152.59
1111.07
1038.95
937.595
816.481
688.429
564.545
451.809
353.271
269.373
199.188
141.216
93.7799
55.2356
24.102
-0.898051
-20.8428
-36.6292
-49.0001
-58.5701
-65.8487
-71.2564
-75.1375
-77.7716
-79.3858
-80.1676
-80.2744
-79.8394
-78.9733
-77.7636
-76.2767
-74.5621
-72.6583
-70.5981
-68.4121
-66.1295
-63.7779
-61.3828
-58.9661
-56.5467
-54.1397
-51.7576
-49.4101
-47.1055
-44.8506
-42.6513
-40.5133
-38.4417
-36.4513
11733.4
11600.7
11349.3
10891.8
10275.8
9631.08
9054.37
8583.87
8227.34
7974.6
7795.47
7630.22
7409.64
7085.45
6648.9
6124.51
5548.22
4952.86
4359.8
3762.41
3144.09
2513.75
1928.5
1441.98
1051.36
726.507
455.661
241.213
84.2052
-19.944
-82.0081
-112.334
-118.569
-110.508
-99.3038
-92.0626
-89.5824
-90.0152
-91.9609
-94.4838
-97.5514
-101.171
-105.208
-109.426
-113.561
-117.378
-120.674
-123.299
-125.155
-126.193
-126.411
-125.847
-124.571
-122.681
-120.284
-117.49
-114.405
-111.118
-107.7
-104.202
-100.654
-97.0775
-93.4856
-89.8915
-86.3092
-82.7532
-79.2387
-75.7795
-72.3876
-69.0726
-65.842
-62.7009
-59.6529
-56.7004
-53.8449
-51.0876
-48.4293
-45.8711
-43.4134
-41.0627
841.981
732.218
620.964
557.804
528.273
500.546
406.994
205.738
-106.202
-508.016
-972.415
-1460.7
-1923.97
-2322.31
-2657.46
-2970.99
-3300.47
-3624.26
-3874.62
-4002.51
-3970.42
-3753.06
-3417.44
-3091.5
-2828.14
-2611.48
-2433.29
-2285.36
-2143.11
-1980.75
-1784.64
-1559.54
-1326.03
-1111.26
-932.658
-793.484
-686.886
-603.616
-536.388
-480.976
-434.409
-394.712
-360.563
-331.011
-305.326
-282.912
-263.265
-245.949
-230.588
-216.858
-204.486
-193.246
-182.958
-173.48
-164.701
-156.532
-148.898
-141.732
-134.978
-128.582
-122.498
-116.69
-111.129
-105.793
-100.669
-95.7455
-91.0166
-86.4764
-82.12
-77.9427
-73.9395
-70.1051
-66.4341
-62.9211
-59.5607
-56.348
-53.2785
-50.3481
-47.5519
-44.8883
-19606.9
-18554.9
-17139
-15506.5
-13673
-11919.7
-10338.8
-8945.53
-7745.01
-6743.48
-5955.63
-5411.44
-5147.8
-5206.78
-5558.29
-5987.31
-6202.23
-6138.24
-5964.73
-5807.84
-5627.56
-5312.85
-4831.87
-4265.6
-3715.5
-3232.9
-2827.57
-2493.59
-2219.15
-1988.67
-1786.81
-1602.95
-1433.79
-1278.99
-1139.74
-1016.1
-907.954
-814.394
-733.737
-663.983
-603.201
-549.8
-502.548
-460.505
-422.938
-389.259
-358.985
-331.713
-307.103
-284.864
-264.746
-246.529
-230.014
-215.019
-201.377
-188.93
-177.535
-167.063
-157.401
-148.449
-140.122
-132.349
-125.068
-118.231
-111.795
-105.725
-99.9926
-94.5717
-89.4406
-84.5798
-79.9716
-75.6004
-71.4518
-67.5129
-63.7718
-60.2181
-56.8424
-53.6364
-50.5908
-47.6967
5458.58
5185.8
4795.37
4284.67
3687.2
3114.36
2570.11
2056.31
1602.8
1215.69
852.898
455.151
-5.56242
-510.279
-1011.47
-1456.44
-1813.64
-2095.7
-2333.06
-2526.09
-2654.62
-2708.71
-2693.69
-2622.35
-2506.89
-2359.59
-2191.75
-2014.45
-1838.46
-1673.08
-1524.35
-1394.2
-1281.1
-1181.77
-1092.75
-1011.23
-935.33
-863.967
-796.611
-733.103
-673.484
-617.861
-566.332
-518.934
-475.622
-436.262
-400.656
-368.53
-339.609
-313.599
-290.209
-269.158
-250.186
-233.05
-217.531
-203.43
-190.57
-178.797
-167.976
-157.99
-148.741
-140.143
-132.125
-124.629
-117.604
-111.006
-104.8
-98.954
-93.4404
-88.2352
-83.3169
-78.6661
-74.2657
-70.0999
-66.1547
-62.4173
-58.8764
-55.5214
-52.3406
-49.3207
8478.81
8385.27
8335.65
8315.95
8287.53
8239.65
8160.2
8033.18
7845.77
7593
7273.36
6882.93
6413.62
5850.31
5169.48
4374.19
3569.09
2931.51
2519.43
2229.35
1954.65
1659.19
1343.8
1017.68
691.177
377.691
93.014
-147.753
-333.643
-462.821
-543.246
-587.959
-609.238
-615.614
-612.09
-601.545
-585.75
-566.104
-543.714
-519.488
-494.194
-468.424
-442.695
-417.394
-392.816
-369.183
-346.653
-325.328
-305.264
-286.467
-268.919
-252.573
-237.364
-223.218
-210.057
-197.803
-186.379
-175.714
-165.744
-156.408
-147.652
-139.429
-131.696
-124.415
-117.551
-111.074
-104.958
-99.1774
-93.7109
-88.5385
-83.6422
-79.0055
-74.6131
-70.4513
-66.5073
-62.7693
-59.2267
-55.869
-52.6846
-49.6592
-5429.32
-5493.99
-5550.74
-5575.56
-5575.98
-5525.79
-5397.77
-5175.08
-4849.52
-4424.06
-3920.46
-3377.66
-2842.11
-2351.91
-1925.15
-1564.31
-1266.57
-1030.54
-851.294
-718.637
-618.566
-536.632
-461.606
-387.929
-316.527
-253.556
-205.754
-174.68
-156.363
-145.297
-139.664
-140.754
-148.904
-162.551
-179.131
-196.183
-211.944
-225.406
-236.153
-244.149
-249.568
-252.677
-253.769
-253.119
-250.966
-247.513
-242.938
-237.404
-231.068
-224.083
-216.596
-208.748
-200.667
-192.464
-184.238
-176.069
-168.022
-160.149
-152.487
-145.066
-137.903
-131.011
-124.395
-118.056
-111.992
-106.197
-100.666
-95.3893
-90.359
-85.5658
-81.0005
-76.6538
-72.5167
-68.5802
-64.8359
-61.2756
-57.8916
-54.6755
-51.6175
-48.7065
2631.49
2668.6
2750.21
2823.21
2829.37
2759.32
2661.22
2574.89
2504.1
2429.88
2329.73
2197.16
2031.06
1837.85
1632.18
1429.64
1239.89
1065.25
904.34
754.091
610.199
467.445
323.639
180.891
42.7362
-86.5455
-201.953
-300.622
-382.876
-451.66
-507.442
-548.113
-573.294
-582.121
-574.285
-550.86
-514.192
-467.624
-415.262
-361.453
-310.041
-263.744
-223.869
-190.433
-162.588
-139.155
-119.028
-101.402
-85.7987
-71.9624
-59.753
-49.0402
-39.6811
-31.4887
-24.2996
-17.9802
-12.4393
-7.61916
-3.47818
0.0230711
2.93068
5.29943
7.19026
8.66579
9.78571
10.6039
11.1668
11.5138
11.6776
11.6855
11.5601
11.3207
10.9836
10.5627
10.0704
9.51784
8.91486
8.2693
7.58949
6.87221
18980.1
18610.7
18110.6
17372.9
16308
15070.7
13716.5
12191.8
10415.8
8482.15
6716.1
5391.8
4491.04
3828.3
3271.59
2782.37
2359.17
2000.79
1700.5
1448.55
1233.88
1046.26
878.612
726.665
588.783
464.597
354.34
258.541
177.437
111.477
59.2851
17.8057
-15.0817
-40.8468
-61.2117
-77.6411
-91.0655
-101.958
-110.428
-116.37
-119.561
-119.828
-117.188
-111.888
-104.363
-95.1647
-84.8856
-74.1119
-63.3756
-53.131
-43.7134
-35.2998
-27.9059
-21.4502
-15.9731
-11.2213
-7.03157
-3.33425
-0.0928522
2.71012
5.08708
7.05679
8.64845
9.89996
10.8535
11.5493
12.0242
12.31
12.4333
12.416
12.2758
12.0277
11.6843
11.2577
10.7583
10.1958
9.57894
8.91519
8.21274
7.46976
-20386.6
-19401.8
-18140.5
-16731.3
-15121.8
-13418.4
-11679.9
-10019
-8548.32
-7289.27
-6174.04
-5147.67
-4220.54
-3429.62
-2791.14
-2291.27
-1904.7
-1606.56
-1374.81
-1191.7
-1044.3
-922.219
-816.051
-717.621
-621.923
-527.475
-435.697
-349.108
-269.752
-198.822
-137.315
-85.8885
-44.8029
-13.9028
8.03765
22.5499
30.9553
34.6217
34.6956
32.1446
27.8349
22.5298
16.8687
11.3531
6.32106
1.99623
-1.49302
-4.09358
-5.80388
-6.66729
-6.78107
-6.2885
-5.37964
-4.0907
-2.29068
-0.336655
1.65511
3.63583
5.54336
7.31834
8.91396
10.3002
11.4614
12.3947
13.1252
13.6438
13.9708
14.128
14.136
14.0132
13.777
13.4429
13.013
12.5087
11.9388
11.3113
10.6339
9.91332
9.15673
8.36207
-5662.98
-5713.58
-5784.35
-5880.44
-6048.3
-6266
-6457.53
-6517.39
-6385.32
-6093.71
-5749.02
-5450.27
-5219.34
-5012.76
-4779.38
-4492.6
-4146.12
-3744.07
-3297.54
-2825.59
-2354.67
-1913.16
-1521.62
-1187.87
-910.303
-683.909
-502.505
-359.483
-248.181
-162.595
-97.5833
-48.8755
-13.025
12.9129
31.163
43.3796
50.8634
54.5461
55.3654
54.1227
51.5244
48.1968
44.5458
40.8298
37.2115
33.7889
30.6222
27.7564
25.2247
23.0539
21.2957
19.9144
18.7346
17.7202
16.9269
16.4544
16.2387
16.2166
16.334
16.5398
16.7892
17.0428
17.251
17.4068
17.4698
17.4474
17.3314
17.1212
16.8209
16.4373
15.9776
15.4485
14.8682
14.2326
13.5487
12.8224
12.0581
11.2601
10.4335
9.5732
17586.8
17338.5
17016.2
16479.9
15619.6
14524.2
13333.8
12171.5
11078.3
10039.6
9034.84
8060.08
7124.54
6241.52
5421.76
4669.94
3985.16
3365.06
2809.23
2319.15
1895.83
1533.47
1223.2
960.99
744.892
572.367
438.832
337.696
261.78
204.859
162.352
130.916
107.97
91.2762
79.0647
69.9505
62.9037
57.1783
52.2202
47.8022
43.8402
40.2663
37.0969
34.3484
32.013
30.0577
28.4278
27.0844
26.0261
25.2037
24.4539
23.7947
23.4009
23.1791
22.9839
22.8329
22.7358
22.6866
22.6714
22.6693
22.653
22.5944
22.4875
22.3149
22.0432
21.6771
21.2245
20.6943
20.0963
19.4404
18.736
17.9918
17.2151
16.4108
15.5824
14.732
13.8604
12.9682
12.0573
11.1182
-3582.18
-3416.87
-3254.98
-3149.25
-3097.12
-3033.36
-2849.36
-2484.25
-1967.17
-1386.56
-827.677
-335.918
81.4704
436.916
741.593
990.762
1166.41
1254.35
1260.1
1209.11
1133.06
1053.52
978.891
911.353
849.88
789.452
724.173
651.515
573.62
495.099
420.205
351.783
291.378
239.628
196.46
161.264
133.109
110.986
93.9103
80.9652
71.305
64.1439
58.8077
54.7498
51.5512
48.9123
46.6485
44.6322
42.6426
40.7809
39.105
37.596
36.2453
35.053
34.0172
33.1313
32.3797
31.7371
31.1705
30.6434
30.12
29.5693
28.9667
28.2783
27.5239
26.7032
25.8213
24.8887
23.9178
22.9223
21.9156
20.8998
19.8906
18.891
17.9012
16.9187
15.9382
14.953
13.959
12.9413
-10170.5
-9884.55
-9523.14
-9100.5
-8583.99
-7999.9
-7361.73
-6714.54
-6127.94
-5662.63
-5337.88
-5122.89
-4944.66
-4713.32
-4367.97
-3920.06
-3442.83
-3011.32
-2658.8
-2379.39
-2152.64
-1958.52
-1776.92
-1590.59
-1395.77
-1202.99
-1025.15
-867.847
-730.615
-610.714
-506.469
-416.416
-339.193
-273.353
-217.424
-170.023
-129.942
-96.1787
-67.8915
-44.3509
-24.9508
-9.16351
3.47988
13.4037
21.0069
26.6555
30.6236
33.3315
35.1811
36.2856
36.8642
37.0936
37.1112
37.015
36.8659
36.6972
36.5204
36.3294
36.1052
35.8212
35.4486
34.9605
34.3369
33.5672
32.6527
31.6038
30.4441
29.1997
27.8951
26.565
25.2411
23.9543
22.714
21.5235
20.3826
19.2864
18.2172
17.1574
16.0928
15.0031
4468.44
4355.54
4216.62
4038.51
3817.7
3577.1
3324.27
3051.49
2737.67
2358.62
1889.73
1305.25
597.584
-163.272
-821.372
-1255.15
-1488.3
-1623.88
-1715.2
-1753.67
-1727.35
-1643.6
-1518.36
-1368.25
-1208.31
-1049.24
-896.847
-753.249
-620.1
-500.025
-394.286
-303.68
-227.579
-164.411
-112.526
-70.5832
-37.4951
-12.1942
6.47783
19.7265
28.7258
34.397
37.5412
38.9723
39.3655
39.1865
38.8232
38.3941
38.0389
37.8274
37.784
37.9024
38.1551
38.5029
38.901
39.3029
39.6637
39.941
40.0968
40.0989
39.9216
39.5479
38.9702
38.1911
37.2225
36.0823
34.7921
33.3826
31.8913
30.3502
28.7911
27.2484
25.7504
24.3225
22.9724
21.7845
20.6508
19.543
18.4292
17.2825
4303.37
4219.58
4107.71
3957.06
3791.54
3617.7
3445.62
3283.86
3145.4
3051.51
3017.23
3021.97
3013.45
2948.37
2815.95
2625.38
2389.24
2122.71
1847.53
1586.55
1354.98
1158.41
995.383
860.197
747.082
652.37
575.76
515.541
466.598
422.9
379.798
335.622
290.876
248.011
208.932
174.372
144.211
117.806
94.4594
73.847
56.2161
42.2082
31.9143
25.046
21.1416
19.5404
19.4911
20.5337
22.3074
24.5265
26.9782
29.5031
31.982
34.3254
36.4652
38.3508
39.943
41.2128
42.1402
42.7137
42.9307
42.7975
42.3306
41.5558
40.5087
39.2332
37.7807
36.2079
34.573
32.9321
31.3328
29.8097
28.3836
27.0634
25.8537
24.6512
23.5038
22.3547
21.1451
19.8682
-4476.76
-4058.55
-3459.82
-2744.92
-1912.16
-1099.62
-344.491
351.218
990.226
1565.75
2063.27
2468.39
2774.65
2986.41
3113.17
3164.56
3149.02
3074.94
2951.9
2790.67
2601.31
2393.19
2173.81
1949.03
1723.6
1502.7
1291.56
1094.24
913.343
749.912
604.191
476.315
366.059
273.116
197.366
137.902
93.2611
61.8731
41.5737
29.7056
23.2061
19.3356
16.6303
14.4702
13.0842
12.6203
12.8833
13.9074
15.6409
17.9414
20.6763
23.7171
26.9239
30.1522
33.263
36.1334
38.6634
40.7773
42.4236
43.5739
44.2204
44.375
44.067
43.3414
42.2574
40.8855
39.3049
37.5986
35.8485
34.1281
32.4965
30.995
29.6437
28.4462
27.3933
26.4425
25.537
24.6033
23.5577
22.3616
6787.18
6533.17
6224.11
5845.58
5332.81
4730.47
4060.34
3353.48
2641.01
1944.7
1281.63
667.731
118.601
-352.117
-734.548
-1025
-1226.14
-1346.11
-1396.22
-1388.75
-1335.92
-1249.94
-1143.44
-1029.45
-917.739
-816.019
-726.913
-649.625
-581.77
-520.55
-463.788
-410.234
-359.542
-312.073
-268.621
-229.592
-194.899
-164.305
-137.602
-114.338
-94.5246
-78.2321
-65.0386
-54.181
-44.8366
-36.4062
-27.9869
-19.9114
-12.1959
-4.70637
2.60521
9.72251
16.4441
22.655
28.2257
33.0588
37.1031
40.344
42.794
44.4847
45.4622
45.7841
45.5177
44.7394
43.5338
41.994
40.22
38.3163
36.3872
34.5304
32.8284
31.3395
30.0945
29.0867
28.2539
27.5393
26.8498
26.0862
25.1525
24.0149
-5823.4
-5678.63
-5510.59
-5348.46
-5186.86
-5038.82
-4892.54
-4740.53
-4582.1
-4416.95
-4242.56
-4055.62
-3856.21
-3650.87
-3451.58
-3269.9
-3110.54
-2969.59
-2838.06
-2706.62
-2568.4
-2419.44
-2259.87
-2093.93
-1927.38
-1762.87
-1599.04
-1432.97
-1262.88
-1089.1
-914.181
-742.653
-580.253
-432.817
-304.966
-199.251
-116.139
-54.3618
-10.9975
17.4854
34.9757
44.795
49.5052
51.2012
51.3857
50.951
50.1389
49.3525
48.6757
48.2321
48.159
48.4985
49.1836
50.0855
51.0587
51.9693
52.7082
53.1915
53.3587
53.1715
52.6121
51.6821
50.4004
48.8023
46.9376
44.8703
42.677
40.4439
38.2621
36.2205
34.3955
32.8402
31.5742
30.5781
29.8051
29.1515
28.5093
27.7712
26.8343
25.6795
-6596.08
-6290.13
-5891.96
-5453.83
-4966.57
-4494.99
-4056.71
-3657.68
-3290.86
-2931.54
-2543.44
-2095.05
-1582.44
-1041.05
-536.053
-128.199
156.73
328.497
410.614
425.888
396.779
344.312
282.536
219.119
158.887
104.987
58.8391
20.9133
-8.27037
-28.7078
-41.0526
-46.5483
-47.0334
-44.5315
-40.599
-35.99
-30.7492
-24.5524
-17.0662
-8.21739
1.7151
12.1535
22.3921
31.8039
39.9519
46.5378
51.7474
55.7374
58.6743
60.7801
62.2809
63.3649
64.156
64.7121
65.0408
65.1211
64.9209
64.4105
63.5696
62.3917
60.8853
59.0731
56.9901
54.682
52.2043
49.6215
47.0063
44.4377
41.9971
39.762
37.7976
36.1466
34.8197
33.7891
32.9874
32.3142
31.6466
30.8777
29.8764
28.6455
9989.46
9839.67
9623.51
9283.08
8786.48
8159.17
7437.68
6668.72
5901.01
5174.84
4517.7
3942.68
3446.63
3010.5
2612.78
2240.82
1895.17
1583.96
1314.72
1086.74
896.39
738.273
606.577
494.793
398.262
314.037
243.732
188.701
145.897
110.985
80.7433
53.4801
28.5479
5.99449
-13.6307
-29.5332
-40.6976
-46.0397
-44.7282
-37.2091
-24.7567
-9.24653
7.073
22.3942
35.8351
47.307
56.7949
64.5406
70.8325
75.8537
79.7204
82.5018
84.2618
85.0786
85.0474
84.2729
82.862
80.9183
78.5396
75.8171
72.8345
69.6676
66.3845
63.0468
59.7117
56.4342
53.2693
50.2729
47.5003
45.0034
42.8246
40.9893
39.4983
38.3211
37.3945
36.625
35.8983
35.0786
34.0626
32.7611
-3069.17
-2962.58
-2837.37
-2693.43
-2521.71
-2319.69
-2081.07
-1813.81
-1544.59
-1305.09
-1117.63
-990.02
-918.578
-892.094
-895.577
-912.994
-930.47
-938.656
-933.617
-916.057
-888.451
-851.591
-804.539
-745.074
-670.384
-583.501
-499.041
-432.692
-386.397
-351.495
-321.601
-295.172
-270.99
-246.341
-218
-183.422
-141.573
-93.0049
-39.7558
15.083
67.3095
112.851
148.983
174.425
189.381
195.42
194.705
189.368
181.081
171.121
160.819
150.711
141.067
132.028
123.632
115.858
108.658
101.978
95.7646
89.9725
84.5645
79.5105
74.7866
70.3743
66.2609
62.4396
58.9095
55.6755
52.7467
50.1337
47.8448
45.8807
44.229
42.859
41.7192
40.737
39.8221
38.8753
37.8042
36.411
-4016.27
-3946.66
-3856.83
-3733.37
-3591.79
-3421.11
-3221.86
-2999.3
-2760.86
-2511.78
-2253.33
-1986.34
-1714.19
-1440.03
-1163.36
-884.538
-613.529
-371.212
-179.83
-49.4348
26.1909
62.7968
75.6929
74.5395
64.6566
50.0337
34.837
22.7975
16.0067
14.5959
17.1403
22.4217
29.7709
39.3849
52.2923
69.7216
91.6984
117.082
143.919
169.496
190.981
206.244
214.474
216.323
213.299
207.076
199.036
190.036
180.768
171.644
162.467
153.384
144.518
135.948
127.73
119.905
112.499
105.531
99.0058
92.9202
87.2658
82.0289
77.1926
72.7377
68.6447
64.895
61.472
58.3612
55.5503
53.0278
50.7816
48.7965
47.0515
45.5171
44.1542
42.9129
41.7355
40.5636
39.3191
37.8551
12009.6
11699.7
11383.7
11047.8
10515.9
9851.33
9074.19
8206.87
7287.45
6379.95
5555.77
4836.95
4184.33
3549.35
2923.24
2335.12
1820.14
1396.89
1065.84
816.851
636.247
508.105
415.485
344.167
286.008
238.72
202.728
178.717
166.628
166.054
176.725
197.078
221.637
243.414
257.506
263.085
262.675
259.937
257.425
255.554
253.282
249.229
242.571
233.332
222.203
210.04
197.597
185.386
173.684
162.669
152.38
142.813
133.94
125.718
118.099
111.033
104.477
98.3941
92.7509
87.5197
82.6758
78.1965
74.0599
70.2451
66.7316
63.5001
60.532
57.8099
55.3169
53.0364
50.9517
49.0444
47.2941
45.677
44.166
42.7301
41.338
39.9535
38.5103
36.9851
-1342.31
-948.374
-404.454
150.947
656.636
947.503
1025.54
957.605
826.93
693.905
584.739
500.405
431.031
365.412
293.706
211.421
121.68
34.1617
-39.5617
-90.993
-117.843
-123.246
-113.351
-95.0438
-74.209
-54.5194
-37.2573
-22.1817
-8.62367
4.57406
19.0175
35.0125
52.7945
70.3333
85.1884
96.3688
104.542
110.797
115.825
119.826
122.82
124.85
125.925
126.059
125.252
123.609
121.279
118.416
115.156
111.615
107.89
104.058
100.18
96.3058
92.4752
88.7199
85.0654
81.5319
78.1347
74.8847
71.7888
68.8502
66.0685
63.4408
60.9617
58.6241
56.4201
54.3407
52.3768
50.5188
48.7565
47.0791
45.4751
43.9318
42.4358
40.9738
39.5328
38.0924
36.6276
35.1867
-16416.6
-15834.1
-15126.8
-14337.1
-13365.5
-12256.3
-11057.8
-9842.9
-8667.16
-7557.97
-6529.93
-5594.91
-4762
-4034.41
-3408.84
-2876.27
-2423.97
-2037.67
-1705.03
-1417.63
-1170.74
-961.547
-787.428
-645.333
-531.565
-441.328
-369.602
-312.214
-264.95
-224.148
-187.416
-153.782
-125.016
-103.367
-88.8796
-78.8582
-69.8959
-59.9495
-48.5745
-36.1443
-23.3421
-10.8388
0.933061
11.6922
21.2771
29.6098
36.7039
42.6285
47.4816
51.3726
54.412
56.7057
58.3525
59.443
60.0595
60.2763
60.1596
59.768
59.1526
58.3577
57.4208
56.3734
55.241
54.0444
52.8003
51.5214
50.2181
48.8982
47.5677
46.2309
44.8907
43.5484
42.2045
40.8582
39.5088
38.1558
36.7997
35.4402
34.0943
32.7934
10661.5
10371.6
9885.09
9140.93
8142.38
7144.04
6286.85
5582.85
4971.72
4394.25
3823.11
3253.51
2691.04
2146.39
1635.1
1173.55
773.167
435.961
157.195
-70.9684
-256.179
-404.749
-521.127
-608.079
-667.783
-702.257
-713.282
-703.101
-674.677
-631.475
-577.792
-518.283
-457.306
-398.413
-343.968
-295.043
-251.675
-213.742
-180.669
-151.601
-125.946
-103.213
-83.0196
-65.0765
-49.1534
-35.0595
-22.6292
-11.7135
-2.17714
6.10488
13.2487
19.3636
24.5533
28.9165
32.5462
35.5296
37.9468
39.8702
41.3637
42.483
43.2758
43.7823
44.0368
44.0685
43.9032
43.5636
43.0709
42.4447
41.703
40.8621
39.9365
38.9386
37.8785
36.7646
35.6042
34.4043
33.1736
31.9268
30.6998
29.5133
5.43784
3.32194
1.47924
-0.0613854
-1.27835
-2.18251
-2.87862
-3.43294
-3.92213
-4.42837
-5.00996
-5.71248
-6.56851
-7.59274
-8.79395
-10.1629
-11.6801
-13.3131
-15.0117
-16.7078
-18.3203
-19.7633
-20.9525
-21.8276
-22.3479
-22.497
-22.2836
-21.7359
-20.8965
-19.7899
-18.4754
-17.0079
-15.438
-13.8134
-12.1765
-10.5642
-9.01013
-7.54628
-6.20196
-5.00013
-3.95371
-3.06422
-2.32355
-1.71741
-1.22894
-0.841401
-0.539682
-0.310935
-0.144574
-0.0320488
0.0334926
0.0575386
0.0445009
-0.00208528
-0.0794265
-0.185349
-0.318144
-0.476308
-0.658092
-0.860907
-1.08084
-1.31252
-1.5495
-1.78477
-2.01143
-2.22285
-2.41274
-2.57489
-2.70313
-2.79147
-2.83453
-2.8281
-2.76951
-2.65791
-2.4957
-2.28752
-2.03962
-1.75949
-1.45536
-1.13583
-0.80925
-0.48321
-0.164125
0.142968
0.434446
0.708001
0.962439
1.19747
1.4135
1.61137
1.79221
1.95725
2.1077
2.24474
2.36944
2.48282
2.58576
2.67904
2.76334
2.8393
2.90751
2.9685
3.02278
3.07081
3.11304
3.14996
3.18206
3.20983
3.23371
3.25419
3.27175
3.28691
3.3002
3.31215
3.32325
3.33399
3.34487
3.35638
3.36898
3.38306
3.39893
3.41688
3.43708
3.45962
3.48442
3.51122
3.53967
3.56925
3.5993
3.62904
3.65751
3.68368
3.70647
3.72483
3.73783
3.74467
3.74481
3.73806
3.72466
3.70535
3.6813
3.65413
3.62568
3.59799
3.57312
3.55302
3.53933
3.53328
3.53564
3.54664
3.56612
3.59348
3.62779
3.66786
3.71241
3.7601
3.80968
3.86004
3.91014
3.95904
4.00589
4.04994
4.09057
4.12725
4.15961
4.18729
4.21002
4.2275
4.2395
4.24579
4.24619
4.24054
4.22871
4.21058
4.18602
4.15491
4.11702
4.07206
4.01963
3.95926
3.8904
3.81248
3.72491
3.62712
3.51851
3.39854
3.26668
3.12246
2.96548
2.79535
2.61169
2.41411
2.202
1.97487
1.73142
1.47126
1.19082
0.891334
0.561806
0.212572
5.9786
3.79229
1.92863
0.318506
-0.942524
-1.78232
-2.4302
-2.89502
-3.24952
-3.59945
-4.00855
-4.52592
-5.19042
-6.02164
-7.02513
-8.19376
-9.5106
-10.9486
-12.4676
-14.0119
-15.5119
-16.889
-18.0646
-18.9745
-19.573
-19.8301
-19.7441
-19.339
-18.6741
-17.7166
-16.559
-15.2467
-13.8219
-12.3305
-10.8165
-9.3201
-7.87898
-6.52799
-5.2967
-4.20593
-3.26541
-2.4739
-1.82175
-1.29443
-0.875761
-0.550137
-0.303775
-0.12508
-0.00459801
0.0652292
0.0903985
0.0756745
0.0248228
-0.0592291
-0.174265
-0.318656
-0.491199
-0.690791
-0.915896
-1.16391
-1.43075
-1.7109
-1.99778
-2.28436
-2.56349
-2.82802
-3.0706
-3.2835
-3.45869
-3.58826
-3.66497
-3.68291
-3.638
-3.52824
-3.35704