/*--------------------------------*- C++ -*----------------------------------*\
| =========                 |                                                 |
| \\      /  F ield         | OpenFOAM: The Open Source CFD Toolbox           |
|  \\    /   O peration     | Version:  2012                                  |
|   \\  /    A nd           | Website:  www.openfoam.com                      |
|    \\/     M anipulation  |                                                 |
\*---------------------------------------------------------------------------*/
FoamFile
{
    version     2.0;
    format      ascii;
    class       surfaceScalarField;
    location    "0.73";
    object      phi;
}
// * * * * * * * * * * * * * * * * * * * * * * * * * * * * * * * * * * * * * //

dimensions      [0 3 -1 0 0 0 0];
oriented        oriented;


internalField   nonuniform List<scalar> 
84340
(
-0.000759608
0.000493746
0.000265862
-0.0020887
0.000612559
0.000716533
-0.00335686
0.000147914
0.00112025
-0.00431852
-0.000324029
0.00128569
-0.00487994
-0.000488401
0.00104982
-0.00500188
-0.000362608
0.000484549
-0.00475921
-9.41365e-05
-0.00014853
-0.0042606
0.000145362
-0.000643975
-0.00358913
0.000259016
-0.000930487
-0.0027908
0.000237854
-0.00103618
-0.00188771
0.000112023
-0.00101511
-0.000900074
-8.51724e-05
-0.000902466
0.00012495
-0.000303352
-0.000721673
0.00107804
-0.000437247
-0.000515846
0.00182084
-0.000406891
-0.000335903
0.0022524
-0.000218533
-0.000213028
0.00237771
1.52105e-05
-0.000140524
0.00228575
0.000200196
-0.000108234
0.00206999
0.000320509
-0.000104746
0.00179524
0.000401149
-0.000126403
0.00150823
0.000452112
-0.000165104
0.00123357
0.000487614
-0.000212951
0.000985266
0.000508219
-0.000259917
0.000776047
0.000505884
-0.000296664
0.00060281
0.000490673
-0.000317437
0.000459259
0.000462326
-0.000318775
0.000336701
0.000422677
-0.000300119
0.00022572
0.000374734
-0.000263752
0.000118226
0.000321647
-0.000214153
9.1613e-06
0.000266297
-0.000157233
-0.000102699
0.000211261
-9.94015e-05
-0.000214704
0.000158775
-4.677e-05
-0.000321088
0.000110506
-4.12226e-06
-0.00041505
6.74083e-05
2.65538e-05
-0.000491385
2.94988e-05
4.68356e-05
-0.00054862
-4.065e-06
6.12998e-05
-0.000590329
-3.44702e-05
7.61793e-05
-0.000619097
-6.17008e-05
9.04689e-05
-0.00063314
-9.26402e-05
0.000106683
-0.000637461
-0.000127646
0.000131967
-0.000639663
-0.000160566
0.000162767
-0.000641863
-0.000192615
0.000194816
-0.000642494
-0.000226183
0.000226814
-0.000639799
-0.000260149
0.000257454
-0.000631979
-0.000293883
0.000286063
-0.000617663
-0.000326891
0.000312575
-0.000596184
-0.000358832
0.000337352
-0.000567616
-0.00038954
0.000360972
-0.000532661
-0.000419028
0.000384072
-0.000492424
-0.000447475
0.000407238
-0.000448176
-0.000475194
0.000430946
-0.000401149
-0.000502572
0.000455545
-0.000352383
-0.000530011
0.000481245
-0.000302651
-0.000557851
0.000508119
-0.00025244
-0.000586314
0.000536104
-0.000201994
-0.000615446
0.000565
-0.000151383
-0.000645093
0.000594482
-0.000100599
-0.000674894
0.000624111
-4.96507e-05
-0.000704313
0.000653365
1.36043e-06
-0.000732697
0.000681686
5.2192e-05
-0.00075936
0.000708528
0.000102451
-0.000783686
0.000733427
0.000151629
-0.000805228
0.000756049
0.000199183
-0.000823789
0.000776235
0.000244633
-0.000839466
0.000794016
0.000287675
-0.00085264
0.000809599
0.000328264
-0.000863914
0.000823326
0.000366658
-0.000873999
0.000835605
0.000403395
-0.000883585
0.000846848
0.000439211
-0.000893228
0.000857413
0.000474918
-0.000903279
0.000867572
0.000511281
-0.000913876
0.000877513
0.000548905
-0.000924988
0.000887364
0.00058818
-0.000936501
0.000897228
0.000629263
-0.000948301
0.000907219
0.000672117
-0.000960343
0.000917489
0.000716564
-0.000972694
0.000928247
0.0007624
-0.000985578
0.000939741
0.000809771
-0.000999575
0.000952204
-0.00101695
0.000966237
0.000860486
0.000392556
0.00010119
0.000594875
0.00041024
0.000143795
0.000598995
-0.000767568
0.000587334
-0.00169834
0.000442377
-0.00230539
0.000244438
-0.00246617
6.66463e-05
-0.00224423
-7.65811e-05
-0.00178722
-0.000197992
-0.00123377
-0.000315597
-0.000685863
-0.000435885
-0.000222401
-0.000548634
9.27318e-05
-0.000618485
0.000230826
-0.000575341
0.000203963
-0.000380028
8.58844e-05
-0.000100454
-5.49767e-05
0.000156072
-0.000185928
0.000331147
-0.000293322
0.000427903
-0.000367624
0.000475451
-0.000407225
0.000491713
-0.000406745
0.000487133
-0.000364955
0.00046643
-0.000292877
0.000433806
-0.000195709
0.000393504
-8.36929e-05
0.000350311
3.00926e-05
0.000308892
0.000132322
0.000272505
0.000211432
0.000242537
0.00025897
0.000218759
0.000270481
0.000199751
0.000242482
0.000186773
0.000181014
0.000171974
9.40232e-05
0.000154399
-9.26987e-06
0.000132792
-0.000119351
0.000106016
-0.000227087
7.32669e-05
-0.000322776
3.39878e-05
-0.000405093
-1.03234e-05
-0.000473401
-5.93376e-05
-0.000521616
-0.000112351
-0.000547086
-0.000167145
-0.000551213
-0.000222056
-0.000535863
-0.000275499
-0.000503593
-0.000326153
-0.000457467
-0.000373017
-0.000400862
-0.000415437
-0.000337246
-0.000453156
-0.000269937
-0.000486337
-0.000201878
-0.000515534
-0.000135453
-0.000541619
-7.23699e-05
-0.000565655
-1.36319e-05
-0.000588749
4.04097e-05
-0.000611893
8.99395e-05
-0.000635844
0.000135523
-0.000661029
0.000177935
-0.000687505
0.000217998
-0.000714957
0.00025643
-0.000742745
0.000293732
-0.000769999
0.000330121
-0.000795749
0.000365509
-0.000819075
0.000399551
-0.000839271
0.000431739
-0.000855978
0.000461551
-0.000869277
0.000488609
-0.000879698
0.000512832
-0.000888137
0.000534524
-0.00089569
0.000554376
-0.000903437
0.000573381
-0.000912233
0.000592663
-0.000922562
0.000613295
-0.000934508
0.000636132
-0.000947825
0.000661719
-0.000962087
0.000690272
-0.000976854
0.000721737
-0.000991808
0.000755876
-0.00100683
0.000792375
-0.00102208
0.000830909
-0.00103811
-0.00105653
0.00087049
0.000230482
-0.000129292
0.000571432
6.9289e-05
0.000789684
0.000380742
0.000866622
0.000510396
0.000884602
0.000424397
0.000926061
0.000202978
0.00106064
-6.79375e-05
0.00131419
-0.000330121
0.00166313
-0.000546937
0.002049
-0.000701467
0.00238579
-0.000772674
0.00256825
-0.000731094
0.00252087
-0.000571107
0.00224816
-0.000302631
0.0018428
2.53331e-05
0.00141068
0.00033167
0.000994721
0.000572028
0.000578772
0.000747096
0.000138658
0.000868018
-0.000325819
0.000939927
-0.000805153
0.000971047
-0.00127761
0.000959591
-0.00171315
0.000901973
-0.00208819
0.000808846
-0.00237985
0.000685163
-0.0025727
0.000543152
-0.00266009
0.000396288
-0.00264241
0.000254824
-0.00252949
0.00012961
-0.00234111
3.03824e-05
-0.00210383
-3.75233e-05
-0.00184139
-7.5667e-05
-0.00157929
-9.01255e-05
-0.00133807
-8.68299e-05
-0.00112603
-7.92416e-05
-0.000944684
-7.53317e-05
-0.000791075
-8.03428e-05
-0.000660383
-9.67035e-05
-0.000545968
-0.000124739
-0.000450054
-0.000155252
-0.000365672
-0.000196733
-0.000286881
-0.000245936
-0.000209539
-0.000299399
-0.000131023
-0.000354015
-5.01434e-05
-0.000407033
3.2921e-05
-0.000456081
0.000116811
-0.000499328
0.000199336
-0.000535681
0.000277963
-0.000564964
0.000350376
-0.000587947
0.000414875
-0.000606119
0.000470579
-0.000621359
0.000517412
-0.000635581
0.000555946
-0.000650428
0.000587191
-0.000667088
0.000612376
-0.000686214
0.00063278
-0.00070791
0.000649604
-0.00073178
0.000663861
-0.000757002
0.000676312
-0.00078245
0.000687416
-0.000806853
0.000697328
-0.000828987
0.000705929
-0.000847872
0.000712919
-0.000862967
0.000717941
-0.000874299
0.000720746
-0.000882504
0.000721357
-0.000888748
0.000720181
-0.000894514
0.00071804
-0.000901296
0.00071609
-0.000910282
0.000715642
-0.000922114
0.000717942
-0.000936808
0.000723967
-0.00095385
0.000734302
-0.000972422
0.000749104
-0.000991657
0.000768159
-0.00101086
0.000790974
-0.00102965
0.000816871
-0.00104797
0.000844982
-0.00106622
-0.00108552
0.00087397
-0.000374339
0.000245047
-0.000488412
0.000183361
-0.000132245
2.45759e-05
0.000449074
-7.09231e-05
0.00102293
-0.000149456
0.00144694
-0.000221034
0.00166362
-0.00028462
0.00167032
-0.000336814
0.00149411
-0.000370736
0.00116695
-0.000374304
0.000728891
-0.000334612
0.000243068
-0.000245272
-0.000211137
-0.000116902
-0.00056574
5.19714e-05
-0.000786211
0.000245804
-0.000892913
0.000438372
-0.000922608
0.000601723
-0.00089572
0.000720208
-0.000821702
0.000794
-0.000713157
0.000831383
-0.000582913
0.000840803
-0.000450379
0.000827058
-0.000339653
0.000791247
-0.000264204
0.000733397
-0.000232507
0.000653465
-0.000242658
0.000553303
-0.000281814
0.000435445
-0.000332254
0.000305265
-0.000377158
0.000174514
-0.000396195
4.94194e-05
-0.0003781
-5.56186e-05
-0.000321196
-0.000132571
-0.000230159
-0.000181163
-0.000110715
-0.000206273
2.53704e-05
-0.000215328
0.000166118
-0.00021608
0.000301168
-0.000215393
0.000422809
-0.000218345
0.000526155
-0.000228085
0.000625441
-0.000254537
0.000718645
-0.000289937
0.000804046
-0.000331337
0.000882239
-0.000377592
0.000954367
-0.000426143
0.00102087
-0.000473538
0.00108086
-0.000516073
0.00113221
-0.000550671
0.00117258
-0.00057605
0.0012006
-0.000592986
0.00121618
-0.000603534
0.00122057
-0.0006105
0.00121591
-0.000616703
0.00120463
-0.0006243
0.00118882
-0.000634618
0.00117002
-0.000648289
0.00114925
-0.000665442
0.00112716
-0.000685819
0.00110418
-0.000708807
0.00108064
-0.000733458
0.00105675
-0.000758559
0.00103265
-0.000782752
0.00100839
-0.00080473
0.000983965
-0.000823447
0.000959326
-0.000838329
0.000934461
-0.000849434
0.000909465
-0.000857508
0.00088463
-0.000863913
0.000860505
-0.000870389
0.000837905
-0.000878696
0.000817841
-0.000890219
0.000801381
-0.000905654
0.000789473
-0.0009249
0.000782793
-0.00094717
0.000781653
-0.000971282
0.000785995
-0.000995999
0.000795448
-0.00102032
0.000809419
-0.00104362
0.00082718
-0.00106573
0.000847915
-0.00108695
-0.00110833
0.000870729
0.000807916
-0.000562869
0.00212
-0.00112872
0.00343317
-0.0012886
0.0046592
-0.00129695
0.00578881
-0.00127907
0.00682027
-0.00125249
0.00773614
-0.00120049
0.00850287
-0.00110355
0.0090893
-0.000957165
0.00948422
-0.000769224
0.0097019
-0.000552297
0.00978005
-0.000323419
0.00975661
-9.34569e-05
0.00968479
0.000123788
0.00961034
0.000320255
0.00955886
0.000489855
0.00953109
0.000629487
0.00951186
0.000739436
0.00948472
0.000821141
0.00944067
0.000875437
0.00938006
0.000901413
0.00930988
0.000897229
0.0092374
0.000863727
0.00916505
0.000805748
0.00908573
0.000732787
0.00898444
0.000654593
0.00884393
0.000575958
0.00865311
0.000496087
0.00841486
0.000412763
0.0081383
0.000325983
0.00784462
0.000238056
0.00755976
0.000152288
0.00730661
7.19866e-05
0.00709981
5.25884e-07
0.00694784
-6.33544e-05
0.00684594
-0.000114179
0.00677903
-0.00014848
0.00672891
-0.000168227
0.00667628
-0.000175458
0.00659407
-0.000172329
0.0064656
-0.00016146
0.00628086
-0.000146601
0.00603388
-0.00013061
0.0057266
-0.000118864
0.0053687
-0.000115638
0.00497504
-0.000122415
0.0045556
-0.000131232
0.00412045
-0.000140896
0.00369042
-0.00016296
0.00328396
-0.000197068
0.00291384
-0.000240386
0.0025877
-0.000290564
0.00230823
-0.000344826
0.002074
-0.000400389
0.00188071
-0.000454998
0.00172245
-0.000507185
0.00159281
-0.000556178
0.00148562
-0.000601621
0.00139545
-0.000643285
0.00131778
-0.000680885
0.00124908
-0.000714055
0.00118679
-0.000742439
0.0011292
-0.000765861
0.00107537
-0.000784494
0.00102494
-0.000799005
0.000978025
-0.000810595
0.000935039
-0.000820927
0.000896547
-0.000831897
0.000863144
-0.000845293
0.000835346
-0.000862421
0.000813511
-0.000883819
0.000797787
-0.000909177
0.000788104
-0.000937487
0.000784189
-0.000967368
0.000785618
-0.000997428
0.000791863
-0.00102656
0.000802345
-0.0010541
0.000816467
-0.00107986
0.000833605
-0.00110409
-0.00112773
0.000853001
-0.000613322
5.04538e-05
-0.00177219
3.01507e-05
-0.0030632
2.41112e-06
-0.00434235
-1.78115e-05
-0.00553554
-8.58712e-05
-0.0065855
-0.000202526
-0.00744606
-0.000339934
-0.00808126
-0.000468351
-0.0084732
-0.000565225
-0.00861831
-0.00062411
-0.00852411
-0.000646497
-0.00821311
-0.000634416
-0.00771596
-0.000590612
-0.00707235
-0.000519825
-0.00632344
-0.000428647
-0.00550765
-0.000325935
-0.00465918
-0.000218986
-0.00380916
-0.000110589
-0.00298382
-4.19469e-06
-0.00220227
9.38854e-05
-0.00148029
0.000179439
-0.000831282
0.000248217
-0.000255542
0.000287987
0.000257352
0.000292854
0.000729134
0.000261004
0.00118779
0.000195933
0.00165495
0.000108806
0.00213265
1.83851e-05
0.00260049
-5.50798e-05
0.0030254
-9.89314e-05
0.00337627
-0.000112813
0.0036341
-0.000105541
0.00379441
-8.83226e-05
0.00385895
-6.40153e-05
0.00383738
-4.178e-05
0.00374607
-2.28707e-05
0.00360248
-4.89378e-06
0.00342017
1.40873e-05
0.00321022
3.44904e-05
0.00298274
5.51533e-05
0.00274558
7.56932e-05
0.00250607
9.29092e-05
0.002272
0.000103463
0.00204929
0.000103845
0.00184192
9.17356e-05
0.00165398
6.55266e-05
0.00149676
2.59869e-05
0.00138185
-2.59885e-05
0.00130723
-8.8334e-05
0.00126566
-0.000155505
0.0012492
-0.000223925
0.00124886
-0.000290218
0.00125606
-0.000352029
0.00126382
-0.000408149
0.00126721
-0.000458391
0.0012633
-0.000503276
0.00125075
-0.00054363
0.00122937
-0.000580237
0.0011997
-0.000613616
0.00116278
-0.000643964
0.00111997
-0.000671243
0.00107288
-0.000695353
0.00102335
-0.000716331
0.000973372
-0.000734514
0.000924994
-0.000750627
0.000880179
-0.00076578
0.000840607
-0.000781356
0.000807506
-0.000798796
0.000781533
-0.000819319
0.000762757
-0.000843645
0.000750756
-0.000871818
0.000744782
-0.000903203
0.000743957
-0.000936661
0.000747432
-0.000970841
0.000754485
-0.00100448
0.000764552
-0.00103663
0.000777199
-0.00106675
0.000792079
-0.00109474
0.000808869
-0.00112088
-0.00114605
0.00082719
-0.000220408
0.000270861
-0.000729811
0.000539554
-0.00117925
0.000451849
-0.00132867
0.000131607
-0.00118162
-0.000232919
-0.000828156
-0.000555991
-0.000341379
-0.000826711
0.000227286
-0.00103702
0.000845315
-0.00118325
0.00148396
-0.00126275
0.00211151
-0.00127404
0.00269347
-0.00121638
0.0031999
-0.00109705
0.00361622
-0.000936136
0.00394309
-0.00075552
0.00418718
-0.000570024
0.00435607
-0.000387882
0.00445468
-0.000209198
0.00448154
-3.10571e-05
0.00441497
0.000160456
0.00423664
0.000357773
0.00394374
0.000541114
0.00354287
0.000688856
0.00305061
0.000785117
0.00249708
0.00081454
0.00192224
0.000770769
0.00136641
0.000664635
0.000861208
0.000523588
0.000425288
0.00038084
6.46418e-05
0.000261715
-0.000225525
0.000177353
-0.000456409
0.000125343
-0.000639519
9.47875e-05
-0.000779669
7.61344e-05
-0.000884343
6.2894e-05
-0.000959317
5.21039e-05
-0.00100703
4.28164e-05
-0.00102733
3.43893e-05
-0.00101898
2.61415e-05
-0.00098099
1.71628e-05
-0.000911655
6.35845e-06
-0.000810988
-7.7578e-06
-0.000681425
-2.61011e-05
-0.000526606
-5.09748e-05
-0.000348574
-8.62958e-05
-0.000162544
-0.000120503
2.67885e-05
-0.000163346
0.00021167
-0.00021087
0.00038381
-0.000260474
0.000537927
-0.000309622
0.000670111
-0.000356109
0.000778256
-0.000398363
0.000861889
-0.000435662
0.000921875
-0.000468136
0.000960052
-0.000496568
0.000978848
-0.000522072
0.000980961
-0.000545744
0.000969131
-0.000568408
0.00094603
-0.000590515
0.000914249
-0.000612183
0.000876356
-0.00063335
0.000834946
-0.000653943
0.000792645
-0.00067403
0.000752035
-0.000693904
0.000715503
-0.000714095
0.000685041
-0.000735317
0.000662033
-0.000758349
0.000647113
-0.000783876
0.000640119
-0.000812326
0.0006402
-0.000843727
0.000646044
-0.000877662
0.000656172
-0.000913331
0.000669216
-0.000949705
0.000684102
-0.000985728
0.000700126
-0.0010205
0.000716916
-0.00105342
0.000734343
-0.00108417
0.000752405
-0.0011128
0.000771132
-0.00113961
-0.00116541
0.000790489
0.000218427
5.24341e-05
0.000407352
0.000350629
0.000404133
0.000455069
0.00025842
0.000277321
-7.05338e-06
3.25549e-05
-0.000364499
-0.000198545
-0.000794344
-0.000396866
-0.00126973
-0.000561635
-0.00176181
-0.000691173
-0.00223741
-0.000787155
-0.00264323
-0.000868224
-0.00290255
-0.000957052
-0.00290653
-0.00109307
-0.00260849
-0.00123418
-0.0021826
-0.0011814
-0.00194475
-0.000807872
-0.00203333
-0.000299309
-0.00233141
8.88821e-05
-0.00268158
0.00031912
-0.00299084
0.00046971
-0.00322002
0.000586956
-0.0033454
0.000666497
-0.00335619
0.000699646
-0.00325889
0.000687817
-0.00308123
0.000636878
-0.00286291
0.000552446
-0.00264718
0.000448904
-0.00246401
0.000340418
-0.00232117
0.000238003
-0.00220664
0.000147188
-0.00210131
7.20244e-05
-0.00198853
1.25615e-05
-0.00186042
-3.33226e-05
-0.00171641
-6.78775e-05
-0.00155911
-9.44029e-05
-0.00139269
-0.000114315
-0.00122047
-0.000129412
-0.00104451
-0.000141569
-0.000865877
-0.000152489
-0.000688275
-0.000160439
-0.000515869
-0.000166048
-0.000349558
-0.000174068
-0.000190166
-0.000185493
-4.00011e-05
-0.000201139
9.53992e-05
-0.000221696
0.000222051
-0.000247155
0.000335972
-0.000277266
0.000436066
-0.000310965
0.00052211
-0.000346517
0.000594301
-0.000381813
0.000652931
-0.000414739
0.000698226
-0.000443658
0.000730374
-0.00046781
0.000749686
-0.000487448
0.000756761
-0.000503643
0.000752558
-0.00051787
0.000738395
-0.000531581
0.00071591
-0.000545922
0.000687036
-0.000561641
0.000653989
-0.000579137
0.000619213
-0.000598574
0.000585261
-0.000619991
0.000554606
-0.000643375
0.00052942
-0.000668717
0.000511357
-0.000696033
0.000501393
-0.000725353
0.000499737
-0.000756692
0.000505848
-0.000789988
0.000518561
-0.000825039
0.000536305
-0.000861471
0.000557377
-0.000898733
0.000580207
-0.000936161
0.00060356
-0.000973057
0.000626622
-0.00100879
0.000648991
-0.00104287
0.000670584
-0.00107501
0.000691518
-0.00110511
0.000711999
-0.00113328
0.000732229
-0.00115984
-0.00118551
0.000752329
-0.000416792
0.000469227
-0.000921481
0.000855318
-0.00140257
0.000936159
-0.00198629
0.00086104
-0.00265267
0.000698934
-0.00336482
0.000513602
-0.0041584
0.000396721
-0.00511826
0.00039822
-0.00629034
0.000480904
-0.00761693
0.000539437
-0.00894969
0.000464535
-0.0101032
0.000196423
-0.0109235
-0.000272698
-0.0113395
-0.000818182
-0.0113964
-0.00112452
-0.0112157
-0.00098863
-0.0108955
-0.000619503
-0.0104641
-0.000342455
-0.00992012
-0.000224882
-0.00927048
-0.000179935
-0.00852693
-0.000156593
-0.00771559
-0.000144845
-0.00687105
-0.000144897
-0.00602841
-0.000154818
-0.00522015
-0.000171379
-0.00447216
-0.000195542
-0.00379829
-0.00022497
-0.00320122
-0.000256653
-0.00267887
-0.000284352
-0.0022217
-0.000309976
-0.00181591
-0.000333764
-0.00144892
-0.000354428
-0.00111142
-0.000370824
-0.000796641
-0.000382659
-0.000501444
-0.0003896
-0.000224443
-0.000391317
3.38666e-05
-0.000387721
0.000271296
-0.000378998
0.000484476
-0.000365669
0.000672587
-0.00034855
0.000835408
-0.000328868
0.000969559
-0.000308219
0.00107256
-0.000288495
0.00114309
-0.000271667
0.00118117
-0.000259776
0.00118868
-0.000254662
0.00116924
-0.000257828
0.00112833
-0.000270062
0.00107264
-0.000290821
0.00100888
-0.000318059
0.000942759
-0.000348613
0.000878244
-0.000379143
0.000817561
-0.000407128
0.000761524
-0.000431412
0.000710011
-0.000452129
0.000662401
-0.00047026
0.000617974
-0.000487153
0.000576252
-0.0005042
0.000537264
-0.000522652
0.000501631
-0.000543504
0.000470462
-0.000567405
0.000445088
-0.000594617
0.00042674
-0.000625027
0.000416257
-0.000658235
0.000413908
-0.000693684
0.000419333
-0.000730778
0.000431609
-0.000768968
0.000449395
-0.000807773
0.000471131
-0.000846775
0.000495255
-0.000885594
0.00052039
-0.000923869
0.000545485
-0.000961256
0.000569863
-0.000997435
0.000593202
-0.00103213
0.000615459
-0.00106513
0.000636761
-0.00109631
0.000657319
-0.00112567
0.000677344
-0.0011533
0.000697003
-0.0011795
-0.00120485
0.000716341
0.00030795
0.000161277
0.000632942
0.000530325
0.000801253
0.000767848
0.00104185
0.000620444
0.00151101
0.000229772
0.00217098
-0.000146371
0.00290157
-0.000333869
0.0035931
-0.00029331
0.00418364
-0.000109632
0.00463418
8.88992e-05
0.00490199
0.00019672
0.0049135
0.000184919
0.00454674
9.40634e-05
0.00372682
1.73303e-06
0.00262519
-2.28852e-05
0.00161053
2.6022e-05
0.000902078
8.89538e-05
0.000446738
0.000112884
0.000128252
9.36043e-05
-9.83692e-05
4.66863e-05
-0.000238129
-1.68325e-05
-0.000293949
-8.90246e-05
-0.000276104
-0.000162742
-0.000197805
-0.000233118
-7.16675e-05
-0.000297516
8.77258e-05
-0.000354936
0.000268059
-0.000405303
0.000460312
-0.000448906
0.000662034
-0.000486073
0.00086921
-0.000517152
0.00107777
-0.000542327
0.0012845
-0.000561159
0.00148705
-0.000573371
0.00168244
-0.000578048
0.00186698
-0.000574144
0.00203636
-0.00056069
0.00218556
-0.000536927
0.00230912
-0.000502553
0.0024016
-0.000458153
0.00245843
-0.000405376
0.00247625
-0.00034669
0.00245347
-0.000285438
0.00239068
-0.00022571
0.00229093
-0.000171908
0.00215922
-0.000128074
0.00200336
-9.87951e-05
0.00183215
-8.66213e-05
0.00165439
-9.23025e-05
0.00147837
-0.000114796
0.00131133
-0.000151025
0.0011588
-0.000196077
0.00102421
-0.000244557
0.000908955
-0.000291871
0.000812488
-0.000334944
0.00073275
-0.000372392
0.000666808
-0.000404318
0.000611631
-0.000431976
0.000564774
-0.000457344
0.000524773
-0.000482652
0.000491169
-0.000509899
0.000464226
-0.000540462
0.000444498
-0.000574888
0.000432403
-0.000612931
0.000427939
-0.000653771
0.000430577
-0.000696321
0.000439309
-0.000739511
0.000452809
-0.000782469
0.000469637
-0.000824601
0.000488426
-0.000865564
0.000508043
-0.00090521
0.000527669
-0.000943495
0.000546823
-0.000980411
0.00056532
-0.00101593
0.000583183
-0.00104999
0.000600558
-0.0010825
0.000617624
-0.00111338
0.00063454
-0.00114258
0.00065141
-0.00117018
0.000668268
-0.00119636
-0.00122158
0.000685005
0.000390246
-0.000228969
0.00105615
-0.000135576
0.00176717
5.68256e-05
0.00240665
-1.90398e-05
0.0028781
-0.000241674
0.00316008
-0.000428357
0.00335015
-0.000523933
0.00360741
-0.000550575
0.00403721
-0.000539425
0.00464444
-0.00051833
0.00533932
-0.000498164
0.00599041
-0.000466175
0.00646459
-0.000380108
0.00662944
-0.000163119
0.00637219
0.000234367
0.00576126
0.000636945
0.00514306
0.000707158
0.00477663
0.000479316
0.00459079
0.000279446
0.00443276
0.000204713
0.00424294
0.000172983
0.00402621
0.000127712
0.00380436
5.91041e-05
0.00359705
-2.581e-05
0.00341737
-0.000117831
0.00327179
-0.000209352
0.00316147
-0.000294989
0.00308398
-0.000371413
0.00303458
-0.000436673
0.00300697
-0.000489544
0.00299375
-0.000529103
0.00298695
-0.000554366
0.00297779
-0.000564205
0.00295753
-0.000557794
0.00291831
-0.000534922
0.0028541
-0.000496484
0.0027617
-0.000444527
0.0026415
-0.000382351
0.00249493
-0.000311579
0.00232661
-0.000237055
0.00214451
-0.000164594
0.00195614
-9.70701e-05
0.00176435
-3.39227e-05
0.0015794
1.30493e-05
0.00140957
4.17483e-05
0.00125981
5.09659e-05
0.00113288
4.03095e-05
0.00102829
1.22876e-05
0.000941631
-2.8136e-05
0.000870482
-7.98757e-05
0.000811925
-0.00013752
0.000763328
-0.000195959
0.000722526
-0.000251069
0.000687603
-0.000300021
0.000656754
-0.000341543
0.00062842
-0.000375983
0.00060155
-0.000405106
0.000575822
-0.000431615
0.000551664
-0.000458494
0.000530061
-0.000488297
0.000512209
-0.00052261
0.000499141
-0.00056182
0.000491446
-0.000605236
0.000489138
-0.000651464
0.00049169
-0.000698873
0.00049818
-0.000745999
0.000507494
-0.000791783
0.00051853
-0.000835636
0.000530352
-0.000877386
0.000542283
-0.000917141
0.000553936
-0.000955148
0.000565188
-0.000991663
0.000576116
-0.00102686
0.000586911
-0.00106079
0.000597801
-0.00109339
0.000608986
-0.00112456
0.0006206
-0.0011542
0.000632697
-0.00118227
0.000645239
-0.0012089
-0.00123437
0.000658031
-0.000630757
0.000401789
-0.00143675
0.000670417
-0.00209826
0.000718335
-0.00287852
0.000761222
-0.00394961
0.000829417
-0.00526993
0.000891962
-0.0067024
0.000908538
-0.00809562
0.000842645
-0.00930102
0.000665969
-0.0101795
0.000360139
-0.0105952
-8.24166e-05
-0.0104255
-0.000635865
-0.00963429
-0.00117137
-0.0083753
-0.0014221
-0.00700561
-0.00113533
-0.00584221
-0.000526457
-0.00492289
-0.00021216
-0.00415823
-0.000285338
-0.0035404
-0.000338391
-0.00309333
-0.000242355
-0.00281005
-0.000110292
-0.00265604
-2.62985e-05
-0.0025932
-3.74303e-06
-0.00258829
-3.07217e-05
-0.00261441
-9.17047e-05
-0.00265092
-0.000172846
-0.00268357
-0.000262334
-0.00270444
-0.000350551
-0.00271069
-0.000430416
-0.00270206
-0.000498179
-0.0026777
-0.000553458
-0.00263456
-0.000597509
-0.00256874
-0.000630022
-0.00247924
-0.000647297
-0.00236983
-0.000644336
-0.00224779
-0.000618523
-0.00212051
-0.000571804
-0.00199275
-0.000510107
-0.00186371
-0.000440624
-0.00173096
-0.000369797
-0.00159327
-0.000302293
-0.00144726
-0.000243075
-0.00128741
-0.000193773
-0.00111758
-0.000156777
-0.000942185
-0.000133651
-0.000765121
-0.000126098
-0.000592788
-0.000132023
-0.000429476
-0.000151024
-0.000276699
-0.000180913
-0.000138
-0.000218575
-1.53575e-05
-0.000260163
9.04174e-05
-0.000301735
0.000179263
-0.000339915
0.000251689
-0.000372447
0.000308742
-0.000398595
0.000352013
-0.000419254
0.00038363
-0.000436723
0.000406157
-0.000454142
0.000422365
-0.000474702
0.000434921
-0.000500853
0.000446064
-0.000533752
0.000457363
-0.00057312
0.000469644
-0.000617517
0.000483066
-0.000664886
0.000497317
-0.000713123
0.000511828
-0.000760509
0.000525969
-0.000805924
0.000539188
-0.000848855
0.000551092
-0.000889291
0.000561489
-0.000927538
0.000570388
-0.000964048
0.000577982
-0.000999257
0.000584598
-0.00103347
0.000590637
-0.00106683
0.000596508
-0.00109927
0.000602572
-0.00113063
0.0006091
-0.00116072
0.000616252
-0.00118942
0.00062407
-0.00121672
-0.00124272
0.000632413
0.00032905
7.27384e-05
0.000689075
0.000310393
0.000904116
0.000503294
0.00105726
0.000608074
0.00112321
0.000763473
0.00102558
0.00098959
0.000721645
0.00121247
0.0002141
0.00135019
-0.000454183
0.00133425
-0.00121582
0.00112178
-0.00198523
0.000686993
-0.00265893
3.78347e-05
-0.00310396
-0.00072634
-0.00315847
-0.00136759
-0.0026695
-0.0016243
-0.00170007
-0.00149589
-0.000632578
-0.00127965
0.000210819
-0.00112873
0.000818662
-0.000946235
0.00130549
-0.000729187
0.00170327
-0.000508064
0.00201652
-0.000339554
0.0022494
-0.000236625
0.00241018
-0.000191494
0.0025091
-0.00019063
0.00255529
-0.000219035
0.00255289
-0.000259936
0.00249952
-0.000297174
0.00238792
-0.000318819
0.00221321
-0.000323467
0.001985
-0.00032525
0.00173297
-0.000345478
0.00149578
-0.000392828
0.00130227
-0.000453792
0.00116042
-0.000502488
0.00105854
-0.000516638
0.000975511
-0.000488778
0.000892893
-0.00042749
0.000801795
-0.000349526
0.000702976
-0.000270977
0.000603343
-0.000202661
0.000510278
-0.00015001
0.000431239
-0.000114734
0.000371091
-9.66293e-05
0.000331922
-9.44824e-05
0.000312432
-0.000106608
0.000311031
-0.000130622
0.000323863
-0.000163856
0.00034616
-0.00020321
0.000372849
-0.000245264
0.000399276
-0.00028659
0.000421739
-0.000324197
0.000437831
-0.000356006
0.000446651
-0.000381267
0.000448808
-0.000400752
0.000446187
-0.000416633
0.000441462
-0.000431997
0.000437453
-0.000450133
0.000436494
-0.000473743
0.000439982
-0.00050434
0.000448227
-0.000541997
0.000460613
-0.000585504
0.000475938
-0.000632842
0.000492808
-0.000681755
0.000509932
-0.000730247
0.000526289
-0.000776866
0.000541159
-0.000820793
0.00055409
-0.000861787
0.00056485
-0.00090005
0.000573383
-0.000936071
0.0005798
-0.000970464
0.000584359
-0.00100382
0.000587446
-0.00103656
0.000589532
-0.00106891
0.000591117
-0.00110085
0.000592668
-0.00113218
0.00059457
-0.00116263
0.000597097
-0.00119195
0.000600392
-0.00122001
-0.00124675
0.000604423
0.0002607
-0.000187962
0.000929434
-0.000358342
0.00201114
-0.000578415
0.00339638
-0.000777168
0.00488689
-0.000727034
0.00640739
-0.000530909
0.00796238
-0.000342511
0.00951205
-0.000199484
0.0109215
-7.51948e-05
0.0120501
-6.86728e-06
0.0127703
-3.31837e-05
0.0130041
-0.00019593
0.012761
-0.000483289
0.0122209
-0.000827409
0.0117296
-0.00113306
0.0115681
-0.00133437
0.0117283
-0.00143986
0.0120661
-0.00146652
0.012552
-0.00143217
0.0131619
-0.00133902
0.0138414
-0.00118759
0.0144716
-0.000969781
0.01496
-0.000725048
0.0152892
-0.000520699
0.0154905
-0.0003919
0.0155891
-0.000317593
0.015596
-0.000266895
0.0155072
-0.000208389
0.015286
-9.75385e-05
0.0148395
0.000123035
0.0140533
0.000460938
0.0128654
0.000842394
0.0113415
0.00113111
0.00966794
0.00121973
0.00804349
0.00112196
0.00658721
0.000939641
0.00533818
0.000760253
0.00429228
0.000618415
0.00343081
0.000511945
0.00273175
0.000428084
0.00217276
0.000356327
0.00173245
0.000290301
0.00139111
0.0002266
0.00113077
0.000163711
0.000935392
0.000100898
0.000790382
3.84029e-05
0.000682938
-2.31779e-05
0.000601887
-8.28044e-05
0.000537865
-0.000139188
0.000483596
-0.000190994
0.000434133
-0.000237127
0.000386988
-0.000277052
0.000342022
-0.00031104
0.00030102
-0.000340265
0.000266954
-0.000366686
0.000243039
-0.000392718
0.000231788
-0.000420746
0.000234276
-0.000452621
0.000249827
-0.000489295
0.000276178
-0.000530691
0.000310032
-0.000575851
0.000347788
-0.000623261
0.000386192
-0.000671246
0.000422742
-0.000718305
0.00045581
-0.000763315
0.000484542
-0.000805598
0.000508654
-0.000844906
0.00052822
-0.000881354
0.000543511
-0.000915342
0.000554908
-0.000947469
0.000562863
-0.000978419
0.000567889
-0.00100884
0.000570558
-0.00103923
0.000571477
-0.00106983
0.000571258
-0.00110063
0.000570474
-0.00113139
0.000569618
-0.00116177
0.000569081
-0.00119141
0.000569131
-0.00122006
-0.0012475
0.000569886
-0.000528932
0.000340971
-0.00136338
0.000476107
-0.00211609
0.000174299
-0.00270275
-0.000190516
-0.00309641
-0.000333375
-0.00322416
-0.000403159
-0.00307181
-0.00049486
-0.00268928
-0.000582006
-0.00211406
-0.000650416
-0.00139896
-0.000721965
-0.000586979
-0.00084517
0.000230578
-0.00101349
0.000929766
-0.00118248
0.00139094
-0.00128858
0.00157638
-0.0013185
0.00154588
-0.00130387
0.0013988
-0.00129279
0.00126931
-0.00133703
0.00133847
-0.00150132
0.00173825
-0.0017388
0.00225509
-0.00170443
0.00231947
-0.00103416
0.00164787
-5.34533e-05
0.0006013
0.000525872
-0.000384112
0.000593513
-0.0011929
0.000491198
-0.00182333
0.000363536
-0.00227602
0.000244301
-0.00257493
0.000201363
-0.00272977
0.000277878
-0.00275839
0.000489558
-0.00269358
0.000777586
-0.00256797
0.00100549
-0.00241235
0.00106411
-0.0022518
0.000961414
-0.00209725
0.000785088
-0.00194591
0.000608912
-0.00179418
0.000466686
-0.00164659
0.000364358
-0.00149633
0.000277822
-0.00134428
0.000204276