/*--------------------------------*- C++ -*----------------------------------*\
| =========                 |                                                 |
| \\      /  F ield         | OpenFOAM: The Open Source CFD Toolbox           |
|  \\    /   O peration     | Version:  2012                                  |
|   \\  /    A nd           | Website:  www.openfoam.com                      |
|    \\/     M anipulation  |                                                 |
\*---------------------------------------------------------------------------*/
FoamFile
{
    version     2.0;
    format      ascii;
    class       volVectorField;
    location    "0.73";
    object      U;
}
// * * * * * * * * * * * * * * * * * * * * * * * * * * * * * * * * * * * * * //

dimensions      [0 1 -1 0 0 0 0];


internalField   nonuniform List<vector> 
42400
(
(-4.73747 2.5938 1.16437e-16)
(1.41955 -14.0194 1.6849e-16)
(28.7534 -45.0268 -1.72391e-16)
(46.6282 -74.0804 0)
(44.7338 -77.4778 0)
(25.0027 -60.7067 -1.09034e-19)
(0.420108 -35.8935 0)
(-17.6743 -15.1455 1.10848e-19)
(-25.3723 -3.26208 0)
(-24.4967 0.99559 1.16858e-19)
(-18.2364 0.664445 1.19835e-19)
(-8.60728 -1.96689 -1.21894e-19)
(2.77249 -5.37009 -8.23997e-17)
(12.9285 -7.95303 8.40917e-17)
(18.952 -8.10261 -1.35253e-19)
(20.4523 -6.00681 0)
(19.0303 -3.11567 0)
(16.113 -0.383374 0)
(12.4776 1.97688 0)
(8.57466 4.03362 0)
(4.71603 5.84778 0)
(1.18658 7.3752 -1.99272e-19)
(-1.76257 8.50611 -2.66601e-17)
(-3.96905 9.16063 4.63274e-18)
(-5.40694 9.32743 2.23953e-17)
(-6.14437 9.04769 -1.11015e-19)
(-6.30854 8.39126 -8.94853e-20)
(-6.05645 7.44267 1.3732e-19)
(-5.54565 6.29555 0)
(-4.91707 5.04377 0)
(-4.28159 3.77413 1.38321e-18)
(-3.71105 2.56127 -1.39762e-18)
(-3.23636 1.46259 -2.3478e-20)
(-2.85193 0.512307 2.28917e-18)
(-2.52646 -0.283012 -2.25062e-18)
(-2.21951 -0.943434 0)
(-1.89907 -1.50947 0)
(-1.54389 -2.022 0)
(-1.14104 -2.50012 0)
(-0.693502 -2.95051 3.25833e-18)
(-0.225165 -3.38671 -3.27018e-18)
(0.236311 -3.81615 2.6777e-18)
(0.678759 -4.2258 -4.64231e-19)
(1.09575 -4.59758 -4.24321e-18)
(1.48635 -4.91898 1.91028e-18)
(1.85295 -5.18378 -1.28274e-18)
(2.19928 -5.39117 2.36956e-18)
(2.52921 -5.54469 -1.01665e-18)
(2.84603 -5.65115 -4.21557e-20)
(3.1523 -5.71923 3.53225e-19)
(3.44983 -5.75823 -5.1565e-19)
(3.73976 -5.77676 1.44285e-19)
(4.02262 -5.78187 1.81102e-21)
(4.29835 -5.77852 1.3378e-20)
(4.56621 -5.76939 0)
(4.82472 -5.75497 0)
(5.07162 -5.73389 0)
(5.30392 -5.70343 -5.58674e-20)
(5.51808 -5.66019 -6.27159e-20)
(5.71032 -5.60083 0)
(5.87706 -5.52277 -1.37638e-18)
(6.01539 -5.42479 1.42916e-18)
(6.12361 -5.30731 1.4281e-18)
(6.20154 -5.17252 -1.40129e-18)
(6.25071 -5.02405 0)
(6.27428 -4.86639 0)
(6.27665 -4.70419 1.37113e-18)
(6.26292 -4.54146 -1.34034e-18)
(6.23828 -4.38103 -1.4904e-19)
(6.20741 -4.22433 0)
(6.17408 -4.07147 0)
(6.14099 -3.9217 -1.31857e-19)
(6.10985 -3.77393 -1.25311e-19)
(6.08157 -3.62725 0)
(6.05656 -3.48128 -1.11659e-19)
(6.03492 -3.33629 -8.86869e-19)
(6.01683 -3.19312 8.60279e-19)
(6.00301 -3.05287 1.81315e-19)
(5.99679 -2.9168 7.00296e-19)
(6.00502 -2.79773 5.87032e-19)
(-12.0183 13.4269 0)
(-16.8577 21.2278 -1.48382e-16)
(-5.46429 8.45971 1.52332e-16)
(9.12604 -8.15821 0)
(16.6707 -22.2741 0)
(19.7107 -30.6144 -1.16819e-16)
(19.6315 -33.277 1.1947e-16)
(18.8699 -32.265 -1.1046e-19)
(19.5028 -30.2369 0)
(22.4281 -29.2073 -1.16095e-19)
(27.5385 -30.1159 -1.18879e-19)
(34.064 -32.9782 5.68082e-17)
(40.2766 -36.0816 -9.07715e-18)
(41.9816 -35.7273 -5.0821e-17)
(35.0836 -28.9228 -3.59459e-17)
(21.352 -17.5006 3.63199e-17)
(7.36558 -6.34148 0)
(-2.23978 1.24626 -3.61856e-19)
(-7.33901 5.03752 0)
(-9.66881 6.49071 0)
(-10.5962 6.90558 0)
(-10.7462 6.94301 7.55582e-18)
(-10.3801 6.82773 -1.90562e-18)
(-9.65557 6.58774 -5.48351e-18)
(-8.69871 6.2463 0)
(-7.56537 5.85362 2.52262e-19)
(-6.33952 5.43786 9.02148e-20)
(-5.11455 4.9959 -1.38357e-19)
(-3.96278 4.51248 4.096e-19)
(-2.92999 3.97015 -4.14039e-19)
(-2.04503 3.35462 1.47629e-19)
(-1.32753 2.66079 1.2693e-19)
(-0.782269 1.90392 6.41795e-19)
(-0.39285 1.11374 -7.33913e-19)
(-0.127978 0.318776 -1.14752e-18)
(0.0523109 -0.458892 1.17309e-18)
(0.19269 -1.20122 0)
(0.336129 -1.89252 -6.4173e-20)
(0.509832 -2.52971 0)
(0.727302 -3.1196 -1.14915e-19)
(1.0013 -3.6581 1.51271e-18)
(1.33843 -4.13087 -1.62588e-18)
(1.73362 -4.53028 1.26796e-19)
(2.16993 -4.85541 -1.12928e-19)
(2.63024 -5.10589 1.89112e-20)
(3.09702 -5.28402 -8.3557e-20)
(3.55454 -5.39485 6.90535e-20)
(3.99003 -5.44664 6.99733e-19)
(4.3946 -5.45029 -7.09651e-19)
(4.76359 -5.41839 0)
(5.09621 -5.36397 2.30889e-20)
(5.39476 -5.29915 1.90191e-20)
(5.66351 -5.23394 4.82036e-20)
(5.90751 -5.17542 -6.2887e-20)
(6.13138 -5.12728 8.51855e-21)
(6.3384 -5.08984 -4.5228e-19)
(6.52997 -5.06041 4.9394e-19)
(6.70537 -5.03399 5.58072e-20)
(6.86203 -5.00428 6.26511e-20)
(6.99604 -4.96472 -9.47202e-19)
(7.10302 -4.90961 9.32209e-19)
(7.17906 -4.83512 -7.59147e-20)
(7.22165 -4.73993 -6.1795e-20)
(7.23044 -4.6255 0)
(7.20761 -4.49585 1.02441e-18)
(7.15781 -4.35674 2.14677e-20)
(7.08762 -4.21463 -1.25719e-18)
(7.00461 -4.0753 0)
(6.91621 -3.94279 2.73476e-19)
(6.82867 -3.81882 -1.20492e-19)
(6.74642 -3.70274 -1.00377e-18)
(6.67181 -3.59219 1.10959e-18)
(6.60543 -3.48407 1.03482e-18)
(6.54667 -3.37548 -9.84128e-19)
(6.4944 -3.26448 2.05529e-19)
(6.4476 -3.15041 -7.56687e-19)
(6.40586 -3.03376 5.69634e-19)
(6.36971 -2.91606 -1.81297e-19)
(6.34012 -2.80181 7.40867e-19)
(6.31534 -2.71026 -5.9048e-19)
(-6.30227 6.88074 2.41647e-17)
(-33.2768 29.2208 1.31398e-19)
(-59.842 54.5788 -4.39608e-19)
(-72.7731 64.9096 1.17315e-19)
(-67.7176 61.3644 0)
(-53.2526 49.7506 8.77896e-17)
(-36.2318 36.3916 -1.78625e-16)
(-20.5793 24.8312 9.081e-17)
(-7.6518 16.1842 -8.61634e-17)
(2.36824 10.3846 5.83299e-18)
(9.20194 7.17522 8.38514e-17)
(12.1242 6.65351 5.27126e-19)
(10.3899 9.02636 4.59612e-19)
(3.84211 13.6101 -4.7235e-17)
(-5.13386 18.0432 4.82131e-17)
(-12.3703 20.1711 5.349e-19)
(-16.3466 20.27 2.5846e-17)
(-18.2744 19.4284 -3.09329e-18)
(-19.4018 17.9424 -2.3279e-17)
(-20.0608 15.8168 -1.12375e-19)
(-20.1894 13.0938 1.4422e-19)
(-19.7438 9.88478 1.67053e-19)
(-18.7452 6.37627 0)
(-17.3405 2.85165 -1.14151e-20)
(-15.6985 -0.405613 -1.62908e-17)
(-14.0314 -3.11956 3.15297e-17)
(-12.5086 -5.08565 -1.55273e-17)
(-11.2274 -6.21878 1.27955e-17)
(-10.2051 -6.55389 -1.29496e-17)
(-9.40712 -6.22632 -1.00457e-17)
(-8.76894 -5.43185 1.81068e-17)
(-8.20912 -4.38504 -1.37732e-18)
(-7.65239 -3.29169 -7.1052e-18)
(-7.04673 -2.32198 0)
(-6.35652 -1.58291 0)
(-5.55718 -1.11816 -7.55059e-20)
(-4.63895 -0.926538 0)
(-3.60545 -0.976868 -3.58323e-20)
(-2.47288 -1.22423 2.17603e-18)
(-1.27778 -1.62398 -4.20248e-18)
(-0.0658539 -2.12231 2.06688e-18)
(1.12581 -2.65538 0)
(2.26507 -3.16815 0)
(3.32349 -3.62002 1.30917e-18)
(4.27912 -3.98411 -1.22921e-18)
(5.11644 -4.24636 -9.83549e-20)
(5.82673 -4.40441 0)
(6.40835 -4.46656 0)
(6.8671 -4.44957 5.67855e-19)
(7.21548 -4.37549 -5.64939e-19)
(7.47134 -4.26806 -2.30479e-20)
(7.65543 -4.14947 0)
(7.78864 -4.03782 -1.25994e-19)
(7.88949 -3.94572 1.05148e-19)
(7.97244 -3.87991 1.28601e-19)
(8.04697 -3.84169 -1.38935e-19)
(8.11744 -3.8278 3.94061e-19)
(8.18356 -3.8315 -9.58824e-19)
(8.2413 -3.84387 1.18075e-18)
(8.2842 -3.8552 9.85367e-20)
(8.3048 -3.85643 -7.23715e-19)
(8.29634 -3.84048 -8.66824e-19)
(8.25412 -3.8033 9.13238e-19)
(8.17676 -3.74451 0)
(8.06674 -3.66734 -8.21894e-19)
(7.93038 -3.57801 -2.11803e-20)
(7.777 -3.48431 1.17068e-18)
(7.61738 -3.39391 0)
(7.46195 -3.31253 -2.27031e-19)
(7.31902 -3.24283 -7.47768e-19)
(7.19362 -3.18398 7.518e-19)
(7.08723 -3.13237 0)
(6.99837 -3.08293 0)
(6.92372 -3.03058 9.96406e-20)
(6.85945 -2.97156 -9.38737e-20)
(6.80219 -2.90398 -4.83623e-19)
(6.7497 -2.8279 7.71579e-19)
(6.70115 -2.74514 0)
(6.65665 -2.66008 -1.4106e-19)
(6.6132 -2.588 -4.64191e-19)
(-5.19804 1.38581 -9.42228e-17)
(-10.4145 4.32237 1.40272e-16)
(-12.058 5.75729 -7.13086e-17)
(-9.60572 7.02935 -6.85753e-17)
(-4.64197 7.14496 7.00102e-17)
(1.93971 5.47044 0)
(9.05548 2.17506 -1.19632e-16)
(15.7272 -2.17311 1.21824e-16)
(21.0268 -6.69172 -1.02001e-16)
(23.8968 -10.4303 1.04102e-16)
(23.4076 -12.4955 -8.11895e-17)
(19.23 -12.2861 1.5391e-16)
(11.8948 -9.66296 -1.31933e-16)
(2.35032 -4.69814 1.1132e-16)
(-8.45517 1.97553 -9.17982e-17)
(-19.0967 9.10704 4.15416e-17)
(-27.9211 15.4567 2.32312e-17)
(-34.0986 20.201 -3.93152e-17)
(-37.6836 23.2342 1.59132e-17)
(-39.081 24.9202 1.09775e-19)
(-38.7386 25.5569 -4.27022e-19)
(-37.0101 25.2469 -3.58679e-18)
(-34.1276 23.9493 3.72421e-18)
(-30.3217 21.661 1.80398e-19)
(-25.7451 18.4688 0)
(-20.6347 14.5737 1.69172e-19)
(-15.2485 10.2544 0)
(-9.89981 5.8687 4.99025e-18)
(-4.99027 1.82868 -4.10258e-19)
(-0.917638 -1.46339 -4.41562e-18)
(2.07287 -3.74201 -4.0627e-18)
(3.96979 -4.96069 3.92644e-18)
(4.97283 -5.29298 1.08706e-19)
(5.39236 -5.0179 -6.92516e-20)
(5.53403 -4.42001 -3.65414e-18)
(5.62748 -3.73732 3.78393e-18)
(5.8078 -3.13679 0)
(6.12575 -2.70556 3.84904e-18)
(6.57631 -2.46701 -3.76841e-18)
(7.1447 -2.38239 1.80422e-19)
(7.80373 -2.4049 -2.48631e-19)
(8.50176 -2.49913 0)
(9.18439 -2.62953 0)
(9.80857 -2.7597 0)
(10.3398 -2.86012 -1.32433e-19)
(10.7508 -2.9094 1.96925e-18)
(11.0214 -2.89748 -1.8669e-18)
(11.144 -2.82777 0)
(11.1273 -2.71339 0)
(10.994 -2.57187 6.15773e-19)
(10.7763 -2.42312 -6.22804e-19)
(10.5121 -2.28633 2.42602e-19)
(10.2375 -2.17709 -2.64099e-19)
(9.98123 -2.10585 -4.74315e-20)
(9.76126 -2.07744 5.1451e-20)
(9.58511 -2.09136 -1.15346e-19)
(9.4513 -2.14252 4.73968e-19)
(9.35168 -2.2222 -4.17729e-19)
(9.27384 -2.3193 0)
(9.20335 -2.42172 4.99418e-20)
(9.12582 -2.51783 7.53409e-19)
(9.02895 -2.59792 -5.52672e-21)
(8.90414 -2.65542 -1.62392e-18)
(8.74783 -2.68772 1.55331e-18)
(8.5621 -2.69642 -7.02121e-19)
(8.35438 -2.68694 -8.00545e-19)
(8.1363 -2.66722 5.86661e-19)
(7.92144 -2.6459 8.56078e-20)
(7.72276 -2.63018 7.52052e-19)
(7.54993 -2.62402 -7.13826e-19)
(7.40772 -2.62737 1.68598e-19)
(7.29563 -2.63654 7.01516e-19)
(7.20891 -2.64561 -6.14903e-19)
(7.14053 -2.64827 0)
(7.08319 -2.63947 5.25804e-19)
(7.03092 -2.61637 -1.61626e-19)
(6.97991 -2.57852 -1.03375e-18)
(6.92876 -2.52755 4.43223e-19)
(6.87783 -2.46783 -3.91535e-19)
(6.82526 -2.41492 3.84794e-19)
(18.6157 -10.5103 4.13706e-17)
(54.5428 -25.6478 0)
(74.5555 -35.6807 0)
(87.054 -33.8223 1.85118e-20)
(91.7694 -30.7772 0)
(92.4347 -24.6124 0)
(89.4682 -16.789 0)
(83.7462 -8.14129 4.60596e-19)
(76.1369 0.769269 0)
(67.1695 9.53178 -1.05161e-19)
(57.2444 17.833 -1.19132e-17)
(46.8595 25.4262 3.26827e-17)
(36.6621 32.1387 -2.17659e-17)
(27.2848 37.917 0)
(19.2702 42.7492 3.19903e-19)
(12.9613 46.5504 -3.24365e-19)
(8.38845 49.2831 0)
(5.28408 51.0555 -3.95143e-17)
(3.2634 52.0485 7.85376e-17)
(2.00405 52.4285 -2.49759e-18)
(1.32621 52.3111 -3.68661e-17)
(1.17754 51.7761 -2.36783e-19)
(1.5337 50.898 0)
(2.34087 49.668 2.43479e-17)
(3.54542 48.1142 -2.44428e-17)
(5.09743 46.2646 1.68611e-17)
(6.93435 44.0956 -1.6937e-17)
(8.95741 41.5628 -1.02319e-17)
(11.0359 38.6996 1.02932e-17)
(13.0196 35.6551 0)
(14.7559 32.6202 3.05989e-18)
(16.1461 29.7981 -3.09006e-18)
(17.1705 27.3541 4.84347e-20)
(17.8578 25.3791 -1.17219e-18)
(18.2677 23.8849 1.24958e-18)
(18.4848 22.8258 7.17622e-20)
(18.5816 22.0961 -1.60728e-19)
(18.6035 21.5582 -4.2002e-18)
(18.584 21.0827 4.22474e-18)
(18.5318 20.5621 4.19494e-18)
(18.4278 19.8842 -8.63908e-20)
(18.2499 18.9773 -4.2158e-18)
(17.9807 17.8303 0)
(17.5974 16.4678 1.10548e-19)
(17.0718 14.9442 -1.19594e-18)
(16.3906 13.3377 2.17465e-18)
(15.5632 11.7219 -8.99106e-19)
(14.6148 10.1339 1.75377e-19)
(13.6041 8.60152 0)
(12.6225 7.15806 -3.41814e-20)
(11.7528 5.82406 8.30313e-19)
(11.041 4.60898 -8.54243e-19)
(10.4958 3.52051 -3.81056e-20)
(10.0993 2.5634 7.37675e-19)
(9.82143 1.73607 -6.39032e-19)
(9.63133 1.02998 6.30651e-19)
(9.50157 0.431677 5.81556e-19)
(9.40899 -0.0738659 -1.17877e-18)
(9.33369 -0.500424 9.6269e-19)
(9.2583 -0.85894 -9.98623e-19)
(9.16814 -1.15734 0)
(9.05206 -1.40132 4.93626e-20)
(8.90356 -1.59562 7.69285e-19)
(8.72179 -1.74531 -6.6048e-19)
(8.51183 -1.85671 -1.70808e-19)
(8.28427 -1.93786 0)
(8.05363 -1.99811 -6.08291e-19)
(7.8358 -2.0471 5.29782e-19)
(7.64495 -2.09304 8.18958e-20)
(7.49059 -2.14119 5.57294e-20)
(7.37579 -2.19288 -1.25814e-19)
(7.29715 -2.2457 -2.15082e-20)
(7.24639 -2.29473 4.80735e-19)
(7.21307 -2.33427 -4.2396e-19)
(7.18721 -2.3595 3.84357e-20)
(7.16116 -2.36758 0)
(7.13047 -2.35791 4.2595e-19)
(7.09376 -2.33181 -3.15939e-19)
(7.05178 -2.29302 0)
(7.00294 -2.25578 2.57023e-19)
(11.038 -7.95445 8.42956e-19)
(16.9844 -20.2742 3.24707e-17)
(10.4651 -19.3765 -2.61205e-17)
(-3.37739 -21.9232 4.78343e-17)
(-9.79636 -24.6081 -2.18159e-17)
(-11.048 -30.065 -7.96742e-20)
(-9.64261 -36.1253 -3.04795e-18)
(-8.43481 -40.8948 2.98745e-18)
(-8.63569 -43.4677 -8.81612e-20)
(-10.0269 -43.7894 -2.6346e-20)
(-11.9903 -42.3114 -1.53427e-17)
(-13.9879 -39.5385 -2.06405e-17)
(-15.627 -35.8391 3.7063e-17)
(-16.7315 -31.5356 -4.36124e-17)
(-17.2937 -26.921 8.91041e-17)
(-17.3343 -22.2261 -4.62486e-17)
(-16.8582 -17.6303 0)
(-15.8835 -13.31 0)
(-14.3845 -9.43535 4.64334e-17)
(-12.3264 -6.16319 -1.63335e-18)
(-9.66099 -3.62789 -4.56196e-17)
(-6.37435 -1.92041 4.21154e-17)
(-2.58792 -0.953001 -8.30569e-17)
(1.33992 -0.491238 4.07974e-17)
(4.89374 -0.102067 3.54292e-17)
(7.63295 0.631212 -3.35744e-18)
(9.45229 1.89744 -3.32887e-17)
(10.5877 3.61041 2.82818e-19)
(11.3716 5.53243 -2.54346e-19)
(12.0195 7.40011 4.59631e-19)
(12.6022 8.97905 0)
(13.1099 10.1158 1.49029e-17)
(13.5045 10.7751 -2.80534e-17)
(13.7248 11.021 1.30775e-17)
(13.6999 10.9548 0)
(13.3812 10.6898 -7.79185e-18)
(12.7396 10.3296 7.83439e-18)
(11.7899 9.95911 0)
(10.5742 9.61723 0)
(9.15491 9.31039 -3.19642e-18)
(7.62567 9.03141 3.33751e-18)
(6.08322 8.74754 4.92192e-20)
(4.64107 8.42443 0)
(3.40702 8.02437 7.33266e-19)
(2.46888 7.51728 -4.62941e-19)
(1.88342 6.88259 -4.99082e-19)
(1.68072 6.13523 -2.33336e-21)
(1.85559 5.33055 -1.91141e-20)
(2.35208 4.52689 0)
(3.07472 3.75845 4.43277e-19)
(3.91907 3.04757 -8.33159e-19)
(4.79163 2.41003 4.64497e-19)
(5.61862 1.85077 8.13962e-20)
(6.35106 1.36515 5.13022e-19)
(6.96462 0.942869 -8.01611e-20)
(7.45446 0.571441 -8.28811e-19)
(7.82783 0.23908 2.93803e-19)
(8.09711 -0.063362 0)
(8.27503 -0.341495 0)
(8.37238 -0.59749 -3.95784e-20)
(8.39795 -0.830945 -3.65778e-20)
(8.35977 -1.04012 0)
(8.26679 -1.22324 -5.36904e-19)
(8.13022 -1.37951 5.28507e-19)
(7.96411 -1.50986 5.82536e-19)
(7.78495 -1.61721 2.13406e-20)
(7.61021 -1.70621 -3.92483e-19)
(7.45612 -1.78248 4.02889e-19)
(7.335 -1.85138 -3.93572e-19)
(7.25314 -1.91669 -2.48012e-20)
(7.20981 -1.97976 -2.62129e-19)
(7.19803 -2.03933 2.57679e-19)
(7.20683 -2.09225 2.19489e-19)
(7.22417 -2.13467 -2.77049e-19)
(7.23956 -2.16321 1.83635e-19)
(7.24568 -2.17585 -2.15608e-19)
(7.2389 -2.17219 1.86465e-19)
(7.21894 -2.15332 -3.51436e-19)
(7.18775 -2.12236 9.80792e-21)
(7.14506 -2.09269 1.03524e-20)
(-5.32732 2.8676 -8.33327e-19)
(-8.34484 1.60268 -1.24152e-19)
(-1.03001 -4.39612 2.43859e-19)
(7.83793 -12.3184 3.57898e-19)
(15.9719 -17.1223 -5.04043e-19)
(23.3065 -19.9483 2.90277e-18)
(30.0279 -21.2296 1.20608e-18)
(35.8984 -21.3669 -4.24452e-18)
(40.5596 -20.5312 6.22094e-18)
(43.741 -18.7559 -6.21048e-18)
(45.2367 -16.0667 7.66146e-18)
(44.9071 -12.5411 -7.86297e-18)
(42.7507 -8.32852 9.25719e-18)
(38.9899 -3.6212 -9.19123e-18)
(34.0107 1.32791 2.572e-19)
(28.2687 6.2183 2.68123e-19)
(22.0895 10.8591 2.39119e-17)
(15.6029 15.2351 -2.43412e-17)
(8.92128 19.3544 -5.57593e-19)
(2.17711 23.1044 6.42697e-20)
(-4.44421 26.2714 2.31446e-17)
(-10.6501 28.6078 -2.33866e-17)
(-15.9948 29.843 0)
(-19.8885 29.6601 -5.28059e-20)
(-21.6917 27.7612 0)
(-21.0115 24.0962 0)
(-18.1345 19.1292 -1.10513e-20)
(-14.1147 13.7878 -7.94827e-18)
(-10.2741 9.02854 8.03362e-18)
(-7.52676 5.40977 6.84674e-18)
(-6.08652 2.98903 -7.39767e-18)
(-5.65145 1.49209 3.75879e-19)
(-5.74975 0.562832 -3.34774e-19)
(-5.99392 -0.0624349 0)
(-6.17024 -0.530579 -7.0612e-20)
(-6.21341 -0.907023 0)
(-6.13894 -1.21645 0)
(-5.95733 -1.45102 -5.61149e-20)
(-5.67888 -1.60529 0)
(-5.30401 -1.68079 0)
(-4.81205 -1.67533 2.63631e-18)
(-4.19222 -1.60204 -2.4999e-18)
(-3.434 -1.47719 0)
(-2.53113 -1.31865 0)
(-1.49172 -1.13862 0)
(-0.349741 -0.960655 6.10655e-21)
(0.843936 -0.800002 2.34574e-21)
(2.03717 -0.657415 -2.35392e-19)
(3.17664 -0.535421 2.4513e-19)
(4.21389 -0.436567 -4.53639e-19)
(5.11443 -0.359982 5.07924e-19)
(5.86066 -0.305822 -5.81073e-20)
(6.45148 -0.276059 -2.74346e-20)
(6.899 -0.273593 0)
(7.22354 -0.301232 0)
(7.44834 -0.360478 3.61205e-19)
(7.59506 -0.450565 1.84194e-20)
(7.68104 -0.568055 -3.64432e-19)
(7.71835 -0.707049 3.01057e-19)
(7.71473 -0.859926 -2.8354e-19)
(7.6755 -1.01835 -4.4412e-19)
(7.60582 -1.17433 4.64878e-20)
(7.51239 -1.32108 7.78681e-19)
(7.40426 -1.45365 -3.69068e-19)
(7.2926 -1.56922 -1.06187e-20)
(7.18958 -1.66716 -4.67484e-20)
(7.10675 -1.74876 -2.15486e-19)
(7.05301 -1.8166 3.95621e-19)
(7.03293 -1.87372 -1.80644e-19)
(7.04574 -1.92274 -3.09484e-20)
(7.08548 -1.96518 -1.12989e-19)
(7.14243 -2.00119 1.09357e-19)
(7.20529 -2.02978 0)
(7.2635 -2.04936 2.00292e-20)
(7.30898 -2.0584 0)
(7.33695 -2.05595 -4.5943e-20)
(7.34594 -2.04185 6.22154e-21)
(7.33722 -2.01674 3.71711e-20)
(7.3137 -1.98276 -3.65189e-20)
(7.27588 -1.95211 1.57526e-20)
(-16.926 8.7793 -1.19705e-17)
(-36.8091 28.5547 1.80428e-17)
(-39.5405 22.034 -1.82111e-19)
(-16.4401 12.0586 2.37322e-18)
(8.84701 -4.41219 -2.43155e-18)
(30.2509 -17.3447 -4.86109e-18)
(45.699 -27.6418 1.20897e-17)
(55.6029 -35.475 -7.46009e-18)
(60.3647 -40.7564 1.15733e-17)
(60.3241 -43.4884 -1.17457e-17)
(55.9271 -43.6872 0)
(47.7398 -41.2774 -2.9174e-19)
(36.8592 -36.22 2.87825e-19)
(25.2261 -28.8915 0)
(14.5771 -20.7166 0)
(5.43865 -13.9721 0)
(-2.30035 -9.86111 0)
(-8.88259 -7.59966 -3.50352e-20)
(-14.7485 -6.05998 0)
(-20.1363 -4.73298 7.7183e-18)
(-24.8442 -3.43968 -7.98873e-18)
(-28.4261 -2.25238 -1.18852e-17)
(-30.3831 -1.40428 1.19813e-17)
(-30.4012 -1.08732 1.01771e-17)
(-28.5537 -1.32326 -1.03117e-17)
(-25.3201 -1.96182 8.37254e-18)
(-21.405 -2.81478 -8.47918e-18)
(-17.473 -3.75649 6.12567e-18)
(-13.94 -4.70842 -1.08279e-18)
(-10.9802 -5.56467 -5.26756e-18)
(-8.63113 -6.19778 0)
(-6.82961 -6.54451 -1.30696e-19)
(-5.4507 -6.61458 -1.24967e-19)
(-4.36247 -6.45937 0)
(-3.46392 -6.1383 7.10596e-20)
(-2.69378 -5.70507 0)
(-2.01054 -5.20144 0)
(-1.38192 -4.65719 -1.15315e-18)
(-0.781629 -4.09463 2.1952e-18)
(-0.190327 -3.53689 -1.06291e-18)
(0.403514 -3.00791 -7.62797e-19)
(1.00946 -2.52381 8.26195e-19)
(1.63519 -2.09243 4.6924e-20)
(2.28373 -1.72407 0)
(2.94846 -1.42978 -6.3781e-19)
(3.62268 -1.20558 5.6158e-19)
(4.29286 -1.03952 0)
(4.93519 -0.926629 0)
(5.52512 -0.85683 4.36417e-19)
(6.04017 -0.815566 -5.05889e-19)
(6.46259 -0.789974 -4.83682e-19)
(6.78292 -0.771795 4.51183e-19)
(7.00196 -0.758826 3.90701e-19)
(7.13056 -0.754317 -6.88631e-19)
(7.18672 -0.764613 3.25386e-19)
(7.19109 -0.79616 6.92152e-20)
(7.1626 -0.853043 0)
(7.11565 -0.935713 -1.57336e-20)
(7.05961 -1.04093 1.47004e-19)
(7.00005 -1.16258 -2.57516e-19)
(6.94073 -1.29292 1.2611e-19)
(6.88522 -1.42384 0)
(6.83776 -1.54795 1.61679e-20)
(6.80321 -1.65944 0)
(6.78652 -1.75449 1.06262e-20)
(6.79184 -1.83147 -9.86798e-21)
(6.82156 -1.8907 -2.27909e-20)
(6.87558 -1.93399 -6.59527e-20)
(6.95086 -1.96396 3.74925e-20)
(7.04156 -1.98333 -2.81247e-20)
(7.13975 -1.99435 -1.10163e-19)
(7.23668 -1.99848 1.37108e-19)
(7.32413 -1.99632 -1.22551e-19)
(7.39563 -1.98786 1.19173e-19)
(7.44708 -1.97275 -1.52585e-19)
(7.47687 -1.95071 9.42842e-20)
(7.48565 -1.92172 1.19822e-19)
(7.47579 -1.88606 -1.16146e-19)
(7.4506 -1.84535 1.03471e-20)
(7.41107 -1.81083 -1.06982e-20)
(-15.4912 5.72731 -3.75049e-17)
(-36.475 12.8599 -5.48567e-17)
(-46.1624 16.2434 1.10855e-16)
(-49.3828 13.7482 -1.09759e-16)
(-49.9616 10.6414 5.50349e-17)
(-48.5991 6.36257 2.15971e-19)
(-45.6467 0.95008 -4.78375e-17)
(-41.3364 -5.58759 9.35404e-17)
(-35.966 -13.8936 -4.56136e-18)
(-29.314 -24.0268 -4.18518e-17)
(-20.2587 -35.5599 1.65691e-19)
(-6.20934 -48.9289 2.46182e-17)
(15.3399 -66.0323 -2.51408e-17)
(39.8779 -83.0074 7.4548e-18)
(51.2002 -87.5105 -7.6325e-18)
(37.2002 -76.4246 4.179e-18)
(9.6878 -61.871 -4.27559e-18)
(-10.6231 -51.6271 3.5005e-20)
(-19.1747 -44.4057 0)
(-22.2707 -38.8738 -8.95277e-18)
(-23.495 -34.3809 9.02802e-18)
(-23.4522 -30.2335 1.45287e-19)
(-22.38 -26.3352 4.70556e-18)
(-20.4795 -22.7963 -4.85534e-18)
(-17.9554 -19.689 8.9318e-20)
(-15.0594 -17.0474 0)
(-12.0546 -14.8412 2.65643e-21)
(-9.17413 -12.9848 8.96001e-20)
(-6.55761 -11.3998 3.69034e-18)
(-4.26379 -10.0189 -3.76135e-18)
(-2.30631 -8.77955 -4.87956e-18)
(-0.669243 -7.62912 5.00319e-18)
(0.681979 -6.52817 1.88347e-20)
(1.79055 -5.45949 5.26145e-18)
(2.69324 -4.4101 -1.01883e-17)
(3.41404 -3.38097 5.02837e-18)
(3.97554 -2.38003 4.35161e-18)
(4.39912 -1.42314 -4.46417e-18)
(4.70708 -0.532021 3.86065e-21)
(4.92637 0.27339 6.51918e-20)
(5.08773 0.977239 -6.17758e-20)
(5.21954 1.56059 2.49209e-18)
(5.34595 2.00137 -4.17324e-19)
(5.48743 2.28277 -2.12403e-18)
(5.65787 2.39813 1.55718e-18)
(5.86115 2.35293 -1.48611e-18)
(6.09265 2.16458 0)
(6.33803 1.86339 -8.60416e-19)
(6.57537 1.48961 8.63956e-19)
(6.77998 1.08702 -5.23122e-19)
(6.92954 0.695087 1.28177e-19)
(7.00995 0.34212 8.34688e-20)
(7.01963 0.0417831 7.2005e-20)
(6.96978 -0.205866 6.32753e-20)
(6.87999 -0.41004 2.2512e-19)
(6.77187 -0.583857 -2.5187e-20)
(6.66391 -0.739948 0)
(6.56933 -0.887827 4.33386e-20)
(6.49641 -1.03286 -1.59677e-20)
(6.44989 -1.17637 0)
(6.43219 -1.3164 -9.40041e-20)
(6.44396 -1.44888 4.74981e-20)
(6.48421 -1.56903 0)
(6.55052 -1.67264 -2.86929e-20)
(6.63928 -1.75696 0)
(6.746 -1.82115 -3.18988e-19)
(6.86559 -1.8662 6.57775e-19)
(6.99251 -1.89448 -3.37393e-19)
(7.1209 -1.90905 2.69311e-20)
(7.24484 -1.91302 2.81287e-20)
(7.35873 -1.909 -3.5922e-19)
(7.45773 -1.89885 3.20821e-19)
(7.53818 -1.88358 -5.84061e-20)
(7.59785 -1.86355 -5.60585e-20)
(7.63593 -1.83871 8.12981e-20)
(7.65292 -1.80894 2.68635e-20)
(7.65045 -1.77419 3.3652e-19)
(7.63109 -1.73467 -7.43631e-21)
(7.59777 -1.69186 -3.05946e-19)
(7.55137 -1.65617 -8.01322e-20)
(-8.73396 4.27928 0)
(-13.6845 11.0743 -7.51334e-21)
(-11.3919 7.73507 -3.60482e-19)
(1.97566 5.39237 -4.91561e-17)
(19.5177 -1.05087 9.46037e-17)
(36.1413 -5.00702 -8.39421e-17)
(42.8781 -3.97215 3.92293e-17)
(35.6747 2.80353 0)
(19.0567 13.0866 -1.65042e-19)
(2.90355 22.6946 -1.55348e-17)
(-4.88548 28.1206 1.57223e-17)
(-2.70417 28.0649 7.9916e-18)
(5.61288 23.27 -1.38199e-17)
(13.7172 15.9903 1.54867e-18)
(16.4481 9.20048 8.92789e-19)
(13.6334 4.5886 3.26081e-18)
(9.59475 1.7011 3.70491e-20)
(7.65487 -0.374312 -2.73723e-18)
(7.70049 -2.1599 2.75678e-18)
(8.53149 -3.77384 9.36335e-20)
(9.57195 -5.1029 3.02351e-20)
(10.6365 -6.04393 -8.43343e-20)
(11.6376 -6.5738 -1.38763e-18)
(12.542 -6.72167 6.00534e-19)
(13.3443 -6.55128 8.50507e-19)
(14.0513 -6.14233 5.90791e-20)
(14.6724 -5.56855 3.07596e-20)
(15.2128 -4.88687 -4.33792e-19)
(15.6751 -4.12893 8.48832e-19)
(16.0564 -3.31955 -5.60887e-19)
(16.3526 -2.47783 0)
(16.5588 -1.60175 1.56886e-18)
(16.6666 -0.70043 -2.97482e-18)
(16.6606 0.200549 1.45604e-18)
(16.5338 1.09318 -1.54091e-18)
(16.2799 1.96899 1.36096e-18)
(15.8915 2.80989 9.07461e-20)
(15.3632 3.59552 0)
(14.6954 4.30372 1.33869e-19)
(13.8949 4.91103 5.71216e-19)
(12.9776 5.39572 -5.86505e-19)
(11.9682 5.73934 -3.53196e-20)
(10.899 5.92845 2.85852e-20)
(9.81335 5.95505 0)
(8.76592 5.81751 0)
(7.81481 5.52155 -1.23124e-19)
(7.02217 5.07992 7.95239e-20)
(6.43679 4.51345 3.1488e-20)
(6.07435 3.85443 9.73091e-20)
(5.9104 3.14676 -1.72012e-19)
(5.88837 2.44151 8.89648e-20)
(5.9414 1.7852 0)
(6.01362 1.20959 2.46901e-20)
(6.07132 0.728019 -1.49495e-20)
(6.10205 0.337525 0)
(6.10793 0.0243059 1.37534e-19)
(6.09919 -0.230254 -1.36614e-19)
(6.0898 -0.444594 2.10452e-19)
(6.09431 -0.63359 -1.62366e-19)
(6.12506 -0.806812 0)
(6.18983 -0.968335 7.22149e-20)
(6.29049 -1.11783 2.41573e-20)
(6.42315 -1.25246 -3.26578e-19)
(6.57974 -1.36881 1.18405e-20)
(6.75021 -1.46451 3.30748e-19)
(6.92454 -1.53898 0)
(7.09412 -1.59349 3.1943e-20)
(7.25237 -1.63069 0)
(7.3947 -1.65388 0)
(7.51823 -1.66628 -6.55724e-19)
(7.62143 -1.67053 6.39297e-19)
(7.70366 -1.66843 5.16244e-19)
(7.76493 -1.66091 4.84958e-20)
(7.80565 -1.64823 -5.12571e-19)
(7.82658 -1.63029 -5.81031e-19)
(7.82881 -1.60694 5.12158e-19)
(7.81389 -1.57816 -4.79592e-20)
(7.7839 -1.54427 -4.37442e-19)
(7.74116 -1.5069 9.36434e-19)
(7.68633 -1.47559 -3.20571e-19)
(-12.1059 5.30114 5.26977e-17)
(-45.8709 23.9742 -3.92286e-17)
(-73.1856 35.5077 -3.53306e-17)
(-65.0442 37.8257 3.62514e-17)
(-38.373 29.9135 3.16998e-19)
(-14.357 22.3433 2.84785e-19)
(-0.0266626 17.7169 0)
(6.36219 16.2845 2.24925e-17)
(8.60411 17.2639 -2.28222e-17)
(9.6628 19.6696 0)
(10.8251 22.6556 -1.1202e-17)
(11.9378 25.6405 1.94723e-17)
(12.2178 28.2713 -2.44875e-18)
(10.8986 30.1886 -9.70516e-18)
(7.61317 30.9056 4.09537e-18)
(2.84623 30.2215 4.34829e-20)
(-1.78892 28.6062 -5.58209e-20)
(-4.47053 26.8607 0)
(-4.74297 25.3675 1.12417e-18)
(-3.2814 23.9035 -1.11077e-18)
(-0.88626 22.0782 1.39967e-20)
(1.87937 19.8906 1.84092e-18)
(4.67562 17.587 -1.86668e-18)
(7.30011 15.3814 2.64558e-18)
(9.65472 13.3984 -2.6846e-18)
(11.7136 11.6938 -5.73947e-20)
(13.488 10.2822 3.90678e-18)
(14.9972 9.15338 2.44167e-19)
(16.2527 8.28236 -8.38652e-18)
(17.254 7.63619 -1.85697e-19)
(17.9913 7.18174 4.3754e-18)
(18.4429 6.88658 4.44741e-18)
(18.5837 6.7187 -4.64722e-18)
(18.3829 6.64931 0)
(17.8079 6.65113 9.85487e-20)
(16.8416 6.69931 8.91699e-20)
(15.4903 6.77255 0)
(13.7872 6.84681 5.09946e-18)
(11.8131 6.91405 -5.19002e-18)
(9.67108 6.94764 -5.11283e-20)
(7.48545 6.93201 0)
(5.38988 6.84447 3.53649e-20)
(3.51901 6.66437 1.88558e-18)
(1.98707 6.37477 -1.83561e-18)
(0.878349 5.98196 0)
(0.226608 5.50105 -7.30492e-19)
(0.0186227 4.95036 8.14183e-19)
(0.200112 4.35351 0)
(0.684075 3.73456 0)
(1.36609 3.11127 -7.29076e-21)
(2.14134 2.51393 -7.00842e-21)
(2.91716 1.96728 0)
(3.62397 1.48758 3.18681e-19)
(4.21896 1.08156 -3.25461e-19)
(4.68558 0.74714 -3.93721e-19)
(5.03024 0.474442 7.64915e-22)
(5.27691 0.248554 8.82114e-19)
(5.45988 0.053333 -9.41582e-19)
(5.61538 -0.124993 -7.64916e-20)
(5.7737 -0.295332 4.17782e-19)
(5.95386 -0.460918 -5.10623e-20)
(6.16195 -0.62018 0)
(6.39304 -0.768748 0)
(6.63544 -0.901725 5.65555e-19)
(6.87531 -1.01549 -6.40691e-19)
(7.10038 -1.10859 0)
(7.30198 -1.18181 8.19018e-20)
(7.47552 -1.23757 0)
(7.61984 -1.27908 5.08543e-19)
(7.73615 -1.30955 -4.96259e-19)
(7.82686 -1.33162 1.38675e-19)
(7.89463 -1.34704 9.84257e-19)
(7.94173 -1.35662 -8.65756e-19)
(7.96985 -1.36049 1.16994e-19)
(7.98011 -1.35839 0)
(7.97345 -1.34998 0)
(7.95093 -1.33513 0)
(7.91407 -1.31409 -6.97799e-19)
(7.86463 -1.28851 -3.78307e-20)
(7.80313 -1.26669 1.08529e-18)
(4.64476 -3.4631 -5.81012e-17)
(9.79816 -11.0913 -8.36862e-17)
(14.7761 -13.8238 8.55361e-17)
(14.5651 -20.1885 -7.90593e-17)
(11.2998 -23.1576 8.09515e-17)
(5.62971 -27.0809 1.64632e-19)
(-0.400683 -32.0185 1.64438e-19)
(-5.61976 -37.4726 0)
(-9.45273 -42.9006 -1.6011e-19)
(-11.5549 -47.5776 0)
(-12.0499 -50.7464 1.72363e-19)
(-11.968 -51.4095 4.18086e-17)
(-14.1089 -48.0956 -4.25121e-17)
(-24.0243 -39.0689 -2.52809e-17)
(-45.5124 -24.8187 2.57388e-17)
(-65.1225 -11.5257 -8.1735e-18)
(-59.3417 -6.75393 8.25902e-18)
(-34.8097 -9.08551 0)
(-17.2269 -11.6448 0)
(-11.7774 -11.8058 0)
(-10.8223 -10.7969 -4.45255e-18)
(-9.78947 -10.0863 9.84295e-18)
(-7.7919 -10.1588 5.02092e-19)
(-5.09992 -10.8499 -1.26149e-17)
(-2.14541 -11.8571 6.95034e-18)
(0.713145 -12.9283 0)
(3.23094 -13.8902 2.96879e-19)
(5.27163 -14.644 0)
(6.78939 -15.1509 -6.99312e-18)
(7.80153 -15.4124 6.84855e-18)
(8.35453 -15.4433 -2.17682e-20)
(8.49441 -15.2507 0)
(8.25546 -14.8307 5.45687e-18)
(7.67259 -14.1849 -1.0297e-17)
(6.80115 -13.3408 4.96735e-18)
(5.72255 -12.3569 -3.94066e-18)
(4.53506 -11.306 7.48645e-18)
(3.33736 -10.2539 -3.54059e-18)
(2.21587 -9.22621 0)
(1.22219 -8.24227 0)
(0.391293 -7.30614 0)
(-0.246412 -6.41857 1.7451e-18)
(-0.663789 -5.57017 -4.73877e-18)
(-0.845903 -4.76372 2.91008e-18)
(-0.792306 -4.01715 0)
(-0.51386 -3.34616 -1.6325e-18)
(-0.0379821 -2.76466 1.58677e-18)
(0.594841 -2.27709 1.10216e-18)
(1.33251 -1.87487 -1.92646e-19)
(2.1157 -1.55105 -8.3356e-20)
(2.88441 -1.29169 -4.19943e-20)
(3.58533 -1.08292 -8.18398e-19)
(4.17905 -0.912014 0)
(4.64487 -0.769267 0)
(4.98273 -0.649818 -7.68782e-19)
(5.21169 -0.553601 8.50961e-19)
(5.3652 -0.483465 0)
(5.48338 -0.442887 0)
(5.60422 -0.433706 6.70553e-20)
(5.75578 -0.454526 8.72911e-20)
(5.95153 -0.50035 0)
(6.18991 -0.563475 0)
(6.45776 -0.635157 -1.26983e-19)
(6.73596 -0.707379 -1.23631e-19)
(7.00525 -0.774138 9.02529e-19)
(7.25042 -0.831983 -1.58995e-18)
(7.46218 -0.879877 -6.99134e-20)
(7.63708 -0.91859 1.47455e-18)
(7.77618 -0.949913 -1.51094e-18)
(7.88323 -0.975897 1.34295e-18)
(7.96301 -0.998254 -2.47343e-19)
(8.02005 -1.01799 -6.11471e-19)
(8.05784 -1.03528 1.11423e-18)
(8.07858 -1.0496 -6.89723e-21)
(8.08338 -1.05998 -1.99102e-18)
(8.07276 -1.06541 1.07713e-18)
(8.04722 -1.06505 0)
(8.00764 -1.05862 2.00046e-19)
(7.95525 -1.04723 0)
(7.89037 -1.03742 -6.76632e-19)
(-13.6239 6.03536 0)
(-30.0522 12.425 1.02302e-19)
(-37.5787 16.116 -1.02059e-19)
(-41.8252 18.4028 -3.56234e-17)
(-46.3256 20.2974 6.89403e-17)
(-48.989 21.1768 -3.37934e-17)
(-47.5328 19.8932 -1.63405e-19)
(-39.6714 15.4849 0)
(-23.6911 7.51176 0)
(1.28774 -3.96421 0)
(35.3387 -18.4507 -1.72445e-19)
(76.6486 -34.6549 -2.29927e-19)
(117.614 -49.8548 0)
(142.309 -59.5049 4.38484e-20)
(136.688 -58.7286 2.10956e-19)
(108.147 -47.2094 1.6082e-17)
(81.4247 -31.8418 -1.63133e-17)
(65.8743 -19.3114 -1.90942e-19)
(53.6285 -11.1155 0)
(41.2332 -5.8305 1.38567e-19)
(30.9359 -1.59631 -1.89562e-19)
(24.1776 1.9094 1.78415e-17)
(20.4631 4.33452 -1.55935e-18)
(18.9352 5.71786 -1.65777e-17)
(18.8887 6.31332 -3.31083e-19)
(19.7449 6.34208 4.52612e-21)
(21.0295 5.97616 -1.1219e-17)
(22.3646 5.34801 1.11293e-17)
(23.4636 4.5363 -6.65868e-20)
(24.1575 3.57445 2.20198e-19)
(24.4233 2.48443 1.92911e-19)
(24.3317 1.31951 -3.95878e-18)
(23.9213 0.21149 3.99755e-18)