/*--------------------------------*- C++ -*----------------------------------*\
| =========                 |                                                 |
| \\      /  F ield         | OpenFOAM: The Open Source CFD Toolbox           |
|  \\    /   O peration     | Version:  2012                                  |
|   \\  /    A nd           | Website:  www.openfoam.com                      |
|    \\/     M anipulation  |                                                 |
\*---------------------------------------------------------------------------*/
FoamFile
{
    version     2.0;
    format      ascii;
    class       surfaceScalarField;
    location    "0.6";
    object      phi;
}
// * * * * * * * * * * * * * * * * * * * * * * * * * * * * * * * * * * * * * //

dimensions      [0 3 -1 0 0 0 0];
oriented        oriented;


internalField   nonuniform List<scalar> 
84340
(
0.000181505
-0.000213544
3.20386e-05
0.000367215
-0.000529229
0.000343519
0.000492153
-0.000710565
0.000585628
0.000730297
-0.000733255
0.000495111
0.00120534
-0.000641502
0.000166456
0.00194575
-0.000524382
-0.000216027
0.0029656
-0.000471851
-0.000547996
0.00426029
-0.000498466
-0.000796224
0.00581118
-0.000591286
-0.000959605
0.00756153
-0.000709077
-0.00104128
0.00941873
-0.000822049
-0.00103514
0.0112386
-0.00091251
-0.000907328
0.0128258
-0.00096793
-0.000619269
0.0139222
-0.000972246
-0.000124161
0.014285
-0.000927707
0.000564921
0.0138802
-0.000834412
0.00123921
0.0130484
-0.00069451
0.00152626
0.0122775
-0.000535896
0.00130678
0.0117762
-0.000401865
0.000903222
0.0114446
-0.000303951
0.00063557
0.0111356
-0.000208102
0.000517104
0.0107486
-3.86903e-05
0.000425634
0.0102245
0.000277332
0.000246792
0.00954133
0.000713572
-3.04143e-05
0.00870981
0.00113911
-0.000307593
0.007753
0.00143499
-0.000478174
0.00670919
0.00156048
-0.000516673
0.00561524
0.0015562
-0.000462253
0.00449204
0.00148411
-0.000360906
0.00335704
0.00137147
-0.000236474
0.00224214
0.00122049
-0.000105591
0.00119452
0.00103359
1.40302e-05
0.000263618
0.000821631
0.000109275
-0.000514735
0.000599051
0.000179303
-0.0011193
0.000375111
0.00022945
-0.00154321
0.000158355
0.000265558
-0.0017954
-3.90574e-05
0.000291246
-0.00189822
-0.000206379
0.000309199
-0.00188196
-0.000338567
0.000322311
-0.00178003
-0.000436359
0.000334427
-0.00162334
-0.00050536
0.00034867
-0.001437
-0.000552287
0.000365947
-0.00123929
-0.000582616
0.000384907
-0.00104227
-0.000599921
0.000402903
-0.000853373
-0.000606067
0.000417167
-0.000677105
-0.000601812
0.000425543
-0.000516388
-0.000587438
0.000426722
-0.000373275
-0.000563277
0.000420164
-0.000249145
-0.000530058
0.000405928
-0.000144514
-0.000489083
0.000384452
-5.86741e-05
-0.000442199
0.000356358
1.05781e-05
-0.000391547
0.000322294
6.69224e-05
-0.000339163
0.000282818
0.000115105
-0.000286546
0.000238363
0.000160208
-0.000234396
0.000189293
0.000206844
-0.000182635
0.000135999
0.000257674
-0.000130707
7.98763e-05
0.000316169
-7.77391e-05
1.92441e-05
0.000382283
-2.37617e-05
-4.23525e-05
0.000455747
3.10046e-05
-0.000104468
0.000535081
8.63267e-05
-0.00016566
0.000618625
0.000140908
-0.000224452
0.00070465
0.000193424
-0.000279449
0.000791616
0.000242473
-0.000329439
0.000878337
0.000286723
-0.000373444
0.000964037
0.000325017
-0.000410717
0.00104832
0.000356418
-0.000440696
0.00113106
0.00038021
-0.00046295
0.0012123
0.000395875
-0.00047712
0.00129215
0.00040305
-0.0004829
0.00137071
0.000401498
-0.000480056
0.00144808
0.000391077
-0.000468445
0.0015244
0.000371706
-0.000448033
0.00159994
0.000343304
-0.000418842
0.00167509
0.000305671
-0.000380819
0.0017504
0.000258335
-0.000333643
0.00182661
0.00020031
-0.000276522
0.0019043
0.000130466
-0.000208153
0.00198238
4.77388e-05
-0.000125819
-4.78335e-05
-3.29537e-05
0.00206317
-5.94243e-05
-0.00015412
-0.000381333
-0.000207321
-0.000918284
-0.000173614
-0.00143878
-0.000212761
-0.00171335
-0.000366927
-0.0016055
-0.000632235
-0.00106288
-0.00101447
-0.000123501
-0.00143784
0.00109568
-0.00181046
0.00247397
-0.00208737
0.00392349
-0.00227157
0.00538107
-0.00237009
0.00678489
-0.00237175
0.00807127
-0.00225863
0.00913868
-0.00199512
0.00991219
-0.00160792
0.0103721
-0.00115442
0.0105182
-0.000682006
0.0103436
-0.000227266
0.00985281
0.000186846
0.00909369
0.000551018
0.00818827
0.000866726
0.00732727
0.00113834
0.00666843
0.00137241
0.0062592
0.00154835
0.0060533
0.00164088
0.00596504
0.00164875
0.00591551
0.00160574
0.00584102
0.0015586
0.00568892
0.00152357
0.00543529
0.00147412
0.00508421
0.00138466
0.00467243
0.00123341
0.00423554
0.00103594
0.00379354
0.000817108
0.00335664
0.000595262
0.00292835
0.000389233
0.00251301
0.000208961
0.00212275
5.16846e-05
0.00176185
-7.54529e-05
0.0014418
-0.000185311
0.00117476
-0.00028525
0.000964866
-0.00037272
0.000811457
-0.000446511
0.000710488
-0.000505098
0.000655434
-0.000546759
0.000637943
-0.000569947
0.000648342
-0.000573676
0.000676201
-0.000557917
0.000711094
-0.000523976
0.000743653
-0.000474758
0.000766829
-0.000414723
0.000777057
-0.000349391
0.000774885
-0.000284375
0.000764667
-0.000224178
0.000753252
-0.00017122
0.000748069
-0.000125523
0.000755588
-8.52584e-05
0.00077946
-4.76339e-05
0.00082045
-9.98622e-06
0.000877622
2.9155e-05
0.000948368
7.01627e-05
0.00102929
0.000112506
0.00111684
0.000154915
0.00120786
0.000195703
0.00129981
0.000233066
0.00139094
0.000265295
0.00148022
0.000290923
0.0015673
0.000308799
0.00165224
0.000318111
0.00173537
0.000318364
0.00181712
0.000309322
0.00189789
0.000290941
0.00197792
0.00026327
0.00205725
0.000226342
0.0021355
0.000180086
0.0022117
0.000124107
0.00228423
5.79387e-05
0.00235177
-1.97986e-05
-0.000109647
0.00241358
-0.000244629
9.05095e-05
-0.000411998
-3.99521e-05
-0.000207033
-0.000378579
0.000366717
-0.000786511
0.00118379
-0.001184
0.00206485
-0.00151329
0.00273347
-0.00168309
0.00293758
-0.00164196
0.00259454
-0.00146742
0.00182941
-0.00132224
0.000853986
-0.00129615
-0.00017447
-0.00134164
-0.00118216
-0.00136406
-0.00215253
-0.00128826
-0.00305379
-0.00109386
-0.0038634
-0.000798302
-0.00459563
-0.000422188
-0.00525422
-2.34191e-05
-0.00583757
0.000356087
-0.00634225
0.000691521
-0.00676237
0.000971138
-0.00708641
0.00119077
-0.00729636
0.00134828
-0.00736235
0.0014384
-0.00726486
0.00145085
-0.00700106
0.00137708
-0.00657898
0.00122667
-0.00601224
0.00103899
-0.00532113
0.000867493
-0.00454109
0.00074352
-0.00372765
0.000660679
-0.00293764
0.000594653
-0.00223017
0.000525948
-0.00164108
0.000446851
-0.00118087
0.0003569
-0.000844597
0.000258986
-0.000612833
0.000157469
-0.000446462
4.25898e-05
-0.000323294
-7.14832e-05
-0.000216966
-0.000181782
-0.000114582
-0.000287694
-1.30976e-05
-0.000386735
9.0159e-05
-0.000475977
0.000196293
-0.000552645
0.000305465
-0.000614271
0.000417415
-0.000658708
0.000531474
-0.000684006
0.000646175
-0.000688378
0.000758724
-0.000670467
0.000864708
-0.00062996
0.000958275
-0.000568325
0.00103299
-0.000489437
0.00108332
-0.000399719
0.0011064
-0.000307461
0.00110351
-0.00022129
0.00108051
-0.000148212
0.00104737
-9.23865e-05
0.001014
-5.18923e-05
0.000990567
-2.41985e-05
0.000985118
-4.5375e-06
0.0010014
1.28728e-05
0.00103989
3.16704e-05
0.00109881
5.35851e-05
0.00117479
7.89354e-05
0.00126381
0.000106683
0.00136186
0.000135021
0.00146533
0.000161822
0.00157129
0.000184968
0.00167752
0.000202568
0.00178253
0.000213098
0.00188544
0.000215456
0.0019858
0.000208965
0.00208344
0.000193298
0.00217833
0.000168381
0.00227041
0.000134264
0.00235948
9.10186e-05
0.00244498
3.86016e-05
0.0025249
-2.1982e-05
0.00260136
-9.62596e-05
-0.000175168
0.00266688
6.51369e-05
2.53727e-05
0.000146185
-0.000121001
0.000189829
-0.000422223
0.000152155
-0.000748837
-3.44635e-05
-0.000997385
-0.000437377
-0.00111038
-0.0010944
-0.00102606
-0.00198444
-0.000751916
-0.00304424
-0.000407625
-0.00421443
-0.000152053
-0.00545693
-5.36412e-05
-0.00673582
-6.27486e-05
-0.0080012
-9.86789e-05
-0.00917982
-0.000109642
-0.0101826
-9.10301e-05
-0.0109453
-3.56006e-05
-0.0114089
4.13697e-05
-0.0115609
0.000128586
-0.0114202
0.000215337
-0.0110203
0.000291626
-0.0104034
0.000354292
-0.00961523
0.000402578
-0.00870098
0.000434035
-0.00770784
0.000445263
-0.0066899
0.000432912
-0.00570853
0.000395712
-0.00481835
0.000336494
-0.00404206
0.000262703
-0.00335976
0.000185194
-0.00273049
0.000114243
-0.00212503
5.52262e-05
-0.0015381
7.71392e-06
-0.000978508
-3.36396e-05
-0.000460426
-7.12311e-05
6.62145e-06
-0.000110147
0.00042051
-0.000154902
0.000782945
-0.000204967
0.00108972
-0.000264184
0.00133992
-0.000321689
0.00153683
-0.000378689
0.00168232
-0.000433179
0.00177843
-0.00048285
0.00182815
-0.000525694
0.00183589
-0.000560385
0.00180797
-0.000586349
0.0017525
-0.000603241
0.00167865
-0.000610159
0.00159546
-0.000605183
0.0015107
-0.000585705
0.00143005
-0.000549312
0.00135659
-0.00049487
0.00129075
-0.000423597
0.0012308
-0.000339762
0.00117386
-0.000250528
0.00111723
-0.00016466
0.00105937
-9.03473e-05
0.00100078
-3.38026e-05
0.000945884
3.00765e-06
0.000899532
2.2153e-05
0.000866631
2.83631e-05
0.000851906
2.75979e-05
0.00085834
2.52359e-05
0.000886893
2.50328e-05
0.000936939
2.88898e-05
0.00100661
3.70163e-05
0.00109322
4.84046e-05
0.00119372
6.13258e-05
0.00130497
7.37118e-05
0.00142403
8.35118e-05
0.00154825
8.88755e-05
0.00167538
8.83251e-05
0.00180348
8.08626e-05
0.00193096
6.58239e-05
0.00205651
4.28308e-05
0.00217898
1.17931e-05
0.00229681
-2.68155e-05
0.00241042
-7.50111e-05
0.0025193
-0.000130859
0.00262054
-0.000197499
-0.000264272
0.00270964
0.000258953
-0.00023358
0.000501286
-0.000363333
0.000423635
-0.000344572
1.46655e-06
-0.000326669
-0.000655894
-0.000340024
-0.00138088
-0.000385391
-0.00194981
-0.000457132
-0.00216434
-0.000537383
-0.00197466
-0.000597311
-0.00151139
-0.000615326
-0.000970644
-0.000594384
-0.000481021
-0.000552371
-7.92457e-05
-0.000500454
0.000252235
-0.000441123
0.000533668
-0.000372464
0.000800418
-0.000302351
0.00107214
-0.000230356
0.00135508
-0.000154347
0.0016429
-7.24909e-05
0.00191829
1.62448e-05
0.00216113
0.000111449
0.00235366
0.000210051
0.00248171
0.000305984
0.00253599
0.000390979
0.00251366
0.000455239
0.00242027
0.00048911
0.00227185
0.00048491
0.00209477
0.000439778
0.00192133
0.000358633
0.00178163
0.000253944
0.00170291
0.000133952
0.00169256
1.80602e-05
0.00174346
-8.45346e-05
0.00184309
-0.000170862
0.00197507
-0.000242126
0.00212651
-0.00030635
0.00228001
-0.000358465
0.00241834
-0.000402515
0.00253634
-0.000439685
0.00262732
-0.000469674
0.00268468
-0.000490541
0.00270134
-0.000499506
0.0026702
-0.000494555
0.00258612
-0.000476301
0.00244845
-0.000448683
0.00226253
-0.000417321
0.00203894
-0.000386574
0.00179138
-0.000357615
0.00153447
-0.000328795
0.00128236
-0.000297208
0.00104754
-0.000260049
0.000840129
-0.000216185
0.000667183
-0.000166816
0.000532254
-0.000115599
0.000437048
-6.94545e-05
0.000369818
-2.31173e-05
0.000326566
9.44858e-06
0.000301248
2.83259e-05
0.000288747
3.46543e-05
0.000286258
3.08519e-05
0.000293489
2.0367e-05
0.00031169
7.0349e-06
0.000343047
-6.32483e-06
0.000389622
-1.76854e-05
0.000452749
-2.61105e-05
0.000533007
-3.18539e-05
0.000630013
-3.56795e-05
0.000742766
-3.90418e-05
0.000869388
-4.31113e-05
0.00100803
-4.97662e-05
0.00115676
-6.04033e-05
0.00131284
-7.52187e-05
0.00147365
-9.49862e-05
0.00163677
-0.000120296
0.00180003
-0.000151458
0.00196188
-0.000188672
0.00211923
-0.000232355
0.00227077
-0.000282402
0.00241477
-0.000341502
-0.000397521
0.00254802
-0.000260247
2.6666e-05
-0.000545432
-7.81472e-05
-0.000774584
-0.000115421
-0.000996829
-0.000104423
-0.00120061
-0.000136246
-0.0013897
-0.000196297
-0.0015834
-0.000263437
-0.0018009
-0.000319878
-0.00203855
-0.000359658
-0.00226915
-0.000384729
-0.0024655
-0.000398035
-0.00261573
-0.000402144
-0.0027163
-0.000399881
-0.00276301
-0.00039441
-0.00274823
-0.000387245
-0.00267249
-0.000378091
-0.00253704
-0.000365804
-0.0023422
-0.000349186
-0.00209721
-0.000317487
-0.00180665
-0.000274318
-0.00147214
-0.000223052
-0.00109638
-0.000165713
-0.000686514
-0.000103883
-0.000255813
-3.97222e-05
0.000177256
2.21706e-05
0.000591046
7.53199e-05
0.000963997
0.000111959
0.00127847
0.000125304
0.00152395
0.000113157
0.0016908
8.7095e-05
0.00178059
4.41624e-05
0.00180339
-4.74551e-06
0.00177071
-5.18506e-05
0.00169429
-9.44484e-05
0.00158372
-0.000131548
0.00143718
-0.000159815
0.00126438
-0.000185663
0.00107222
-0.000210359
0.000860727
-0.000228189
0.000641066
-0.000250013
0.000421174
-0.000270649
0.000208171
-0.000286503
7.9516e-06
-0.000294336
-0.000175647
-0.000292702
-0.000341145
-0.000283185
-0.000488846
-0.000269619
-0.000619883
-0.000255537
-0.000735426
-0.000242072
-0.000836204
-0.000228017
-0.000921585
-0.000211826
-0.00098924
-0.000192393
-0.00103592
-0.00016951
-0.00105879
-0.00014394
-0.00105708
-0.000117308
-0.00103484
-9.16979e-05
-0.000989059
-6.88972e-05
-0.00092824
-5.13712e-05
-0.000856695
-4.32186e-05
-0.000780122
-4.19186e-05
-0.000702401
-4.68699e-05
-0.000623325
-5.87089e-05
-0.000543458
-7.28317e-05
-0.000461228
-8.85551e-05
-0.000373732
-0.000105182
-0.000277701
-0.000122141
-0.000170281
-0.000139274
-4.92194e-05
-0.00015674
8.66655e-05
-0.000174926
0.000237849
-0.000194295
0.000403406
-0.000215323
0.000581404
-0.000238402
0.000769944
-0.000263758
0.00096653
-0.000291572
0.00116823
-0.000321993
0.00137194
-0.000355172
0.00157458
-0.000391311
0.00177296
-0.000430731
0.00196432
-0.000473763
0.00214506
-0.000522241
-0.000568017
0.00231555
0.000271792
-0.000245126
0.000611341
-0.000417697
0.000786836
-0.000290915
0.000778961
-9.65489e-05
0.000613428
2.92874e-05
0.000329188
8.79425e-05
-2.07729e-05
8.65241e-05
-0.000378718
3.80669e-05
-0.000700089
-3.82873e-05
-0.000965729
-0.000119089
-0.00118116
-0.000182601
-0.00135697
-0.000226339
-0.00150081
-0.000256041
-0.00161024
-0.000284979
-0.00167295
-0.000324539
-0.00167545
-0.00037559
-0.00161377
-0.000427476
-0.00149974
-0.000463216
-0.00134887
-0.000468361
-0.00118353
-0.000439663
-0.0010206
-0.000385982
-0.000865597
-0.000320712
-0.000715028
-0.000254452
-0.000562594
-0.000192156
-0.000404912
-0.000135511
-0.000244261
-8.53314e-05
-8.87962e-05
-4.35062e-05
4.86712e-05
-1.21633e-05
0.000154389
7.43886e-06
0.000225838
1.56462e-05
0.000255765
1.42359e-05
0.000245063
5.95605e-06
0.000199578
-6.36559e-06
0.000125706
-2.05772e-05
2.9437e-05
-3.52786e-05
-8.07069e-05
-4.96712e-05
-0.000202692
-6.36777e-05
-0.000335466
-7.75856e-05
-0.000471666
-9.19892e-05
-0.000613801
-0.000107877
-0.000758671
-0.000125779
-0.000899907
-0.000145267
-0.00102966
-0.000164578
-0.00114136
-0.000181005
-0.00123247
-0.000192079
-0.00130544
-0.000196647
-0.00136599
-0.000194984
-0.00141984
-0.000188223
-0.00147005
-0.000177811
-0.00151663
-0.000165242
-0.00155717
-0.00015186
-0.00158792
-0.000138751
-0.00160509
-0.000126778
-0.00160572
-0.00011667
-0.00158833
-0.000109095
-0.00155252
-0.000104706
-0.00149977
-0.000104121
-0.00143512
-0.000107864
-0.00136102
-0.000116024
-0.0012794
-0.00012849
-0.00119307
-0.000145036
-0.00110082
-0.00016508
-0.0010012
-0.000188179
-0.000892438
-0.000213942
-0.000772542
-0.000242037
-0.000639642
-0.000272174
-0.000492304
-0.000304079
-0.000329764
-0.000337466
-0.000152048
-0.000372011
3.99716e-05
-0.000407343
0.000244603
-0.000443033
0.000459477
-0.000478632
0.000681613
-0.000513708
0.000907534
-0.000547913
0.00113342
-0.000581055
0.00135526
-0.000613154
0.00156902
-0.00064449
0.00177084
-0.000675585
0.0019562
-0.0007076
-0.000738181
0.00212636
-0.000124519
-0.000120607
-0.000421749
-0.000120467
-0.000655948
-5.67156e-05
-0.000726377
-2.61201e-05
-0.000679849
-1.72408e-05
-0.000552515
-3.93911e-05
-0.000354354
-0.000111637
-6.82451e-05
-0.000248042
0.000319858
-0.00042639
0.000787101
-0.000586331
0.00127066
-0.000666158
0.00168246
-0.00063814
0.00195781
-0.000531389
0.00208139
-0.000408561
0.00207909
-0.000322237
0.00199251
-0.000289015
0.0018588
-0.00029376
0.00170271
-0.000307132
0.00153807
-0.000303718
0.00137047
-0.000272068
0.00119949
-0.000214995
0.0010226
-0.00014382
0.000838587
-7.04434e-05
0.000649717
-3.28545e-06
0.000461342
5.28642e-05
0.000280096
9.59144e-05
0.000111356
0.000125234
-4.27121e-05
0.000141905
-0.000182916
0.000147643
-0.000311757
0.000144487
-0.000431947
0.000134425
-0.0005455
0.00011951
-0.000652537
0.000100671
-0.000752534
7.94202e-05
-0.000844786
5.69727e-05
-0.000928751
3.42938e-05
-0.00100457
1.21417e-05
-0.00107323
-8.92949e-06
-0.00113662
-2.85931e-05
-0.00119784
-4.66576e-05
-0.00126058
-6.30399e-05
-0.00132813
-7.7714e-05
-0.001402
-9.07124e-05
-0.00148086
-0.000102147
-0.00156076
-0.000112176
-0.00163653
-0.000120877
-0.00170335
-0.000128166
-0.00175769
-0.000133877
-0.00179757
-0.000137939
-0.0018223
-0.00014051
-0.00183216
-0.000141995
-0.00182793
-0.000142984
-0.00181054
-0.000144171
-0.00178092
-0.000146288
-0.00173995
-0.000150065
-0.00168845
-0.000156201
-0.00162725
-0.000165323
-0.00155718
-0.000177932
-0.00147881
-0.000194397
-0.00139236
-0.000214946
-0.00129773
-0.000239667
-0.00119428
-0.000268522
-0.0010811
-0.000301359
-0.000957126
-0.00033792
-0.000821331
-0.000377832
-0.000672905
-0.0004206
-0.000511392
-0.000465593
-0.000336824
-0.000512034
-0.00014983
-0.000559005
4.82901e-05
-0.000605463
0.000255538
-0.000650282
0.000469228
-0.000692322
0.000686055
-0.000730535
0.000902216
-0.000764074
0.00111356
-0.000792403
0.0013158
-0.000815395
0.0015047
-0.000833387
0.00167631
-0.000847199
0.0018269
-0.000858189
-0.000867741
0.00195646
-0.000654529
0.000533922
-0.00167165
0.00089665
-0.00244256
0.000714202
-0.00289093
0.000422245
-0.00312894
0.000220773
-0.00322646
5.81307e-05
-0.00322534
-0.000112757
-0.00315104
-0.000322348
-0.00301173
-0.000565701
-0.00280075
-0.000797311
-0.00251942
-0.000947487
-0.00219925
-0.000958312
-0.00190773
-0.000822903
-0.00172524
-0.000591055
-0.00170365
-0.000343823
-0.00184141
-0.000151256
-0.00209146
-4.37182e-05
-0.00238912
-9.4677e-06
-0.00267951
-1.33264e-05
-0.00292146
-3.01149e-05
-0.00309286
-4.35943e-05
-0.00319009
-4.66002e-05
-0.00322026
-4.02706e-05
-0.00319379
-2.97531e-05
-0.00312122
-1.97071e-05
-0.00301302
-1.22878e-05
-0.00287922
-8.56171e-06
-0.00272885
-8.47119e-06
-0.00257049
-1.07177e-05
-0.00241187
-1.41287e-05
-0.00225947
-1.79709e-05
-0.00211796
-2.19986e-05
-0.00199111
-2.61814e-05
-0.0018807
-3.09915e-05
-0.00178726
-3.64661e-05
-0.00171037
-4.26002e-05
-0.00164883
-4.93969e-05
-0.00160092
-5.68418e-05
-0.00156462
-6.48906e-05
-0.00153782
-7.34563e-05
-0.00151847
-8.23962e-05
-0.00150467
-9.15083e-05
-0.00149484
-0.000100542
-0.00148775
-0.000109236
-0.00148256
-0.000117368
-0.00147864
-0.000124799
-0.00147531
-0.000131498
-0.00147163
-0.000137554
-0.00146639
-0.00014318
-0.0014582
-0.000148696
-0.0014457
-0.000154503
-0.00142762
-0.000161057
-0.00140295
-0.000168842
-0.00137089
-0.000178348
-0.00133089
-0.000190067
-0.00128261
-0.000204482
-0.00122588
-0.000222048
-0.00116064
-0.000243178
-0.00108682
-0.00026822
-0.00100432
-0.000297436
-0.000913014
-0.000330978
-0.000812661
-0.000368874
-0.000703015
-0.000411006
-0.000583844
-0.000457091
-0.000455014
-0.000506662
-0.000316564
-0.000559051
-0.000168797
-0.000613359
-1.23723e-05
-0.000668458
0.000151619
-0.000722996
0.000321584
-0.000775428
0.000495396
-0.000824093
0.000670412
-0.000867337
0.000843549
-0.000903673
0.00101144
-0.00093196
0.0011706
-0.000951564
0.00131768
-0.000962477
0.00144968
-0.000965386
0.00156418
-0.000961706
0.00165958
-0.000953583
-0.000944107
0.00173595
6.04145e-06
0.000527881
-0.000179044
0.00108174
-0.000556541
0.0010917
-0.000910262
0.000775966
-0.00109801
0.000408518
-0.00112859
8.87142e-05
-0.00106776
-0.000173584
-0.00100055
-0.000389557
-0.00099494
-0.000571314
-0.00106775
-0.000724499
-0.0011812
-0.000834043
-0.00126866
-0.000870848
-0.00129229
-0.000799269
-0.00127065
-0.000612695
-0.00125867
-0.000355802
-0.00130688
-0.000103046
-0.00143735
8.67427e-05
-0.00164019
0.000193379
-0.0018804
0.000226878
-0.00211892
0.000208403
-0.00231776
0.000155254
-0.00245913
9.47703e-05
-0.00254007
4.06627e-05
-0.00256693
-2.88889e-06
-0.00254948
-3.71553e-05
-0.00249799
-6.37791e-05
-0.00242283
-8.37271e-05
-0.00233355
-9.7746e-05
-0.00223678
-0.00010749
-0.00213727
-0.00011364
-0.00203824
-0.000116994
-0.00194188
-0.00011836
-0.00184961
-0.000118454
-0.00176267
-0.000117935
-0.00168177
-0.000117358
-0.00160718
-0.000117193
-0.00153876
-0.000117817
-0.0014761
-0.000119504
-0.00141858
-0.000122411
-0.00136546
-0.00012657
-0.00131596
-0.000131898
-0.00126927
-0.0001382
-0.00122461
-0.000145198
-0.00118127
-0.000152575
-0.00113862
-0.000160025
-0.0010961
-0.000167312
-0.00105328
-0.000174319
-0.00100976
-0.000181077
-0.000965173
-0.000187767
-0.000919168
-0.000194701
-0.000871383
-0.000202287
-0.000821451
-0.00021099
-0.00076899
-0.000221302
-0.000713616
-0.000233721
-0.000654951
-0.000248733
-0.000592638
-0.000266795
-0.000526353
-0.000288333
-0.000455817
-0.000313715
-0.0003808
-0.000343237
-0.000301133
-0.000377103
-0.000216711
-0.0004154
-0.000127509
-0.000458076
-3.35952e-05
-0.000504919
6.48419e-05
-0.000555528
0.000167472
-0.000609292
0.00027379
-0.000665368
0.000383092
-0.000722662
0.000494454
-0.000779821
0.000606693
-0.000835235
0.00071836
-0.000887095
0.00082776
-0.000933493
0.000933026
-0.000972603
0.00103225
-0.0010029
0.00112365
-0.00102336
0.00120576
-0.00103367
0.00127753
-0.00103426
0.00133851
-0.00102636
0.00138882
-0.00101201
0.00142922
-0.000993986
-0.000975967
0.00146108
0.0010214
-0.000493521
0.00265041
-0.000547274
0.0041195
-0.000377389
0.00530577
-0.000410306
0.00628596
-0.000571667
0.00708191
-0.000707239
0.00766728
-0.000758954
0.00798577
-0.000708045
0.00797493
-0.000560481
0.00760058
-0.000350145
0.00689867
-0.000132132
0.00598735
4.04745e-05
0.00503979
0.000148282
0.00421415
0.000212952
0.00359354
0.000264804
0.00316082
0.000329674
0.00283932
0.000408242
0.00255044
0.000482259
0.00224873
0.00052859
0.00192311
0.000534019
0.00157682
0.000501552
0.0012264
0.000445187
0.000887663
0.0003794
0.000572556
0.000312218
0.000282287
0.000253113
2.07845e-05
0.000197723
-0.000213796
0.000150854
-0.000414898
0.000103355
-0.000580217
5.78288e-05
-0.000709512
1.5655e-05
-0.000804414
-2.20925e-05
-0.000868189
-5.45847e-05
-0.000905367
-8.12765e-05
-0.000921205
-0.000102097
-0.000921026
-0.000117537
-0.000909605
-0.000128613
-0.000890714
-0.000136708
-0.000866868
-0.00014335
-0.000839321
-0.000149959
-0.000808251
-0.00015764
-0.000773108
-0.000167042
-0.000733002
-0.000178306
-0.000687099
-0.000191101
-0.000634945
-0.000204729
-0.000576667
-0.000218303
-0.000513012
-0.000230967
-0.00044521
-0.000242121
-0.000374719
-0.000251567
-0.000302934
-0.000259552
-0.000230952
-0.000266684
-0.000159463
-0.000273777
-8.8759e-05
-0.000281693
-1.88245e-05
-0.000291237
5.05476e-05
-0.000303093
0.000119644
-0.000317829
0.000188751
-0.000335901
0.000258093
-0.000357675
0.000327805
-0.000383427
0.000397911
-0.000413344
0.000468314
-0.000447506
0.000538788
-0.000485874
0.000608973
-0.000528262
0.000678376
-0.000574323
0.00074637
-0.000623522
0.0008122
-0.000675123
0.000875003
-0.000728171
0.000933826
-0.000781485
0.00098766
-0.000833655
0.00103549
-0.000883068
0.00107638
-0.000927984
0.00110957
-0.000966681
0.00113463
-0.000997667
0.00115165
-0.00101992
0.00116132
-0.00103304
0.00116499
-0.00103734
0.00116453
-0.00103379
0.00116215
-0.00102398
0.00116017
-0.00101003
0.00116076
-0.000994576
-0.000981075
0.00116587
-0.000544434
5.09125e-05
-0.000936052
-0.000155655
-0.000871625
-0.000441817
-0.000687259
-0.000594671
-0.000644611
-0.000614316
-0.000851615
-0.000500235
-0.00133125
-0.000279317
-0.00204388
4.58126e-06
-0.00290587
0.000301508
-0.00380895
0.000552939
-0.00466045
0.000719369
-0.00538208
0.000762103
-0.00591746
0.000683665
-0.00623647
0.000531955
-0.00634407
0.000372405
-0.00626598
0.000251583
-0.00604006
0.000182329
-0.00571002
0.000152217
-0.00532321
0.000141784
-0.00492479
0.000135599
-0.0045493
0.00012606
-0.00421514
0.000111027
-0.00392771
9.19629e-05
-0.00367393
5.84458e-05
-0.00343382
1.30054e-05
-0.00320182
-3.42846e-05
-0.00296586
-8.51064e-05
-0.00272448
-0.000138022
-0.00247576
-0.000190888
-0.00221894
-0.00024117
-0.00195495
-0.000286081
-0.00168684
-0.000322688
-0.00141988
-0.000348238
-0.00116121
-0.000360768
-0.000919006
-0.000359742
-0.000701236
-0.000346383
-0.000514392
-0.000323552
-0.000362417
-0.000295325
-0.000245969
-0.000266406
-0.00016216
-0.000241449
-0.000104891
-0.000224312
-6.58544e-05
-0.000217342
-3.60873e-05
-0.000220868
-7.63155e-06
-0.000233185
2.52125e-05
-0.000251147
6.54142e-05
-0.000271169
0.000113513
-0.00029022
0.000168459
-0.000306513
0.000228549
-0.000319641
0.000292169
-0.000330304
0.000358149
-0.000339756
0.00042576
-0.000349304
0.000494528
-0.000360005
0.000564031
-0.000372596
0.000633776
-0.000387574
0.000703171
-0.000405296
0.000771546
-0.000426049
0.000838182
-0.000450063
0.00090233
-0.000477492
0.000963214
-0.00050839
0.00102002
-0.000542681
0.00107189
-0.000580134
0.00111793
-0.00062036
0.0011572
-0.000662788
0.00118875
-0.000706671
0.00121165
-0.000751078
0.00122508
-0.000794908
0.00122833
-0.000836912
0.00122102
-0.000875753
0.00120315
-0.000910123
0.00117539
-0.000938921
0.00113918
-0.000961454
0.00109684
-0.00097757
0.00105147
-0.000987665
0.00100668
-0.000992552
0.00096619
-0.000993302
0.000933377
-0.00099117
0.000910956
-0.000987609
0.000900758
-0.000984378
-0.000984048
0.000903732
-0.000318425
0.000369338
-0.00107597
0.000601887
-0.00191839
0.000400602
-0.00257945
6.63932e-05
-0.00301395
-0.000179814
-0.00323934
-0.000274852
-0.00328395
-0.000234705
-0.00316361
-0.000115753
-0.00288742
2.53155e-05
-0.00248394
0.000149457
-0.00200088
0.00023631
-0.00151391
0.000275137
-0.00110786
0.000277609
-0.000830946
0.000255044
-0.000680312
0.000221771
-0.000616496
0.000187767
-0.000589547
0.000155379
-0.000559778
0.000122448
-0.00050474
8.67461e-05
-0.000416779
4.76385e-05
-0.00029678
6.06109e-06
-0.00014864
-3.71126e-05
2.57468e-05
-8.24244e-05
0.000214873
-0.00013068
0.000403691
-0.000175813
0.000584407
-0.000215001
0.000753831
-0.00025453
0.000908052
-0.000292243
0.0010444
-0.000327237
0.00116326
-0.000360027
0.00126861
-0.000391431
0.00136611
-0.000420188
0.00145957
-0.0004417
0.00154881
-0.000450007
0.00162999
-0.000440927
0.00169739
-0.000413778
0.00174528
-0.000371441
0.00176935
-0.000319402
0.00176746
-0.000264511
0.00173972
-0.000213706
0.00168822
-0.000172813
0.0016168
-0.00014592
0.00153048
-0.000134556
0.0014345
-0.000137202
0.00133341
-0.000150056
0.00123095
-0.000168708
0.00113075
-0.000190024
0.00103669
-0.000212454
0.000953228
-0.000236177
0.000884905
-0.000261982
0.000835306
-0.000290156
0.000806164
-0.000320163
0.000797081
-0.000350921
0.00080583
-0.000381345
0.000829028
-0.000410771
0.000862843
-0.000439111
0.000903526
-0.000466733
0.000947697
-0.000494233
0.000992425
-0.00052222
0.00103521
-0.000551177
0.00107393
-0.000581394
0.00110674
-0.000612952
0.00113211
-0.000645726
0.00114872
-0.000679402
0.00115555
-0.000713496
0.00115184
-0.000747374
0.00113722
-0.000780288
0.00111174
-0.00081143
0.00107602
-0.00084003
0.00103139
-0.000865495
0.00098001
-0.000887543
0.000924842
-0.000906286
0.000869441
-0.000922169
0.000817573
-0.000935798
0.000772769
-0.000947747
0.000737944
-0.000958477
0.000715173
-0.000968398
0.000705592
-0.000978028
0.000709396
-0.000988182
-0.00100039
0.000725735
0.000470379
-0.000101041
0.000953935
0.000118331
0.00107135
0.000283184
0.000891058
0.000246688
0.000575326
0.000135918
0.000272573
2.79017e-05
8.75458e-05
-4.96784e-05
7.02188e-05
-9.8426e-05
0.000223039
-0.000127505
0.000517603
-0.000145107
0.000910872
-0.000156959
0.00135177
-0.000165761
0.0018011
-0.000171716
0.00223056
-0.000174422
0.00262675
-0.000174415
0.00298688
-0.000172366
0.00330841
-0.00016615
0.00359512
-0.000164261
0.00384403
-0.000162167
0.00404768
-0.000156014
0.00419629
-0.000142547
0.00427866
-0.000119477
0.00428254
-8.63119e-05
0.00420025
-4.83901e-05
0.00403937
-1.49263e-05
0.00382004
4.32974e-06
0.00356105
4.45192e-06
0.00328213
-1.33167e-05
0.00300269
-4.78024e-05
0.00274654
-0.00010387
0.00254151
-0.000186405
0.00240742
-0.000286101
0.00234479
-0.000379063
0.00233738
-0.000442603
0.00236273
-0.000466276
0.00240092
-0.000451962
0.0024379
-0.000408424
0.00246492
-0.000346421
0.00247662
-0.000276217
0.00246954
-0.000206618
0.0024412
-0.000144472
0.00238885
-9.35737e-05
0.00231544
-6.11435e-05
0.00221832
-4.00823e-05
0.00210093
-3.2672e-05
0.00196991
-3.76837e-05
0.00183301
-5.31272e-05
0.001692
-7.14393e-05
0.00155175
-9.59333e-05
0.00141856
-0.000128786
0.00129758
-0.000169175
0.00119223
-0.000214815
0.00110426
-0.000262953
0.00103401
-0.000311092
0.000980713
-0.000357476
0.000942797
-0.000401196
0.000918089
-0.000442024
0.000904011
-0.000480155
0.000897769
-0.000515978
0.000896522
-0.00054993
0.000897534
-0.000582407
0.000898308
-0.000613726
0.000896685
-0.000644103
0.000890925
-0.000673642
0.000879766
-0.000702337
0.000862475
-0.000730084
0.000838904
-0.000756717
0.000809548
-0.000782074
0.000775591
-0.000806073
0.000738883
-0.000828788
0.000701795
-0.000850455
0.000666916
-0.000871406
0.000636672
-0.000891926
0.000613007
-0.000912132
0.000597216
-0.000931956
0.000589975
-0.000951236
0.000591454
-0.000969877
0.000601411
-0.000987985
0.000619186
-0.00100596
-0.00102462
0.000643416
-0.000352502
0.00025146
-0.000598001
0.00036383
-0.000707428
0.000392611
-0.000920707
0.000459968
-0.0013141
0.00052931
-0.00186434
0.000578145
-0.00251506
0.000601036
-0.00321112
0.000597632
-0.00391226
0.000573638
-0.00459518
0.000537814
-0.00524979
0.000497655
-0.00587246
0.000456906
-0.00645949
0.000415316
-0.00700335
0.000369441
-0.00749163
0.000313864
-0.0079072
0.000243203
-0.00822699
0.000153633
-0.00844237
5.11216e-05
-0.00853903
-6.55037e-05
-0.0085089
-0.000186149
-0.0083528
-0.000298643
-0.00808262
-0.00038966
-0.00771874
-0.000450196
-0.00728117
-0.000485953
-0.0067874
-0.000508702
-0.00625204
-0.000531028
-0.00569107
-0.000556512
-0.0051269
-0.000577492
-0.0045737
-0.000601006
-0.00404253
-0.000635037
-0.00354858
-0.000680358
-0.00312468
-0.000709993
-0.00280036
-0.000703389
-0.0025712
-0.000671757
-0.00242282
-0.000614663
-0.00233461
-0.000540171
-0.00228498
-0.000458056
-0.0022544