/*--------------------------------*- C++ -*----------------------------------*\
| =========                 |                                                 |
| \\      /  F ield         | OpenFOAM: The Open Source CFD Toolbox           |
|  \\    /   O peration     | Version:  2012                                  |
|   \\  /    A nd           | Website:  www.openfoam.com                      |
|    \\/     M anipulation  |                                                 |
\*---------------------------------------------------------------------------*/
FoamFile
{
    version     2.0;
    format      ascii;
    class       surfaceScalarField;
    location    "0.45";
    object      phi;
}
// * * * * * * * * * * * * * * * * * * * * * * * * * * * * * * * * * * * * * //

dimensions      [0 3 -1 0 0 0 0];
oriented        oriented;


internalField   nonuniform List<scalar> 
84340
(
-0.000337745
0.000277681
6.00638e-05
-0.000835477
0.000268162
0.000229571
-0.00114928
-0.000111223
0.000425029
-0.00125236
-0.000539569
0.000642646
-0.00123004
-0.000820882
0.000798561
-0.00116625
-0.000892563
0.000828772
-0.00110469
-0.000808895
0.000747333
-0.00104005
-0.000684518
0.000619879
-0.00095327
-0.000593059
0.000506282
-0.000846338
-0.000536337
0.000429405
-0.000751865
-0.000484095
0.000389621
-0.000715832
-0.000416598
0.000380565
-0.000776796
-0.000331741
0.000392704
-0.000956484
-0.000229919
0.000409607
-0.00125575
-0.00011072
0.000409983
-0.00164259
1.0715e-05
0.000376129
-0.00207524
0.000119658
0.000312995
-0.00251347
0.000204251
0.00023397
-0.00293111
0.000275425
0.000142219
-0.0033137
0.000337558
4.50266e-05
-0.00364664
0.000377311
-4.43642e-05
-0.003906
0.000381221
-0.000121862
-0.00407558
0.000357017
-0.000187438
-0.00415486
0.000320551
-0.000241274
-0.004158
0.000288288
-0.000285145
-0.0041069
0.000271976
-0.000323079
-0.00400059
0.000254664
-0.00036097
-0.00383476
0.000238847
-0.000404679
-0.00360191
0.000223167
-0.000456013
-0.00330135
0.00020721
-0.00050778
-0.00295648
0.000189323
-0.000534185
-0.00262663
0.000167702
-0.000497561
-0.00238141
0.000145081
-0.000390292
-0.00225211
0.000127813
-0.000257117
-0.00221614
0.000119685
-0.000155653
-0.00222604
0.000117977
-0.000108085
-0.00223848
0.000110647
-9.81993e-05
-0.00224231
0.000103532
-9.97006e-05
-0.00223554
8.69748e-05
-9.37499e-05
-0.00222041
5.95919e-05
-7.47178e-05
-0.00219781
2.38076e-05
-4.64154e-05
-0.00216596
-1.7861e-05
-1.3983e-05
-0.00212535
-5.96154e-05
1.90085e-05
-0.0020714
-0.00010082
4.68674e-05
-0.00200329
-0.000138893
7.07855e-05
-0.00192034
-0.000171628
8.86711e-05
-0.00182369
-0.000197803
0.000101156
-0.00171534
-0.000216974
0.000108624
-0.00159759
-0.000229124
0.000111379
-0.00147306
-0.000234727
0.000110189
-0.00134447
-0.00023467
0.000106085
-0.00121451
-0.00023018
0.00010022
-0.00108556
-0.000222675
9.37218e-05
-0.000959555
-0.000213549
8.75447e-05
-0.000837978
-0.000203969
8.23915e-05
-0.000721804
-0.000194761
7.85874e-05
-0.000611573
-0.000186401
7.61696e-05
-0.000507467
-0.000179065
7.49585e-05
-0.000409331
-0.000172723
7.45871e-05
-0.000316769
-0.000167221
7.46579e-05
-0.000229202
-0.000162366
7.4799e-05
-0.000145929
-0.000157978
7.47053e-05
-6.61704e-05
-0.000153927
7.4167e-05
1.0904e-05
-0.000150152
7.30772e-05
8.61538e-05
-0.000146673
7.14232e-05
0.000160461
-0.000143587
6.92799e-05
0.000234727
-0.000141061
6.67948e-05
0.000309873
-0.000139326
6.41801e-05
0.00038683
-0.000138671
6.17131e-05
0.000466536
-0.000139441
5.97352e-05
0.000549921
-0.000142042
5.86584e-05
0.000637899
-0.000146949
5.89707e-05
0.000731368
-0.000154714
6.12441e-05
0.000831199
-0.000165971
6.61399e-05
0.000938233
-0.000181442
7.44092e-05
0.00105329
-0.000201935
8.68807e-05
0.00117717
-0.00022833
0.000104449
0.00131071
-0.000261583
0.000128045
0.00145503
-0.000302767
0.00015844
-0.000346645
0.000193574
0.0016081
0.000371637
-9.3956e-05
0.000738714
-9.89148e-05
0.000770507
-0.000143016
0.000463157
-0.000232219
-7.07711e-05
-0.000286954
-0.000692733
-0.000270601
-0.00130193
-0.000199698
-0.0018666
-0.000119853
-0.00240946
-5.01992e-05
-0.00298244
3.66442e-05
-0.00364645
0.000179918
-0.0044465
0.000383453
-0.00537867
0.000600424
-0.0063601
0.000751513
-0.00726844
0.000797622
-0.0079332
0.000675479
-0.00826174
0.000448193
-0.00827064
0.000213156
-0.00802986
3.46391e-05
-0.00762227
-7.00274e-05
-0.00711636
-0.000128603
-0.00655791
-0.000177223
-0.00596417
-0.000236722
-0.00534281
-0.000300809
-0.00471165
-0.000342873
-0.00409463
-0.000345049
-0.00353486
-0.000305101
-0.00305357
-0.000242446
-0.00265333
-0.000177069
-0.00232676
-0.000119358
-0.00206633
-7.11116e-05
-0.00186787
-3.07536e-05
-0.00172608
3.28863e-06
-0.00162938
3.1115e-05
-0.00156095
5.125e-05
-0.00150597
6.29981e-05
-0.0014621
6.67765e-05
-0.00142189
6.3321e-05
-0.00138702
5.21117e-05
-0.0013592
3.17653e-05
-0.00133761
2.21834e-06
-0.00132147
-3.39968e-05
-0.00130732
-7.37694e-05
-0.00129164
-0.000116499
-0.00127186
-0.000158669
-0.00124498
-0.000198507
-0.00120827
-0.000234517
-0.00116002
-0.000265219
-0.00109987
-0.000289279
-0.0010288
-0.000305799
-0.000948835
-0.000314631
-0.00086247
-0.000316544
-0.000772084
-0.000313061
-0.000679598
-0.000306036
-0.000586385
-0.000297182
-0.000493382
-0.000287764
-0.000401253
-0.00027853
-0.000310515
-0.000269804
-0.0002216
-0.000261637
-0.000134865
-0.000253956
-5.05757e-05
-0.000246654
3.11051e-05
-0.000239659
0.000110139
-0.00023296
0.000186618
-0.000226631
0.000260777
-0.000220832
0.000332998
-0.000215807
0.000403817
-0.00021188
0.000473932
-0.000209441
0.000544194
-0.000208933
0.000615601
-0.000210847
0.000689263
-0.000215705
0.000766378
-0.000224064
0.000848174
-0.00023651
0.000935855
-0.000253653
0.00103053
-0.000276116
0.00113311
-0.000304516
0.00124421
-0.000339427
0.00136396
-0.000381336
0.00149186
-0.000430666
-0.000481608
0.00162682
-0.000121985
2.80291e-05
-0.000313821
9.29211e-05
-0.000652129
0.000195291
-0.00125015
0.0003658
-0.00210842
0.000571319
-0.00316712
0.000788099
-0.00436886
0.00100204
-0.00568522
0.00119651
-0.00709254
0.00135712
-0.00853888
0.00148298
-0.0099369
0.00157793
-0.0111753
0.00162189
-0.0121396
0.00156473
-0.012741
0.00135285
-0.0129127
0.000969314
-0.0126764
0.00043921
-0.0121101
-0.000118125
-0.0113284
-0.000568496
-0.0104289
-0.000864929
-0.00946747
-0.00103142
-0.00848214
-0.00111393
-0.00750694
-0.00115242
-0.00657717
-0.00116649
-0.00572308
-0.0011549
-0.00496119
-0.00110476
-0.00429694
-0.0010093
-0.00372261
-0.000879434
-0.0032269
-0.000738157
-0.00279855
-0.000605418
-0.00242723
-0.000490679
-0.00210308
-0.000395258
-0.00181679
-0.000317045
-0.00156036
-0.000253142
-0.00132746
-0.000201783
-0.00111416
-0.000162052
-0.000917777
-0.000133385
-0.000735991
-0.00011501
-0.000567142
-0.000105528
-0.000412181
-0.000102849
-0.000275954
-0.000104461
-0.000165538
-0.000108198
-8.66728e-05
-0.000112862
-4.19227e-05
-0.00011852
-3.22967e-05
-0.000126126
-5.30664e-05
-0.0001379
-9.65625e-05
-0.000155011
-0.000153193
-0.000177888
-0.000213189
-0.000205223
-0.00026813
-0.000234338
-0.000312056
-0.000261873
-0.000341684
-0.000285003
-0.00035589
-0.000302339
-0.000354876
-0.000314075
-0.000339498
-0.000321414
-0.000310929
-0.000325751
-0.000270575
-0.000328117
-0.000220063
-0.000329043
-0.000161182
-0.000328685
-9.57885e-05
-0.000327031
-2.56866e-05
-0.000324058
4.74712e-05
-0.000319813
0.000122253
-0.000314441
0.000197487
-0.000308193
0.000272276
-0.00030142
0.00034601
-0.000294565
0.000418363
-0.00028816
0.000489297
-0.000282814
0.000559058
-0.000279202
0.000628175
-0.00027805
0.000697447
-0.000280118
0.000767916
-0.000286174
0.000840824
-0.000296973
0.000917537
-0.000313223
0.000999441
-0.000335557
0.00108781
-0.000364486
0.00118365
-0.000400359
0.00128754
-0.000443312
0.00139943
-0.000493231
0.00151854
-0.00054977
-0.000607623
0.00164455
4.68342e-05
-1.8805e-05
0.000250941
-0.000111186
0.000606404
-0.000160172
0.00104701
-7.48063e-05
0.00149329
0.000125037
0.00190146
0.000379932
0.00225082
0.000652678
0.00253842
0.000908907
0.00278551
0.00111003
0.00304868
0.00121981
0.00342053
0.00120608
0.00400076
0.00104167
0.00484084
0.000724648
0.00591508
0.000278613
0.00710306
-0.000218669
0.00818718
-0.000644912
0.00899989
-0.000930831
0.00947306
-0.00104167
0.00960755
-0.000999422
0.00944708
-0.000870948
0.00905896
-0.000725818
0.00850724
-0.000600703
0.00783653
-0.000495782
0.00707706
-0.000395428
0.00626463
-0.000292334
0.00545123
-0.000195896
0.00469374
-0.000121943
0.00403426
-7.86748e-05
0.00349172
-6.28747e-05
0.00306414
-6.31059e-05
0.00274354
-7.46498e-05
0.002507
-8.05048e-05
0.00233271
-7.88609e-05
0.0022011
-7.01659e-05
0.00209455
-5.55042e-05
0.0019986
-3.74358e-05
0.0019027
-1.91084e-05
0.00179954
-2.3654e-06
0.00168522
1.14653e-05
0.00156139
1.93658e-05
0.00143001
2.31827e-05
0.00129856
1.85946e-05
0.00116842
1.1619e-05
0.00103946
2.83197e-06
0.00091057
-9.0092e-06
0.00078122
-2.56606e-05
0.000651323
-4.79908e-05
0.000522431
-7.63314e-05
0.000397083
-0.000108989
0.00027912
-0.00014391
0.000173037
-0.000178921
8.31714e-05
-0.000212473
1.28736e-05
-0.000243777
-3.60225e-05
-0.000272518
-6.32928e-05
-0.00029848
-7.00743e-05
-0.000321336
-5.84554e-05
-0.000340662
-3.10656e-05
-0.000356074
9.24739e-06
-0.000367344
5.96601e-05
-0.000374471
0.000117536
-0.000377689
0.000180536
-0.000377441
0.000246689
-0.000374347
0.000314436
-0.000369167
0.000382645
-0.000362774
0.000450609
-0.000356125
0.000518034
-0.000350239
0.000585008
-0.000346176
0.000651965
-0.000345007
0.000719639
-0.000347792
0.000789002
-0.000355537
0.00086119
-0.000369162
0.000937404
-0.000389438
0.00101878
-0.000416938
0.00110627
-0.000451972
0.00120045
-0.000494535
0.0013014
-0.000544265
0.0014086
-0.000600433
0.00152084
-0.000662012
-0.000724479
0.0016377
-0.000163082
0.000144276
-0.000623557
0.00034929
-0.00133907
0.000555344
-0.00213407
0.000720191
-0.00278628
0.00077725
-0.0031465
0.000740142
-0.00314291
0.000649089
-0.00277801
0.000544014
-0.00210871
0.000440722
-0.00122203
0.000333135
-0.000219347
0.000203404
0.000793765
2.85561e-05
0.00170321
-0.000184794
0.00240089
-0.000419071
0.002819
-0.00063678
0.00296762
-0.000793534
0.00291669
-0.000879902
0.00278468
-0.000909655
0.00269962
-0.000914362
0.00275383
-0.000925153
0.00298114
-0.000953134
0.0033592
-0.000978757
0.00382104
-0.000957623
0.00427881
-0.0008532
0.00466003
-0.000673555
0.00493035
-0.000466213
0.00508976
-0.000281352
0.00514087
-0.000129792
0.00510937
-3.13714e-05
0.00501837
2.78949e-05
0.00487115
7.25716e-05
0.00467389
0.000116751
0.00442765
0.000167382
0.00413297
0.000224511
0.00379301
0.000284461
0.0034133
0.000342266
0.0030015
0.000392696
0.00256857
0.000430567
0.00212886
0.000451175
0.00169687
0.000451353
0.00128923
0.000430825
0.000915171
0.000392652
0.000584481
0.000342308
0.000302298
0.000285015
6.90349e-05
0.000224253
-0.000118249
0.000161623
-0.000263718
9.74777e-05
-0.000373939
3.38896e-05
-0.000454432
-2.84962e-05
-0.000507318
-9.10244e-05
-0.000534276
-0.000151963
-0.00053649
-0.000210259
-0.000515431
-0.000264838
-0.000473332
-0.000314617
-0.000413179
-0.000358633
-0.000338389
-0.000396126
-0.000252458
-0.000426594
-0.00015871
-0.000449822
-6.0159e-05
-0.000465895
4.05437e-05
-0.000475174
0.000141136
-0.000478281
0.000239761
-0.000476065
0.000334978
-0.000469564
0.000425779
-0.000459967
0.000511593
-0.000448588
0.000592288
-0.00043682
0.000668158
-0.000426109
0.000739883
-0.000417901
0.000808479
-0.000413604
0.000875217
-0.000414529
0.000941519
-0.000421839
0.00100885
-0.000436489
0.00107858
-0.000459168
0.00115188
-0.000490241
0.0012296
-0.000529691
0.00131214
-0.000577079
0.00139941
-0.000631531
0.00149074
-0.000691767
0.00158496
-0.000756231
-0.000821357
0.00168184
0.000419264
-0.000274988
0.000972927
-0.000204373
0.00141607
0.000112205
0.00176059
0.000375669
0.00204191
0.000495933
0.00230515
0.000476899
0.00257834
0.000375897
0.00286865
0.000253704
0.00316427
0.000145103
0.00343485
6.25519e-05
0.00362365
1.46057e-05
0.00365547
-3.26123e-06
0.00346617
4.50344e-06
0.00301227
3.48355e-05
0.00230885
6.66398e-05
0.00142893
8.63844e-05
0.000472658
7.6368e-05
-0.000454304
1.73073e-05
-0.00126458
-0.000104082
-0.00190063
-0.000289109
-0.0023332
-0.000520562
-0.00256723
-0.000744725
-0.00266421
-0.000860644
-0.00273131
-0.000786105
-0.002847
-0.000557861
-0.00301544
-0.000297771
-0.00318518
-0.000111613
-0.00331196
-3.01245e-06
-0.00338775
4.44144e-05
-0.00342003
6.01766e-05
-0.00341561
6.81569e-05
-0.00338101
8.21463e-05
-0.00332024
0.000106608
-0.00323577
0.000140045
-0.00312975
0.00017844
-0.00300468
0.000217195
-0.00286395
0.000251968
-0.00271222
0.000278837
-0.00255562
0.00029457
-0.00240138
0.000297116
-0.0022565
0.000285944
-0.0021258
0.000261952
-0.00201033
0.000226837
-0.00190768
0.000182372
-0.00181366
0.000130229
-0.00172373
7.16981e-05
-0.00163494
8.68016e-06
-0.00154062
-6.04267e-05
-0.00143847
-0.000130652
-0.00132777
-0.00020172
-0.0012078
-0.000271933
-0.00107859
-0.000339467
-0.000940909
-0.000402522
-0.000796079
-0.000459447
-0.000645856
-0.000508856
-0.000492265
-0.000549718
-0.000337451
-0.000581407
-0.000183545
-0.000603728
-3.25446e-05
-0.000616896
0.000113779
-0.000621497
0.000253934
-0.000618436
0.000386734
-0.000608865
0.000511302
-0.000594131
0.000627055
-0.00057572
0.000733699
-0.000555233
0.000831233
-0.000534355
0.000919958
-0.000514834
0.0010005
-0.000498441
0.00107379
-0.000486902
0.00114109
-0.000481825
0.00120385
-0.0004846
0.00126367
-0.00049631
0.00132215
-0.000517642
0.00138072
-0.00054882
0.00144058
-0.000589549
0.0015025
-0.000638993
0.00156676
-0.000695793
0.00163313
-0.00075814
0.00170085
-0.000823949
-0.000890168
0.00176966
-0.000381165
0.000106178
-0.000330105
-0.000255434
0.000501144
-0.000719043
0.00175163
-0.000874822
0.00302333
-0.000775765
0.00409986
-0.000599632
0.00490729
-0.000431533
0.00545788
-0.000296883
0.00579444
-0.000191454
0.00596242
-0.000105426
0.00600617
-2.9153e-05
0.00595648
4.64382e-05
0.00583366
0.000127319
0.00565265
0.000215843
0.00540958
0.000309709
0.0050967
0.000399266
0.00470607
0.000466998
0.00423318
0.000490203
0.00368046
0.000448631
0.00305712
0.000334239
0.00237684
0.000159712
0.00166277
-3.06527e-05
0.000950477
-0.00014835
0.000289528
-0.000125156
-0.000278371
1.00389e-05
-0.000731881
0.000155739
-0.00108962
0.000246123
-0.00137421
0.000281577
-0.00161733
0.000287537
-0.00184124
0.000284089
-0.00205392
0.000280831
-0.00225231
0.00028054
-0.00242852
0.000282817
-0.00257475
0.000286283
-0.00268581
0.0002895
-0.00275981
0.00029119
-0.00279795
0.000290106
-0.00280406
0.000284952
-0.00278384
0.00027435
-0.00274374
0.000257014
-0.00268965
0.000231852
-0.0026257
0.000198003
-0.00255404
0.000155181
-0.00247441
0.000102735
-0.00238539
4.12118e-05
-0.00228276
-3.09291e-05
-0.00217275
-0.00010133
-0.00205029
-0.000182888
-0.0019127
-0.000268242
-0.00175985
-0.000354574
-0.00159263
-0.000439146
-0.00141288
-0.000519225
-0.00122316
-0.000592235
-0.00102665
-0.000655955
-0.000826813
-0.000708698
-0.0006271
-0.000749431
-0.000430699
-0.000777808
-0.000240309
-0.000794118
-5.80235e-05
-0.000799181
0.000114696
-0.000794217
0.000276985
-0.000780724
0.000428481
-0.000760361
0.000569201
-0.00073485
0.000699396
-0.000705915
0.000819429
-0.000675265
0.000929688
-0.000644614
0.00103056
-0.000615708
0.00112247
-0.000590344
0.00120591
-0.000570344
0.00128156
-0.000557481
0.00135032
-0.000553358
0.00141328
-0.00055927
0.00147169
-0.000576055
0.00152684
-0.00060397
0.0015799
-0.000642609
0.00163178
-0.000690869
0.00168299
-0.000747001
0.0017336
-0.000808748
0.00178321
-0.00087356
-0.000938595
0.00183164
0.000275236
-0.000169058
0.000618573
-0.00059877
0.00088786
-0.000988331
0.00110103
-0.00108799
0.00127468
-0.00094942
0.0014656
-0.000790552
0.00173502
-0.000700953
0.00207674
-0.000638605
0.00244389
-0.000558601
0.00279331
-0.000454843
0.00309483
-0.000330678
0.00332796
-0.000186694
0.00347963
-2.43475e-05
0.0035422
0.000153276
0.00351148
0.000340425
0.00338311
0.000527636
0.00316
0.000690111
0.00283647
0.000813731
0.00240334
0.000881766
0.00185002
0.000887551
0.00116803
0.000841707
0.000370145
0.000767232
-0.000467038
0.000688832
-0.00121531
0.000623118
-0.00177647
0.000571193
-0.002145
0.000524274
-0.002375
0.000476122
-0.00252171
0.00042829
-0.00262017
0.000385992
-0.00269016
0.000354085
-0.00274423
0.000334899
-0.00279045
0.000326757
-0.00283254
0.000324905
-0.00287045
0.000324191
-0.00290215
0.000321207
-0.00292547
0.000314504
-0.00293882
0.000303459
-0.00294149
0.000287623
-0.00293332
0.000266176
-0.00291415
0.000237843
-0.00288458
0.000202283
-0.00284212
0.000155542
-0.00278391
9.69702e-05
-0.002715
3.38292e-05
-0.00262293
-5.08609e-05
-0.00251348
-0.000140376
-0.00237887
-0.000235941
-0.00222513
-0.000336626
-0.00205332
-0.000440054
-0.0018647
-0.000543198
-0.00166126
-0.00064258
-0.00144602
-0.000734466
-0.00122308
-0.000815177
-0.000997402
-0.000881633
-0.000774282
-0.000931818
-0.00055866
-0.000965053
-0.000354492
-0.000981975
-0.000164393
-0.000984218
1.04219e-05
-0.000973996
0.000169942
-0.000953738
0.00031507
-0.000925852
0.000447309
-0.0008926
0.000568482
-0.000856024
0.000680478
-0.000817911
0.000785034
-0.000779821
0.000883585
-0.000743165
0.000977185
-0.000709307
0.00106651
-0.000679665
0.0011519
-0.000655741
0.00123351
-0.000639092
0.00131137
-0.000631214
0.00138548
-0.000633377
0.00145585
-0.000646429
0.00152251
-0.000670631
0.00158543
-0.000705525
0.00164446
-0.0007499
0.00169933
-0.000801868
0.00174962
-0.000859042
0.00179488
-0.000918822
-0.000978648
0.00183493
0.000108694
-0.000277752
-0.000179799
-0.000310277
-0.00105323
-0.000114901
-0.00222832
8.71063e-05
-0.00340431
0.000226569
-0.00444946
0.0002546
-0.00533111
0.000180696
-0.0060574
8.76814e-05
-0.00665655
4.05485e-05
-0.00714209
3.0694e-05
-0.00751941
4.6642e-05
-0.00779892
9.28219e-05
-0.0079718
0.000148525
-0.00803143
0.000212906
-0.00796918
0.000278179
-0.00777532
0.000333771
-0.00745623
0.000371026
-0.00702891
0.000386409
-0.00652999
0.000382845
-0.00601001
0.00036757
-0.00551553
0.000347227
-0.00507522
0.000326922
-0.00469671
0.000310322
-0.00437546
0.000301877
-0.00410328
0.000299004
-0.00387484
0.000295836
-0.00368665
0.000287933
-0.00353225
0.00027389
-0.00340195
0.000255692
-0.00328538
0.00023752
-0.00317297
0.000222488
-0.0030565
0.000210284
-0.00292937
0.000197775
-0.00278601
0.000180829
-0.00262099
0.000156192
-0.00243802
0.000131534
-0.00224505
0.00011049
-0.00204938
9.19504e-05
-0.00186854
8.53355e-05
-0.00171426
8.35651e-05
-0.00159117
7.91875e-05
-0.00149693
6.13078e-05
-0.00142008
2.01149e-05
-0.00135136
-3.48875e-05
-0.00130239
-9.98255e-05
-0.00125876
-0.000184007
-0.00120757
-0.00028713
-0.00114043
-0.000403768
-0.00105192
-0.000528567
-0.000939377
-0.00065574
-0.000803066
-0.000778891
-0.000646368
-0.000891165
-0.000475698
-0.000985847
-0.000299861
-0.00105747
-0.000128577
-0.0011031
2.95112e-05
-0.00112314
0.00016861
-0.00112107
0.000286563
-0.00110217
0.000384466
-0.0010719
0.000465546
-0.00103482
0.000533963
-0.00099427
0.000593955
-0.000952592
0.000649361
-0.00091143
0.000703419
-0.000871968
0.000758686
-0.000835088
0.000817019
-0.000801499
0.00087959
-0.000771879
0.000946921
-0.000746996
0.00101895
-0.000727767
0.00109509
-0.000715233
0.00117433
-0.000710459
0.00125533
-0.00071437
0.00133646
-0.000727563
0.00141597
-0.000750139
0.00149203
-0.000781585
0.00156289
-0.000820755
0.00162698
-0.000865961
0.0016831
-0.000915168
0.00173056
-0.000966277
-0.00101733
0.00176924
-0.000408094
0.000130342
-0.000829112
0.00011074
-0.00102507
8.1059e-05
-0.00108798
0.000150018
-0.00111983
0.000258413
-0.00123644
0.000371208
-0.00152412
0.000468382
-0.00198462
0.00054818
-0.00256286
0.000618783
-0.00321988
0.00068772
-0.00393151
0.000758274
-0.00466365
0.00082496
-0.00538497
0.000869846
-0.00605094
0.000878877
-0.00660762
0.000834859
-0.00700519
0.000731336
-0.00721329
0.000579131
-0.00722045
0.000393561
-0.00703168
0.000194078
-0.00666432
2.11481e-07
-0.00614559
-0.000171509
-0.00550849
-0.000310175
-0.00478694
-0.000411223
-0.00401073
-0.000474338
-0.0032091
-0.000502619
-0.00241249
-0.000500783
-0.00164947
-0.000475086
-0.000945408
-0.000430169
-0.000319815
-0.000369901
0.000216726
-0.00029902
0.000661518
-0.000222305
0.00101772
-0.000145916
0.00129259
-7.71014e-05
0.00149415
-2.07236e-05
0.00162742
2.2916e-05
0.00170172
5.72386e-05
0.00172515
8.7057e-05
0.00170134
0.000115757
0.0016439
0.000142778
0.00156376
0.000163709
0.00147124
0.00017171
0.00137124
0.000161302
0.00125949
0.000131862
0.00115236
7.22506e-05
0.00107916
-2.6628e-05
0.001038
-0.00014285
0.00102425
-0.000273379
0.00103419
-0.000413712
0.00106403
-0.000558402
0.00110955
-0.000701255
0.00116558
-0.000834928
0.00122565
-0.000951234
0.00128184
-0.00104204
0.00132518
-0.00110081
0.00134701
-0.00112493
0.00134129
-0.00111742
0.00130688
-0.00108666
0.00124821
-0.00104351
0.00117386
-0.000997544
0.0010938
-0.000954762
0.00101705
-0.000917518
0.000950372
-0.000885915
0.000898138
-0.000859196
0.000862732
-0.000836562
0.000845092
-0.000817448
0.000845167
-0.000801574
0.000862225
-0.000788937
0.000895022
-0.000779793
0.000941884
-0.000774628
0.00100073
-0.000774084
0.00106912
-0.000778847
0.00114427
-0.000789513
0.00122313
-0.000806433
0.0013026
-0.0008296
0.00137959
-0.000858577
0.00145134
-0.000892512
0.00151561
-0.000930228
0.00157084
-0.000970401
0.00161634
-0.00101177
-0.00105322
0.00165223
0.000153463
-2.31203e-05
0.000374293
-0.00011009
0.000569622
-0.00011427
0.00077628
-5.66398e-05
0.00104021
-5.51806e-06
0.00138713
2.42857e-05
0.00181919
3.63243e-05
0.00231978
4.7595e-05
0.00287225
6.63095e-05
0.00346404
9.59289e-05
0.00408855
0.000133766
0.00474501
0.000168501
0.00543318
0.000181673
0.0061428
0.000169256
0.00683791
0.000139755
0.00746409
0.00010515
0.00797057
7.26508e-05
0.0083352
2.89336e-05
0.00856567
-3.63904e-05
0.00867977
-0.000113885
0.00869824
-0.000189987
0.00864706
-0.000258989
0.00855717
-0.000321333
0.00846002
-0.000377184
0.00838064
-0.00042324
0.00833431
-0.000454455
0.00832656
-0.000467334
0.0083563
-0.000459915
0.0084197
-0.000433302
0.00851289
-0.000392212
0.00862922
-0.000338635
0.00875177
-0.000268464
0.00885866
-0.000183988
0.00893667
-9.87349e-05
0.00897282
-1.32308e-05
0.00895792
7.21325e-05
0.00888987
0.000155115
0.00877384
0.000231784
0.00861938
0.000297239
0.00843695
0.000346132
0.00823458
0.000374082
0.00801786
0.000378029
0.00779222
0.000357493
0.00755392
0.000310558
0.00729376
0.000233527
0.00701097
0.000139945
0.00672507
1.25217e-05
0.00643218
-0.000120826
0.00613049
-0.000256714
0.00581505
-0.000385819
0.00547728
-0.000497154
0.00510665
-0.000580598
0.00469548
-0.000630869
0.00424541
-0.000650745
0.00377036
-0.000649878
0.00329293
-0.000639987
0.00283686
-0.000630592
0.00242081
-0.000627458
0.00205594
-0.000632675
0.00174671
-0.000645526
0.00149291
-0.000663726
0.00129154
-0.000684548
0.00113802
-0.000705677
0.00102706
-0.000725594
0.000953212
-0.000743603
0.000911295
-0.000759657
0.000896529
-0.000774171
0.000904572
-0.000787836
0.000931433
-0.000801489
0.000973344
-0.000815996
0.00102665
-0.000832157
0.00108776
-0.000850619
0.00115313
-0.000871801
0.00121938
-0.000895851
0.00128344
-0.000922641
0.00134274
-0.000951809
0.00139536
-0.00098285
0.0014402
-0.00101524
0.00147697
-0.00104854
-0.00108244
0.00150619
0.000236139
-0.000259259
0.000334047
-0.000207998
0.000159362
6.04153e-05
-0.000145348
0.00024807
-0.000419328
0.000268461
-0.000543921
0.000148879
-0.000467633
-3.99632e-05
-0.000175726
-0.000244313
0.000336057
-0.000445474
0.00107811
-0.00064612
0.00206476
-0.000852891
0.0032961
-0.00106283
0.00472841
-0.00125064
0.00628958
-0.00139191
0.00786864
-0.0014393
0.00933817
-0.00136438
0.0105748
-0.00116394
0.0114741
-0.00087044
0.0119866
-0.000548841
0.0121312
-0.000258467
0.0119778
-3.65808e-05
0.011622
9.67341e-05
0.0111572
0.000143462
0.0106551
0.000124946
0.0101602
7.16832e-05
0.00969376
1.19725e-05
0.00926175
-3.53285e-05
0.00886393
-6.2088e-05
0.00849744
-6.68116e-05
0.00815626
-5.10391e-05
0.00783532
-1.76897e-05
0.00753822
2.86346e-05
0.00727292
8.1316e-05
0.00702921
0.000144976
0.00680807
0.000207906
0.00661081
0.000269389
0.00643951
0.000326417
0.00629539
0.000375904
0.00617756
0.000415065
0.00608219
0.0004415
0.00600301
0.000453266
0.00593193
0.000449115
0.00586066
0.000428761
0.00577831
0.000392904
0.0056691
0.000342743
0.00552912
0.000279923
0.00533484
0.000206801
0.00508742
0.000126592
0.00477814
5.25649e-05
0.00440605
-1.37244e-05
0.00397847
-6.95749e-05
0.00351285
-0.000114976
0.0030327
-0.000150722
0.00256585
-0.000183893
0.00213949
-0.000223523
0.0017739
-0.000274395
0.00147837
-0.00033506
0.00125134
-0.000400427
0.00108395
-0.000465294
0.000964594
-0.000526166
0.000882193
-0.000581325
0.000827879
-0.000630234
0.000795215
-0.000673012
0.000779779
-0.000710158
0.000778571
-0.000742394
0.000789486
-0.000770573
0.000810914
-0.000795598
0.000841437
-0.000818359
0.000879635
-0.000839687
0.000923961
-0.000860321
0.000972691
-0.000880887
0.00102395
-0.000901879
0.0010758
-0.000923648
0.00112636
-0.000946406
0.00117396
-0.000970245
0.00121733
-0.000995182
0.00125569
-0.00102121
0.0012888
-0.00104835
0.00131695
-0.00107669
-0.00110639
0.0013409
-0.000717083
0.000457823
-0.00182351
0.000898427
-0.00270697
0.000943878
-0.0032753
0.000816403
-0.00361047
0.000603625
-0.00374072
0.000279132
-0.00365232
-0.000128362
-0.00332616
-0.000570475
-0.00276056
-0.00101107
-0.00198957
-0.0014171
-0.00109527
-0.00174719
-0.000223022
-0.00193508
0.000420669
-0.00189433
0.000618742
-0.00158998
0.000316148
-0.00113671
-0.00031453
-0.000733697
-0.00102572
-0.000452751
-0.00167422
-0.000221946
-0.00221311
-9.94265e-06
-0.00262588
0.000154302
-0.00291322
0.000250761
-0.0030963
0.000279809
-0.00320534
0.000252506
-0.00326566
0.00018526
-0.00329223
9.82524e-05
-0.00329292
1.26614e-05
-0.00327063
-5.76181e-05
-0.00322721
-0.000105508
-0.00316389
-0.000130128
-0.00308071
-0.000134214
-0.00297706
-0.000121339
-0.00285391
-9.45221e-05
-0.00271405
-5.85448e-05
-0.00254685
-2.22248e-05
-0.00235635
1.74089e-05
-0.0021448
5.78378e-05
-0.00191517
9.67876e-05
-0.00166712
0.000127854
-0.00140562
0.000153566
-0.00113982
0.0001757
-0.000877987
0.000191435
-0.000628245
0.000199372
-0.000398449
0.000198965
-0.000195828
0.000190284
-2.69994e-05
0.000173915
0.000102231
0.000150693
0.00018849
0.000120542
0.000229808
8.5273e-05
0.000234803
4.75702e-05
0.000223862
-2.78285e-06
0.000208581
-5.42936e-05
0.000200947
-0.000107342
0.000211917
-0.000161693
0.000245298
-0.000217275
0.000296019
-0.000274244
0.000354034
-0.00033241
0.000409986
-0.000391012
0.00045861
-0.000449052
0.000498763
-0.000505447
0.000531838
-0.000559241
0.000560151
-0.000609638
0.000585989
-0.000656071
0.000611239
-0.000698264
0.000637326
-0.000736245
0.000665231
-0.000770299
0.000695541
-0.000800883
0.000728487
-0.000828544
0.000763982
-0.000853855
0.000801662
-0.000877366
0.000840929
-0.000899588
0.000881017
-0.000920974
0.000921063
-0.000941925
0.0009602
-0.000962786
0.000997655
-0.00098386
0.00103283
-0.00100542
0.00106539
-0.00102774
0.00109526
-0.00105108
0.00112263
-0.00107571
0.00114786
-0.00110192
-0.00113003
0.00117151
1.98492e-05
0.000437975
0.000271921
0.000646354
0.00074451
0.000471288
0.00133909
0.000221821
0.00194664
-3.92111e-06
0.0024858
-0.000260026
0.00294131
-0.00058388
0.003323
-0.00095216
0.00361398
-0.00130205
0.0037678
-0.00157093
0.00372981
-0.00170921
0.00345407
-0.00165934
0.00291961
-0.00135988
0.00215197
-0.000822344
0.0012336
-0.000218336
0.000282975
0.000216926
-0.000581742
0.000411965
-0.00128204
0.000478348
-0.00179653
0.00050455
-0.0021541
0.00051187
-0.00240587
0.000502535
-0.00259975
0.000473684
-0.00276977
0.000422531
-0.00292962
0.000345108
-0.00307644
0.000245077
-0.0031978
0.000134015
-0.0032829
2.7481e-05
-0.00332997
-5.8433e-05
-0.003346
-0.000114098
-0.00334033
-0.000139884
-0.00331815
-0.000143524
-0.00327832
-0.000134352
-0.00321746
-0.000119402
-0.00313712
-0.000102568
-0.00303322
-8.64927e-05
-0.00290871
-6.66647e-05
-0.00276498
-4.69474e-05
-0.00260874
-2.83862e-05
-0.0024444
-1.07749e-05
-0.00227322
4.52088e-06
-0.00209678
1.49966e-05
-0.00191812
2.07084e-05
-0.00174054
2.13857e-05
-0.00156693
1.66766e-05
-0.00139927
6.25282e-06
-0.00123821
-1.03685e-05
-0.00108764
-3.00269e-05
-0.000946249
-5.61171e-05
-0.000811173
-8.75051e-05
-0.00069023
-0.000123726
-0.000580462
-0.000164062
-0.000479716
-0.000208088
-0.000385837
-0.000255572
-0.000296841
-0.000306272
-0.000211336
-0.00035975
-0.000128523
-0.000415223
-4.79718e-05
-0.000471564
3.0329e-05
-0.000527353
0.000106111
-0.000581229
0.000178878
-0.000632008
0.000248093
-0.000678853
0.000313342
-0.000721321
0.000374435
-0.000759357
0.000431414
-0.000793223
0.000484516
-0.0008234
0.000534114
-0.00085048
0.00058064
-0.000875071
0.000624517
-0.000897732
0.000666099
-0.000918949
0.00070565
-0.000939138
0.000743337
-0.000958661
0.000779261
-0.000977849
0.000813492
-0.000997017
0.000846109
-0.00101648
0.000877228
-0.00103654
0.000907005
-0.00105752
0.000935626
-0.0010797
0.000963268
-0.00110336
0.000990071
-0.00112873
-0.00115611
0.00101615
0.00124768
-0.000809705
0.00344915
-0.00155511
0.0056688
-0.00174836
0.0076239
-0.00173328
0.00923445
-0.00161448
0.0103613
-0.00138688
0.0108852
-0.00110778
0.0107569
-0.000823863
0.00999971
-0.000544849
0.0087074
-0.00027862
0.00702394
-2.57421e-05
0.00515414
0.000210455
0.00336883
0.000425435
0.00193227
0.000614214
0.000939427
0.000774512
0.000258727
0.000897626
-0.000316821
0.000987514
-0.000891258
0.00105278
-0.00148545
0.00109875
-0.00209906
0.00112548
-0.00272473
0.0011282
-0.00334217
0.00109113
-0.00394163
0.00102199
-0.00450151
0.000904987
-0.00498023
0.000723794
-0.00531737
0.000471156
-0.00546224
0.000172355
-0.00540702
-0.000113651
-0.00519575
-0.000325371
-0.00489925
-0.000436382
-0.00458096
-0.000461816
-0.00427894
-0.000436375
-0.00400733
-0.000391012
-0.00376448
-0.000345416
-0.00354971
-0.000301262
-0.00335433
-0.000262042
-0.00317322
-0.000228061
-0.0030032
-0.000198408
-0.00284132
-0.000172651
-0.00268571
-0.000151086
-0.00253634
-0.000134373
-0.00239241
-0.000123222
-0.00225348
-0.000117542
-0.00211906
-0.000117747
-0.00198746
-0.000125349
-0.00185773
-0.000140093
-0.00172672
-0.000161041