/*--------------------------------*- C++ -*----------------------------------*\
| =========                 |                                                 |
| \\      /  F ield         | OpenFOAM: The Open Source CFD Toolbox           |
|  \\    /   O peration     | Version:  2012                                  |
|   \\  /    A nd           | Website:  www.openfoam.com                      |
|    \\/     M anipulation  |                                                 |
\*---------------------------------------------------------------------------*/
FoamFile
{
    version     2.0;
    format      ascii;
    class       volVectorField;
    location    "0.45";
    object      U;
}
// * * * * * * * * * * * * * * * * * * * * * * * * * * * * * * * * * * * * * //

dimensions      [0 1 -1 0 0 0 0];


internalField   nonuniform List<vector> 
42400
(
(-0.892408 0.986989 6.08784e-17)
(7.20022 -13.7347 8.48661e-17)
(29.9902 -34.8274 -8.69212e-17)
(49.4221 -58.6615 0)
(62.0824 -69.7519 0)
(63.1035 -69.2677 4.48855e-20)
(55.533 -60.9357 0)
(45.1741 -50.67 8.67219e-21)
(36.4107 -41.945 0)
(30.4023 -35.4182 6.4757e-20)
(26.3884 -30.6324 8.8653e-20)
(23.3395 -27.0428 -1.06648e-19)
(20.3769 -24.2968 -4.65391e-17)
(16.776 -22.0053 4.75035e-17)
(11.9558 -19.3866 -9.96406e-20)
(5.73264 -15.8099 0)
(-1.19031 -11.7095 0)
(-7.99964 -7.8218 0)
(-14.4606 -4.27726 0)
(-20.1373 -1.28925 0)
(-24.4398 0.632877 0)
(-27.2108 1.4716 -5.60542e-20)
(-28.6366 1.6371 -1.05639e-17)
(-28.9569 1.39854 1.68291e-18)
(-28.4542 0.862997 9.07942e-18)
(-27.323 0.103673 -4.64078e-20)
(-25.7124 -0.794577 -5.0129e-20)
(-23.73 -1.71696 1.06728e-19)
(-21.4495 -2.53641 0)
(-18.888 -3.17334 0)
(-16.0983 -3.66257 5.34213e-18)
(-13.2976 -4.11651 -5.38596e-18)
(-10.9059 -4.5646 8.38479e-20)
(-9.29464 -4.91505 -2.55199e-18)
(-8.51727 -5.10089 2.53002e-18)
(-8.29907 -5.1574 0)
(-8.2484 -5.178 0)
(-8.08816 -5.28084 0)
(-7.7106 -5.53299 0)
(-7.14504 -5.91152 1.59531e-18)
(-6.48414 -6.33656 -1.60059e-18)
(-5.81232 -6.72757 1.98035e-18)
(-5.17622 -7.03471 -5.98124e-20)
(-4.58967 -7.23282 -4.0242e-18)
(-4.05179 -7.30984 1.95045e-18)
(-3.56257 -7.26499 -1.91031e-18)
(-3.1211 -7.104 3.91203e-18)
(-2.7263 -6.83849 -1.85062e-18)
(-2.3754 -6.48464 -1.40343e-19)
(-2.06325 -6.06209 1.74665e-18)
(-1.78322 -5.59263 -3.38917e-18)
(-1.52794 -5.09834 -1.61306e-19)
(-1.2902 -4.59963 1.77648e-18)
(-1.06397 -4.11337 -2.14025e-19)
(-0.845092 -3.65192 0)
(-0.631668 -3.22272 0)
(-0.423601 -2.8289 0)
(-0.222069 -2.47027 1.70422e-19)
(-0.0289557 -2.14418 1.61046e-19)
(0.153973 -1.84671 0)
(0.325459 -1.57347 1.90125e-18)
(0.48501 -1.3202 -2.00484e-18)
(0.632981 -1.08311 -1.70808e-18)
(0.77055 -0.859123 1.67585e-18)
(0.899618 -0.645827 0)
(1.02265 -0.441429 0)
(1.14253 -0.244633 -1.38184e-18)
(1.26241 -0.0545379 1.35068e-18)
(1.38563 0.129445 1.83436e-19)
(1.51567 0.3076 0)
(1.65612 0.479906 0)
(1.8106 0.646019 1.55981e-19)
(1.98282 0.805261 1.47993e-19)
(2.17653 0.956625 0)
(2.39548 1.09881 1.3365e-19)
(2.64333 1.23029 8.94025e-19)
(2.92359 1.34939 -8.67096e-19)
(3.23969 1.45457 -2.32511e-19)
(3.59789 1.54832 -8.06005e-19)
(3.95621 1.63896 -8.1235e-19)
(-5.62345 7.11882 0)
(-5.73244 10.5083 -9.69809e-17)
(4.68161 1.17776 9.94846e-17)
(17.3609 -10.1923 0)
(23.6992 -18.4781 0)
(23.0897 -21.467 -6.98937e-17)
(18.1315 -21.5682 7.15527e-17)
(13.2162 -21.8613 -8.66481e-21)
(10.4978 -23.3229 0)
(8.75759 -25.1199 -6.48421e-20)
(5.89633 -26.3025 -8.89089e-20)
(0.89339 -26.6957 2.02946e-17)
(-6.14927 -26.8231 -2.91134e-18)
(-13.8746 -26.7675 -1.84103e-17)
(-20.3697 -26.3717 -1.68659e-17)
(-25.1889 -26.785 1.70533e-17)
(-27.7771 -27.9408 0)
(-27.282 -28.3963 -2.45171e-19)
(-25.7007 -28.1363 0)
(-24.4946 -27.4471 0)
(-22.7091 -26.2856 0)
(-19.9392 -25.0572 6.20772e-18)
(-16.64 -24.009 -1.37999e-18)
(-13.4243 -22.8185 -5.06698e-18)
(-10.7782 -21.0875 0)
(-8.84897 -18.8352 2.17076e-19)
(-7.5123 -16.3304 4.98666e-20)
(-6.57082 -13.9224 -1.06153e-19)
(-5.91101 -11.7701 -9.17519e-19)
(-5.49741 -9.87722 9.26725e-19)
(-5.32006 -8.20854 1.36282e-19)
(-5.35133 -6.75478 1.16129e-19)
(-5.54077 -5.53138 -1.23607e-18)
(-5.80036 -4.55658 1.05896e-18)
(-6.02606 -3.82513 4.10862e-19)
(-6.13449 -3.31707 -2.85548e-19)
(-6.08115 -3.0207 0)
(-5.84718 -2.92372 -9.25699e-20)
(-5.43603 -3.01112 0)
(-4.87658 -3.26625 -2.014e-19)
(-4.20624 -3.66003 2.02295e-18)
(-3.46625 -4.15055 -2.23654e-18)
(-2.70124 -4.68481 1.45118e-19)
(-1.9572 -5.20209 -1.51409e-19)
(-1.2801 -5.64825 -6.24284e-20)
(-0.699163 -5.98305 -1.53551e-19)
(-0.2235 -6.18209 1.50651e-19)
(0.150874 -6.23806 2.51891e-18)
(0.434613 -6.15633 -2.51366e-18)
(0.640686 -5.95196 0)
(0.783514 -5.64739 1.7029e-19)
(0.879166 -5.26987 2.39567e-19)
(0.944434 -4.84759 1.83758e-18)
(0.9948 -4.40577 -1.83123e-18)
(1.04244 -3.96381 -2.71009e-19)
(1.09522 -3.53458 3.22552e-18)
(1.15675 -3.12529 -3.67972e-18)
(1.22744 -2.73907 -1.70276e-19)
(1.30563 -2.37661 -1.60917e-19)
(1.38877 -2.03728 2.76673e-18)
(1.47424 -1.71996 -2.72244e-18)
(1.55991 -1.42341 1.35788e-19)
(1.64445 -1.14652 1.67413e-19)
(1.72738 -0.888395 0)
(1.80912 -0.648311 -1.77312e-18)
(1.89089 -0.425684 7.34223e-20)
(1.97458 -0.219951 2.17373e-18)
(2.06264 -0.0304836 0)
(2.15795 0.143476 -4.16526e-19)
(2.26373 0.302827 2.19855e-19)
(2.38345 0.448557 1.47087e-18)
(2.52078 0.58165 -1.58852e-18)
(2.67951 0.702966 -1.466e-18)
(2.86341 0.813116 1.45621e-18)
(3.07609 0.912361 -2.98767e-19)
(3.3208 1.00053 1.12632e-18)
(3.60005 1.07691 -7.96121e-19)
(3.91541 1.14021 2.32474e-19)
(4.27076 1.19188 -1.24657e-18)
(4.61045 1.23222 9.54921e-19)
(-1.14364 0.291316 -4.96883e-18)
(-7.444 4.29007 3.6437e-20)
(-14.3159 8.93307 -1.66354e-19)
(-20.4745 10.2971 3.95816e-20)
(-24.314 8.99532 0)
(-27.8771 5.90181 -9.74845e-19)
(-32.1342 2.25264 -4.42564e-19)
(-37.4279 -1.4041 1.46883e-18)
(-44.097 -4.57185 -5.48305e-18)
(-53.0734 -6.22872 -1.68995e-18)
(-65.2073 -5.22706 7.4765e-18)
(-79.5168 -1.72348 1.23089e-19)
(-92.5224 2.14652 1.16375e-19)
(-99.8381 3.2477 -1.38636e-17)
(-97.6146 -0.885226 1.41329e-17)
(-84.8791 -10.3501 1.69853e-19)
(-66.6276 -21.492 1.61181e-17)
(-49.5755 -30.6878 2.69584e-19)
(-36.4128 -36.842 -1.64005e-17)
(-26.5734 -39.5948 -1.41356e-19)
(-19.0036 -39.5138 1.62917e-19)
(-12.676 -37.9815 1.88523e-19)
(-6.83227 -36.1496 0)
(-1.67212 -34.4328 8.22071e-21)
(1.96326 -32.4252 -2.09259e-17)
(3.50567 -29.5799 3.94402e-17)
(3.22054 -25.7815 -1.88232e-17)
(1.92629 -21.5821 1.41081e-17)
(0.446795 -17.6153 -1.42979e-17)
(-0.777509 -14.2346 -1.09331e-17)
(-1.63594 -11.4846 1.9872e-17)
(-2.16698 -9.26429 -1.04094e-18)
(-2.43836 -7.45958 -8.40451e-18)
(-2.50435 -5.98647 0)
(-2.40437 -4.78392 0)
(-2.16939 -3.80739 -8.73617e-20)
(-1.82598 -3.01929 0)
(-1.40026 -2.38637 -1.4138e-19)
(-0.913931 -1.8861 4.78174e-18)
(-0.392312 -1.51242 -9.64161e-18)
(0.140149 -1.27269 4.8536e-18)
(0.663338 -1.1805 0)
(1.15652 -1.24961 0)
(1.60617 -1.47614 4.15304e-18)
(2.00671 -1.83482 -3.93713e-18)
(2.35268 -2.28801 -2.81317e-19)
(2.64134 -2.78351 0)
(2.86681 -3.26273 0)
(3.02022 -3.67105 3.3492e-18)
(3.09524 -3.96801 -3.33335e-18)
(3.09417 -4.13455 -1.69854e-19)
(3.03092 -4.17347 0)
(2.92839 -4.10365 -3.06065e-18)
(2.81189 -3.95086 2.66291e-18)
(2.70257 -3.73982 -4.51277e-18)
(2.61374 -3.48987 4.67254e-18)
(2.55067 -3.21448 -4.00281e-18)
(2.51269 -2.92268 8.18038e-18)
(2.49577 -2.62091 -7.68907e-18)
(2.49479 -2.31426 1.70182e-19)
(2.50487 -2.0072 3.47031e-18)
(2.5221 -1.70381 3.11194e-18)
(2.54387 -1.40788 -3.22365e-18)
(2.56888 -1.12287 0)
(2.59713 -0.851901 2.28522e-18)
(2.62974 -0.597694 -1.00864e-19)
(2.6688 -0.362515 -2.95262e-18)
(2.71718 -0.148087 0)
(2.77835 0.0444854 5.11737e-19)
(2.85617 0.214774 1.6861e-18)
(2.9547 0.363034 -1.61117e-18)
(3.07803 0.490158 0)
(3.23009 0.59756 0)
(3.41434 0.687003 -1.74611e-19)
(3.63356 0.760405 1.65124e-19)
(3.88937 0.819634 9.79315e-19)
(4.18189 0.866307 -1.6024e-18)
(4.5093 0.901648 0)
(4.87037 0.929028 2.67474e-19)
(5.21752 0.950927 1.09351e-18)
(0.86563 -1.42245 -2.56196e-18)
(2.71773 -0.0297833 5.45278e-18)
(-1.98056 3.06108 -3.43953e-18)
(-12.3772 15.1192 -6.92265e-18)
(-29.0261 30.097 6.92812e-18)
(-46.687 46.0935 0)
(-62.9794 60.7315 -2.24682e-17)
(-76.0048 72.3642 2.31734e-17)
(-84.1543 79.8198 -2.13917e-17)
(-86.3165 82.56 2.18291e-17)
(-81.6454 80.5946 -1.3349e-17)
(-69.2975 73.9508 2.07581e-17)
(-49.2359 63.1708 -1.01682e-17)
(-23.1591 49.4784 3.67708e-19)
(5.58318 34.8667 6.58592e-18)
(32.9317 21.4388 -4.66491e-18)
(54.8422 10.8778 -3.84002e-18)
(68.4944 4.27937 5.40455e-18)
(73.6401 1.53605 -1.8385e-18)
(72.5933 1.33211 1.41156e-19)
(68.4158 2.14172 3.95828e-19)
(63.1424 3.01077 -1.76678e-18)
(57.4287 3.64339 1.06838e-18)
(51.2034 4.11701 2.08543e-19)
(44.4471 4.53981 0)
(37.5519 4.85986 1.8965e-19)
(31.138 4.96204 0)
(25.6773 4.82378 6.42009e-18)
(21.3578 4.53935 8.33983e-19)
(18.0987 4.20725 -7.46718e-18)
(15.6952 3.90451 -9.45048e-18)
(13.9317 3.6784 9.27113e-18)
(12.6189 3.5346 -1.37158e-19)
(11.6154 3.44442 -3.88054e-19)
(10.8283 3.36806 -1.07713e-17)
(10.1961 3.26415 1.11992e-17)
(9.66905 3.10088 0)
(9.19455 2.86758 9.60345e-18)
(8.71248 2.5811 -9.43043e-18)
(8.16735 2.28304 4.06655e-19)
(7.52588 2.02064 -4.38797e-19)
(6.79249 1.82395 0)
(6.00937 1.68812 0)
(5.23404 1.57002 0)
(4.53255 1.41157 -3.35787e-19)
(3.96286 1.16199 5.15781e-18)
(3.55836 0.796011 -4.8702e-18)
(3.31189 0.320861 0)
(3.18642 -0.224986 0)
(3.12969 -0.786361 3.74994e-18)
(3.09621 -1.3089 -3.49004e-18)
(3.06229 -1.75395 3.33459e-18)
(3.02657 -2.1034 -2.50602e-18)
(2.99914 -2.35527 4.07378e-19)
(2.98953 -2.51564 -2.42454e-18)
(3.00041 -2.5927 3.09308e-18)
(3.02786 -2.59452 -4.99564e-18)
(3.06461 -2.52937 4.61011e-18)
(3.10329 -2.40634 0)
(3.13823 -2.23553 -2.8317e-19)
(3.16603 -2.02766 -3.89664e-18)
(3.18541 -1.79344 4.23635e-19)
(3.19687 -1.54305 7.25315e-18)
(3.20239 -1.28576 -6.36495e-18)
(3.2051 -1.02966 2.7455e-18)
(3.20908 -0.781585 2.83598e-18)
(3.21913 -0.547105 -2.09967e-18)
(3.24057 -0.330536 -3.38111e-19)
(3.27903 -0.13501 -2.31718e-18)
(3.34017 0.0374653 2.29927e-18)
(3.42943 0.185945 -5.28296e-19)
(3.55169 0.31048 -2.23237e-18)
(3.7109 0.412024 1.91448e-18)
(3.90967 0.492319 0)
(4.14887 0.553727 -1.64692e-18)
(4.42725 0.599026 4.1309e-19)
(4.74118 0.631155 3.36438e-18)
(5.08455 0.652949 -1.41955e-18)
(5.45127 0.669555 1.30515e-18)
(5.79552 0.676556 -1.27011e-18)
(3.90838 -2.77341 1.94601e-17)
(13.7371 -12.8511 0)
(23.6477 -21.6805 0)
(27.0753 -29.8984 3.95335e-19)
(27.1457 -34.0821 0)
(25.0062 -35.6636 0)
(21.8549 -34.5018 0)
(18.6648 -30.9657 2.89647e-19)
(16.5096 -26.2235 0)
(16.674 -21.5784 -4.69688e-19)
(20.3144 -18.3534 8.67408e-17)
(28.1166 -17.7302 -1.78747e-16)
(39.3648 -19.7953 9.22754e-17)
(51.6105 -23.3623 0)
(61.4131 -26.6139 -3.90072e-19)
(65.8808 -27.8987 7.4908e-21)
(63.8975 -26.2871 0)
(56.6578 -22.0244 8.4722e-17)
(46.9268 -16.2087 -1.66265e-16)
(37.5673 -10.106 6.2176e-18)
(30.351 -4.57024 7.4592e-17)
(25.6101 0.209184 5.25718e-19)
(22.6282 4.5234 0)
(20.4196 8.65237 -5.48078e-17)
(18.4077 12.5042 5.66619e-17)
(16.5843 15.6751 -4.51197e-17)
(15.1296 17.7695 4.62457e-17)
(14.1129 18.7563 3.42891e-17)
(13.4054 18.918 -3.44016e-17)
(12.7561 18.6571 0)
(11.9498 18.299 -2.07455e-17)
(10.8276 17.9466 2.09754e-17)
(9.35102 17.6112 4.19791e-19)
(7.58072 17.2484 -1.26593e-17)
(5.62807 16.7881 1.31641e-17)
(3.62374 16.1637 7.47877e-20)
(1.69963 15.3219 -3.68143e-19)
(-0.0170033 14.2222 -7.84822e-18)
(-1.41195 12.8452 7.89591e-18)
(-2.40446 11.212 6.33056e-18)
(-2.97404 9.40278 1.48916e-20)
(-3.17515 7.53518 -6.70038e-18)
(-3.11139 5.72395 0)
(-2.88182 4.05733 4.0742e-19)
(-2.55167 2.58144 -4.48113e-18)
(-2.15407 1.30495 1.05429e-17)
(-1.70502 0.21753 -9.74558e-18)
(-1.22187 -0.701145 4.43532e-18)
(-0.719976 -1.47226 0)
(-0.210025 -2.11059 2.89322e-19)
(0.303514 -2.62371 -3.93886e-18)
(0.815748 -3.01717 3.9458e-18)
(1.31904 -3.29512 5.84144e-20)
(1.80289 -3.46203 -3.34726e-18)
(2.25536 -3.52453 2.54708e-18)
(2.66535 -3.49194 -3.02894e-18)
(3.02426 -3.37567 -3.08838e-18)
(3.32688 -3.18847 5.94511e-18)
(3.57143 -2.94379 -5.01486e-18)
(3.75924 -2.65527 5.2227e-18)
(3.89432 -2.33624 0)
(3.98279 -1.99942 -2.48503e-19)
(4.03238 -1.65659 -3.82906e-18)
(4.05192 -1.31834 3.32213e-18)
(4.05097 -0.993815 8.59145e-19)
(4.03944 -0.690548 0)
(4.02728 -0.414382 3.01918e-18)
(4.02415 -0.16943 -2.57747e-18)
(4.03913 0.0418639 -3.17726e-19)
(4.08038 0.2186 -3.29719e-19)
(4.15486 0.361253 5.91938e-19)
(4.26789 0.47148 -2.76172e-20)
(4.42284 0.551931 -2.35607e-18)
(4.62079 0.606059 2.0228e-18)
(4.86021 0.637942 -2.44861e-19)
(5.13683 0.652069 0)
(5.44372 0.653088 -2.03281e-18)
(5.77149 0.645414 1.58897e-18)
(6.11139 0.635919 0)
(6.4196 0.608025 -1.36936e-18)
(-6.91418 5.83368 -5.56125e-19)
(-32.0323 26.3161 -4.31535e-17)
(-63.0555 47.4486 3.9403e-17)
(-83.4098 64.2728 -7.79354e-17)
(-90.2379 70.038 3.79716e-17)
(-85.7832 68.4845 -4.23046e-19)
(-74.9417 62.8613 2.76553e-17)
(-62.2565 56.2612 -2.8344e-17)
(-50.4682 50.3839 3.90029e-19)
(-40.7494 45.7745 8.5098e-19)
(-33.3555 42.3431 -1.32958e-17)
(-28.1384 39.5883 -7.16037e-18)
(-24.732 36.8878 2.16078e-17)
(-22.6902 33.5895 -9.62057e-18)
(-21.359 29.2256 1.56296e-17)
(-19.9864 23.5666 -4.74586e-18)
(-17.7982 16.6725 0)
(-14.0807 8.7273 0)
(-8.57135 0.158014 -2.17309e-18)
(-1.64156 -8.38992 1.86021e-18)
(5.69672 -16.0581 1.32086e-18)
(11.7873 -21.7361 4.4909e-18)
(14.6095 -24.2851 -1.30419e-17)
(12.9387 -23.4139 8.07016e-18)
(7.59897 -20.2457 1.57323e-17)
(0.889802 -16.4934 2.58277e-18)
(-5.05294 -13.3845 -1.98788e-17)
(-9.0806 -11.392 2.02768e-19)
(-11.134 -10.4831 -2.15749e-19)
(-11.8261 -10.2642 4.45134e-19)
(-11.8705 -10.225 0)
(-11.8129 -10.06 1.93083e-17)
(-11.8893 -9.64891 -3.82301e-17)
(-12.1155 -9.00897 1.88891e-17)
(-12.4114 -8.21391 0)
(-12.6749 -7.34402 -1.54773e-17)
(-12.8133 -6.47449 1.55423e-17)
(-12.7533 -5.67478 0)
(-12.4479 -5.00457 0)
(-11.8861 -4.50507 -1.00717e-17)
(-11.0972 -4.19157 1.03857e-17)
(-10.1401 -4.05394 -7.45224e-20)
(-9.08105 -4.0626 0)
(-7.97107 -4.1794 6.86863e-18)
(-6.83988 -4.36701 -9.06323e-19)
(-5.70323 -4.59469 -7.11156e-18)
(-4.57073 -4.83658 -3.9922e-19)
(-3.44611 -5.06822 7.00531e-19)
(-2.33582 -5.26605 0)
(-1.25432 -5.4151 -5.17949e-18)
(-0.21765 -5.50353 9.49836e-18)
(0.758413 -5.52137 -4.86152e-18)
(1.65888 -5.46243 -4.90423e-19)
(2.47085 -5.32461 -4.27677e-18)
(3.18447 -5.10972 6.34673e-19)
(3.79355 -4.82301 6.88362e-18)
(4.29572 -4.47258 -2.50375e-18)
(4.69244 -4.06875 0)
(4.98874 -3.62335 0)
(5.19274 -3.14904 3.39461e-19)
(5.31505 -2.65865 3.16496e-19)
(5.36815 -2.16469 0)
(5.36566 -1.67894 3.92253e-18)
(5.32184 -1.21221 -3.85993e-18)
(5.25106 -0.77414 -4.12004e-18)
(5.16742 -0.373051 -3.04031e-19)
(5.08442 -0.0157197 2.97403e-18)
(5.01459 0.292833 -3.04449e-18)
(4.96907 0.549552 2.97334e-18)
(4.95729 0.753479 -2.44787e-20)
(4.98656 0.905745 2.23555e-18)
(5.06174 1.00941 -2.18744e-18)
(5.18501 1.06916 -1.98823e-18)
(5.3556 1.09101 2.48029e-18)
(5.56975 1.08186 -1.76657e-18)
(5.82071 1.04914 1.95261e-18)
(6.09902 1.00039 -1.78271e-18)
(6.39295 0.942555 3.40449e-18)
(6.69161 0.884505 -4.80995e-20)
(6.95738 0.806873 -4.97533e-20)
(-0.418073 -2.04412 -6.39045e-17)
(-0.60916 -3.69509 -2.04146e-19)
(-0.324091 -0.291355 9.31286e-17)
(-0.846 5.09694 -1.85656e-16)
(1.67583 11.6261 9.26426e-17)
(6.53987 15.9544 -8.24829e-17)
(11.8729 18.4327 5.55581e-18)
(16.2413 19.8304 7.91546e-17)
(19.2905 20.5069 -6.85548e-17)
(21.3252 20.6304 6.8273e-17)
(22.6382 20.2478 -5.66817e-17)
(23.3124 19.5958 5.74327e-17)
(23.4278 18.9028 -4.4975e-17)
(22.9929 18.1941 4.55543e-17)
(22.1208 17.4768 -2.56094e-19)
(21.0899 16.5143 -2.27736e-19)
(20.3142 14.9998 -4.53933e-17)
(20.3042 12.5955 4.6277e-17)
(21.5532 9.01115 2.71802e-19)
(24.3703 4.11524 -1.77391e-19)
(28.5284 -1.95758 -1.49814e-17)
(32.4491 -8.20751 1.50474e-17)
(32.6577 -12.2264 0)
(26.3851 -12.136 2.60108e-20)
(15.6261 -9.12961 0)
(5.51528 -6.03554 0)
(-0.98157 -4.37935 -3.92152e-20)
(-4.23052 -4.06246 -5.06811e-18)
(-5.73534 -4.46387 5.19994e-18)
(-6.6295 -5.08749 6.70367e-18)
(-7.44533 -5.67497 -7.23275e-18)
(-8.33145 -6.1367 4.5124e-19)
(-9.25816 -6.46107 -4.45197e-19)
(-10.1402 -6.66309 0)
(-10.893 -6.76462 -2.62291e-19)
(-11.452 -6.78993 0)
(-11.7757 -6.76549 0)
(-11.8431 -6.72019 -2.80342e-19)
(-11.652 -6.68321 0)
(-11.2168 -6.67961 0)
(-10.5658 -6.72608 8.68592e-18)
(-9.73414 -6.82702 -8.16086e-18)
(-8.75861 -6.97724 0)
(-7.66974 -7.16386 0)
(-6.49083 -7.36597 0)
(-5.24147 -7.56316 -4.81447e-19)
(-3.95183 -7.74437 4.0018e-19)
(-2.64952 -7.89415 5.83612e-18)
(-1.35232 -7.98788 -6.18636e-18)
(-0.0816716 -8.00867 5.53318e-18)
(1.13779 -7.94618 -6.17724e-18)
(2.28133 -7.79422 6.3532e-19)
(3.32582 -7.55086 3.15349e-19)
(4.25145 -7.21856 0)
(5.04332 -6.80403 0)
(5.6927 -6.31755 -3.16719e-18)
(6.19751 -5.77199 -2.05377e-19)
(6.56212 -5.18178 3.35757e-18)
(6.79649 -4.56174 -2.93947e-18)
(6.91493 -3.92631 2.91565e-18)
(6.93466 -3.28885 4.78197e-18)
(6.87442 -2.66127 -2.53032e-19)
(6.75337 -2.05389 -8.8291e-18)
(6.59021 -1.47562 4.36271e-18)
(6.40274 -0.934225 2.53681e-19)
(6.20759 -0.436642 4.53086e-19)
(6.0202 0.0108303 3.43992e-18)
(5.85465 0.402643 -6.59717e-18)
(5.72343 0.734333 3.15907e-18)
(5.63698 1.00302 3.53773e-19)
(5.60323 1.20792 2.70058e-18)
(5.62705 1.35064 -2.95982e-18)
(5.70987 1.4353 0)
(5.84939 1.46828 -2.78788e-19)
(6.03953 1.45783 0)
(6.27063 1.41339 2.00563e-18)
(6.52996 1.34494 -5.81824e-20)
(6.80259 1.26198 -1.82957e-18)
(7.07401 1.17494 1.23616e-18)
(7.31457 1.07147 3.53191e-19)
(21.2736 -11.4621 -2.36903e-17)
(79.4481 -37.5659 3.5661e-17)
(129.227 -65.574 3.42182e-19)
(147.28 -71.4415 2.9081e-17)
(134.567 -64.3027 -2.97729e-17)
(111.274 -51.2953 2.33009e-17)
(88.7046 -38.2846 -4.34649e-17)
(70.6602 -26.9789 2.13105e-17)
(56.7336 -17.5178 -1.58918e-17)
(45.4625 -9.47476 1.70649e-17)
(35.5227 -2.36486 0)
(26.0139 4.13996 7.54338e-19)
(16.4673 10.2139 -3.87046e-19)
(6.7671 15.8974 0)
(-2.94454 21.0905 0)
(-12.1777 25.5199 0)
(-20.0979 28.729 0)
(-25.7208 30.1802 2.05514e-19)
(-28.3646 29.4608 0)
(-28.0723 26.5398 -3.03737e-19)
(-25.7355 21.8178 6.34354e-19)
(-22.7362 16.0587 -2.73621e-21)
(-20.3019 10.2414 1.02935e-19)
(-18.9308 5.31618 -9.10634e-19)
(-18.3073 1.69671 1.00564e-18)
(-17.8059 -0.807419 -2.00265e-18)
(-17.146 -2.5634 2.07021e-18)
(-16.4259 -3.80558 -3.05424e-18)
(-15.7737 -4.67741 -5.62227e-19)
(-15.2024 -5.30716 3.73104e-18)
(-14.6702 -5.80336 0)
(-14.135 -6.24241 2.24271e-19)
(-13.5728 -6.66493 2.37245e-19)
(-12.9775 -7.08121 0)
(-12.3556 -7.48149 2.63937e-19)
(-11.719 -7.84944 0)
(-11.0753 -8.1726 0)
(-10.4242 -8.44665 8.64076e-18)
(-9.75656 -8.67716 -1.67197e-17)
(-9.05337 -8.87674 8.6384e-18)
(-8.29115 -9.05927 8.59001e-18)
(-7.44574 -9.22841 -8.90214e-18)
(-6.50105 -9.38943 -2.94144e-19)
(-5.45368 -9.54855 0)
(-4.30172 -9.69212 9.07436e-18)
(-3.04087 -9.81001 -8.00256e-18)
(-1.68599 -9.88976 0)
(-0.266605 -9.91775 0)
(1.17651 -9.88796 -6.54155e-18)
(2.60218 -9.78599 7.46275e-18)
(3.96706 -9.59781 6.92488e-18)
(5.22803 -9.31334 -6.42062e-18)
(6.34586 -8.9288 -5.53301e-18)
(7.28906 -8.44814 9.95501e-18)
(8.03726 -7.88288 -4.73694e-18)
(8.58316 -7.25043 -1.03613e-18)
(8.93237 -6.57124 0)
(9.10119 -5.86577 4.43694e-19)
(9.11344 -5.15227 -2.7037e-18)
(8.99707 -4.44581 5.57174e-18)
(8.7813 -3.75801 -2.82483e-18)
(8.49443 -3.09733 0)
(8.16234 -2.46948 -2.90062e-19)
(7.80772 -1.87813 0)
(7.44995 -1.32565 -2.53704e-19)
(7.10552 -0.814071 -2.42203e-19)
(6.78867 -0.345776 -4.5547e-19)
(6.51194 0.0761804 -3.35721e-18)
(6.28638 0.448159 2.87488e-18)
(6.12131 0.766454 -3.80426e-19)
(6.02378 1.02805 -2.8021e-18)
(5.99775 1.23143 3.39659e-18)
(6.04332 1.37719 -2.4878e-18)
(6.15614 1.46837 2.41917e-18)
(6.32728 1.51039 -2.49247e-18)
(6.54349 1.51067 1.87797e-18)
(6.78827 1.47793 1.95972e-18)
(7.04331 1.42137 -1.89963e-18)
(7.29084 1.35045 4.3146e-19)
(7.5088 1.26255 -4.05187e-19)
(-0.221385 -0.349469 3.87368e-17)
(-7.71535 7.8426 5.46364e-17)
(-22.9439 7.3428 -1.09272e-16)
(-33.3701 9.03227 1.05268e-16)
(-39.6555 3.84613 -5.23038e-17)
(-35.811 -4.74737 -2.89188e-19)
(-24.2608 -15.5237 4.74504e-17)
(-13.3081 -24.88 -9.52593e-17)
(-7.45382 -31.1005 2.23604e-18)
(-5.84806 -34.6203 4.66052e-17)
(-6.8373 -36.3197 -4.40966e-20)
(-9.40586 -36.7351 -4.06625e-17)
(-12.8635 -36.1241 4.14717e-17)
(-16.7643 -34.6709 -3.4991e-17)
(-20.747 -32.529 3.56638e-17)
(-24.4325 -29.8403 2.85327e-17)
(-27.4717 -26.7955 -2.90461e-17)
(-29.5678 -23.6073 -2.09158e-19)
(-30.5766 -20.4982 0)
(-30.5775 -17.6808 -1.53316e-17)
(-29.8412 -15.2964 1.53989e-17)
(-28.6693 -13.3522 3.26206e-19)
(-27.2759 -11.8328 8.35764e-18)
(-25.7284 -10.6995 -8.76977e-18)
(-23.9822 -9.93687 1.66034e-19)
(-21.9699 -9.53761 0)
(-19.7095 -9.49252 -2.4201e-19)
(-17.3345 -9.70848 -3.20491e-19)
(-15.0849 -10.006 -8.30968e-18)
(-13.2365 -10.1741 8.62704e-18)
(-11.9684 -10.0765 8.8699e-18)
(-11.266 -9.71831 -8.98815e-18)
(-10.9425 -9.1686 1.36407e-19)
(-10.7788 -8.48852 -9.76895e-18)
(-10.6237 -7.72418 1.89521e-17)
(-10.3985 -6.91496 -9.53514e-18)
(-10.0659 -6.10185 -9.18933e-18)
(-9.60738 -5.33629 9.5689e-18)
(-9.00384 -4.68226 4.58954e-20)
(-8.24716 -4.20813 -3.31584e-19)
(-7.33362 -3.96245 2.90522e-19)
(-6.24475 -3.94541 -9.85334e-18)
(-4.96332 -4.12433 3.03147e-19)
(-3.49409 -4.46168 9.86237e-18)
(-1.87974 -4.94574 -1.02706e-17)
(-0.153857 -5.53072 9.68505e-18)
(1.63649 -6.14296 0)
(3.44557 -6.71372 9.46974e-18)
(5.22095 -7.18987 -9.28923e-18)
(6.90606 -7.53088 7.34321e-18)
(8.44318 -7.70809 -9.87537e-19)
(9.77647 -7.70643 -5.81057e-19)
(10.8572 -7.52632 -5.78896e-19)
(11.651 -7.18474 -5.51654e-19)
(12.1444 -6.71373 -5.26822e-18)
(12.3484 -6.15507 2.67434e-19)
(12.2965 -5.55175 0)
(12.0367 -4.93968 -3.90079e-18)
(11.6224 -4.34323 3.00475e-18)
(11.1048 -3.77538 0)
(10.5281 -3.24094 -2.97952e-18)
(9.9289 -2.73994 2.30766e-18)
(9.33535 -2.27014 0)
(8.76839 -1.82829 -2.65517e-19)
(8.2428 -1.41109 0)
(7.7688 -1.01594 -3.56262e-18)
(7.35383 -0.641639 7.54092e-18)
(7.00381 -0.288822 -3.50589e-18)
(6.72389 0.0400316 4.03932e-19)
(6.5184 0.340984 3.80586e-19)
(6.39023 0.609351 -2.84455e-18)
(6.33981 0.840583 2.43254e-18)
(6.36418 1.03112 -3.21935e-19)
(6.45615 1.17906 -3.04306e-19)
(6.60423 1.2846 5.70768e-19)
(6.79309 1.35004 2.66957e-19)
(7.0049 1.37961 2.26371e-18)
(7.22118 1.37897 -5.45227e-20)
(7.42477 1.35418 -2.05963e-18)
(7.60102 1.31006 -4.28591e-19)
(1.36793 -2.78216 0)
(-1.97207 -3.10403 9.4903e-21)
(-13.004 -0.0668737 1.85809e-19)
(-26.0308 4.89903 5.64674e-17)
(-36.9245 9.39672 -1.12532e-16)
(-45.6322 12.841 1.08623e-16)
(-51.9127 14.6102 -5.34784e-17)
(-56.1093 14.6423 0)
(-58.8023 13.1281 4.08124e-21)
(-60.2712 10.4841 3.84142e-17)
(-60.7798 7.0667 -3.91894e-17)
(-60.6585 3.16394 -2.95422e-17)
(-60.0539 -0.975518 5.50242e-17)
(-58.7568 -5.19925 -5.49614e-18)
(-56.2951 -9.40438 -5.73955e-18)
(-52.237 -13.4909 -1.40341e-17)
(-46.4916 -17.2949 -1.69895e-19)
(-39.4235 -20.5875 -2.428e-19)
(-31.7162 -23.1199 3.47845e-19)
(-24.1005 -24.6699 1.68727e-19)
(-17.1941 -25.1149 -4.64862e-20)
(-11.4081 -24.4388 -3.70188e-19)
(-6.9246 -22.728 -1.05181e-17)
(-3.73079 -20.1785 1.34504e-19)
(-1.63873 -17.0139 1.06938e-17)
(-0.393252 -13.4917 4.62485e-20)
(0.271295 -9.85337 -1.00529e-17)
(0.566119 -6.33689 2.03378e-17)
(0.671955 -3.11591 -1.93121e-17)
(0.743468 -0.30652 9.22462e-18)
(0.911882 1.99423 0)
(1.28938 3.7189 -1.5064e-17)
(1.95046 4.85231 2.84676e-17)
(2.89107 5.46343 -1.35868e-17)
(3.99267 5.66848 1.19119e-17)
(5.04996 5.60375 -1.26064e-17)
(5.85308 5.40264 -3.27345e-19)
(6.26145 5.14648 0)
(6.28295 4.87392 -1.45693e-20)
(6.05846 4.58125 -1.08865e-17)
(5.78532 4.25122 1.15736e-17)
(5.6664 3.82514 -3.23723e-19)
(5.8308 3.24235 3.26923e-19)
(6.31899 2.5016 0)
(7.11792 1.73773 0)
(8.21161 0.986617 1.14295e-17)
(9.50992 0.279265 -1.26345e-17)
(10.9104 -0.364936 -6.32029e-19)
(12.3217 -0.929239 -1.00724e-17)
(13.6599 -1.39487 1.96245e-17)
(14.8378 -1.74564 -8.6519e-18)
(15.7691 -1.9701 0)
(16.3776 -2.06534 6.48736e-18)
(16.6131 -2.04136 -6.11118e-18)
(16.4667 -1.9243 0)
(15.9786 -1.75448 4.23346e-18)
(15.2291 -1.57637 -3.91676e-18)
(14.318 -1.42388 3.10557e-18)
(13.3392 -1.31058 -2.75906e-18)
(12.3649 -1.23069 0)
(11.4417 -1.168 5.95822e-19)
(10.5951 -1.10516 3.01717e-19)
(9.83675 -1.02886 -2.12755e-18)
(9.16988 -0.930949 3.3642e-19)
(8.59277 -0.807614 1.97791e-18)
(8.10143 -0.658303 0)
(7.69145 -0.485028 2.24101e-19)
(7.35917 -0.291943 0)
(7.10206 -0.0850061 0)
(6.91829 0.128457 -2.98531e-18)
(6.80581 0.340324 2.9103e-18)
(6.76122 0.54236 2.34829e-18)
(6.77872 0.726941 2.5359e-19)
(6.84954 0.887714 -2.17201e-18)
(6.96191 1.02011 -2.56999e-18)
(7.1017 1.12166 2.2157e-18)
(7.25376 1.19203 -2.56334e-19)
(7.40358 1.23289 -1.92406e-18)
(7.53886 1.24691 4.13648e-18)
(7.65193 1.24154 -1.32787e-18)
(4.80918 -2.03769 1.76489e-17)
(22.4857 -5.71445 -1.29642e-17)
(36.3499 -12.5562 -1.01624e-17)
(42.9192 -12.4501 1.0395e-17)
(42.503 -11.5662 -1.95542e-19)
(39.9515 -9.03452 -1.96578e-19)
(36.7872 -5.76805 0)
(33.3173 -2.00397 -1.45246e-18)
(29.1936 2.35644 1.39743e-18)
(23.9403 7.41188 0)
(17.4728 13.1184 8.25068e-18)
(10.5433 19.1179 -1.87461e-17)
(4.57566 24.8488 -1.93049e-18)
(0.880752 29.787 2.5791e-17)
(-0.0284306 33.6185 -1.39312e-17)
(1.53052 36.2285 -2.09125e-19)
(4.84266 37.6347 6.55732e-20)
(9.14496 37.966 0)
(13.7055 37.4715 -1.488e-17)
(17.8886 36.4714 1.50154e-17)
(21.2639 35.2363 -1.01704e-19)
(23.6772 33.9554 -1.20213e-17)
(25.1703 32.7711 1.20984e-17)
(25.8486 31.7842 -9.73093e-18)
(25.8526 31.0899 9.87298e-18)
(25.3029 30.7375 -4.59569e-20)
(24.3188 30.7518 -5.6516e-18)
(22.9754 31.0961 1.46577e-18)
(21.3486 31.7207 7.16548e-18)
(19.5205 32.5667 -1.21998e-18)
(17.5626 33.5827 -1.54403e-18)
(15.5645 34.7082 8.88953e-19)
(13.6107 35.8115 -9.30005e-19)
(11.7377 36.7627 0)
(9.9506 37.4864 2.86374e-19)
(8.23794 37.9306 2.92372e-19)
(6.60372 38.0723 0)
(5.10308 37.9119 8.21277e-18)
(3.82905 37.4691 -8.56286e-18)
(2.88358 36.7463 -3.06578e-19)
(2.35256 35.7751 0)
(2.29268 34.5723 3.15872e-19)
(2.71948 33.1524 8.25212e-18)
(3.61059 31.5068 -8.40703e-18)
(4.89284 29.6876 0)
(6.4705 27.6587 -6.74685e-18)
(8.24153 25.4835 8.10348e-18)
(10.1264 23.2716 0)
(12.0165 21.0678 0)
(13.7806 18.8837 -4.66559e-19)
(15.289 16.7448 -4.16137e-19)
(16.4033 14.6704 0)
(16.9953 12.6742 3.07126e-18)
(16.9845 10.7756 -3.36349e-18)
(16.3869 9.00573 -2.56517e-18)
(15.334 7.39742 3.67916e-19)
(14.0411 5.9674 4.38944e-18)
(12.7309 4.71199 -4.09446e-18)
(11.5625 3.61874 -2.63799e-19)
(10.6039 2.67923 1.67922e-18)
(9.85091 1.89159 -2.70807e-19)
(9.26494 1.25523 0)
(8.80245 0.765294 0)
(8.42883 0.410978 1.79702e-18)
(8.12092 0.176904 -1.98158e-18)
(7.86488 0.045443 0)
(7.65329 -0.00138798 2.07189e-19)
(7.4828 0.0191545 0)
(7.35228 0.090987 1.53178e-18)
(7.26144 0.199301 -1.49471e-18)
(7.20962 0.330571 3.54059e-19)
(7.19486 0.472617 3.01467e-18)
(7.21334 0.614757 -2.60375e-18)
(7.25913 0.748049 3.06839e-19)
(7.32446 0.865527 0)
(7.40046 0.962389 0)
(7.47823 1.03604 0)
(7.55 1.08592 -2.19633e-18)
(7.61018 1.1131 -1.83182e-19)
(7.657 1.12445 3.52005e-18)
(7.78099 -1.51372 2.49733e-17)
(6.69435 -0.0503558 3.69485e-17)
(-6.797 4.11629 -3.78099e-17)
(-18.6309 6.96126 3.65065e-17)
(-23.1539 6.90861 -3.71586e-17)
(-22.6267 5.74735 1.76823e-19)
(-19.7185 4.67858 1.73728e-19)
(-16.1116 4.37799 0)
(-12.2703 5.08958 8.67209e-20)
(-7.89785 6.77572 0)
(-2.4446 9.32999 1.65702e-19)
(4.43246 12.6535 -1.1041e-17)
(12.5124 16.6405 1.14123e-17)
(20.821 21.2002 5.7343e-18)
(27.829 26.3581 -6.06486e-18)
(32.3054 32.2495 2.90157e-18)
(34.335 38.709 -2.5047e-18)
(35.0475 44.4572 0)
(35.1838 47.8458 0)
(34.8688 48.7127 0)
(34.3166 48.0409 5.72105e-18)
(33.7946 46.4305 -1.19615e-17)
(33.5101 44.1246 4.48413e-20)
(33.4907 41.4208 1.2879e-17)
(33.5293 38.647 -6.41626e-18)
(33.3202 36.0692 0)
(32.6621 33.8612 3.02158e-20)
(31.4198 32.052 0)
(29.5942 30.6213 2.30131e-18)
(27.2847 29.5264 -2.38499e-18)
(24.6042 28.6988 -1.39252e-19)
(21.6762 28.0595 0)
(18.6518 27.5793 9.97791e-19)
(15.6498 27.2342 -2.52605e-18)
(12.7564 26.9647 1.56526e-18)
(10.0534 26.7337 -1.91485e-18)
(7.62147 26.5278 3.91837e-18)
(5.53412 26.3271 -2.0024e-18)
(3.85159 26.1105 0)
(2.6154 25.8504 0)
(1.84853 25.5174 0)
(1.5539 25.0809 1.55693e-18)
(1.70899 24.5106 -4.61296e-18)
(2.26856 23.7796 2.87622e-18)
(3.16503 22.8581 0)
(4.31461 21.7404 -2.43354e-18)
(5.59351 20.4137 2.27259e-18)
(6.86182 18.8784 1.93013e-18)
(7.96974 17.1617 -3.042e-19)
(8.7705 15.329 -1.37321e-19)
(9.10901 13.4313 -1.03909e-19)
(8.91569 11.5514 -1.50697e-18)
(8.27183 9.75506 0)
(7.42244 8.07131 0)
(6.66817 6.50773 -1.42653e-18)
(6.21132 5.08335 1.51711e-18)
(6.08418 3.83258 0)
(6.19864 2.78543 0)
(6.43718 1.94931 1.17185e-19)
(6.70936 1.30769 2.32447e-19)
(6.96309 0.830861 0)
(7.17454 0.487268 0)
(7.33624 0.249766 -2.28363e-19)
(7.44951 0.0970558 -2.24118e-19)
(7.52049 0.0127304 1.96287e-18)
(7.55779 -0.0161749 -3.40353e-18)
(7.57087 -0.000377836 -1.90586e-19)
(7.56883 0.0508127 3.19178e-18)
(7.55969 0.128944 -3.26765e-18)
(7.5498 0.226093 2.9545e-18)
(7.5436 0.334734 -5.56698e-19)
(7.54353 0.447784 -1.36674e-18)
(7.55008 0.55878 2.55807e-18)
(7.56211 0.662141 -5.01061e-20)
(7.57728 0.753444 -4.68145e-18)
(7.59277 0.829637 2.52627e-18)
(7.60598 0.889125 0)
(7.61517 0.931637 4.97999e-19)
(7.61994 0.95843 0)
(7.62178 0.974499 -1.75932e-18)
(-11.6615 1.27955 0)
(-37.2017 3.36592 -1.77316e-19)
(-58.1322 5.40652 1.74574e-19)
(-70.1942 3.7655 8.34126e-17)
(-68.9644 1.41322 -1.66246e-16)
(-56.8862 -3.12034 8.26484e-17)
(-39.6262 -8.15375 -1.73863e-19)
(-21.3827 -12.4557 0)
(-3.5357 -15.4865 0)
(13.9723 -17.2508 0)
(31.2046 -18.0419 -1.65323e-19)
(47.4806 -18.2139 1.50075e-20)
(61.0092 -18.1407 0)
(69.0315 -18.2173 -1.3804e-19)
(69.1996 -18.6642 -4.73139e-21)
(61.2111 -18.9445 -2.47172e-17)
(46.2444 -17.8617 2.47949e-17)
(26.6996 -15.0169 8.95389e-20)
(6.55029 -11.7065 0)
(-10.4327 -9.00736 -1.49311e-20)
(-22.0468 -7.06913 6.40043e-20)
(-27.8315 -6.13628 1.0047e-18)
(-28.7269 -6.33581 1.93863e-18)
(-26.434 -7.34357 -3.00334e-18)
(-22.736 -8.63479 1.92162e-20)
(-18.9816 -9.79781 9.58836e-20)
(-15.8452 -10.6116 -7.25076e-18)
(-13.5517 -11.0625 6.8831e-18)
(-12.0257 -11.1903 2.34048e-19)
(-11.0832 -11.0381 9.90419e-20)
(-10.569 -10.6603 1.16025e-19)