/*--------------------------------*- C++ -*----------------------------------*\
| =========                 |                                                 |
| \\      /  F ield         | OpenFOAM: The Open Source CFD Toolbox           |
|  \\    /   O peration     | Version:  2012                                  |
|   \\  /    A nd           | Website:  www.openfoam.com                      |
|    \\/     M anipulation  |                                                 |
\*---------------------------------------------------------------------------*/
FoamFile
{
    version     2.0;
    format      ascii;
    class       volScalarField;
    location    "0.04";
    object      p;
}
// * * * * * * * * * * * * * * * * * * * * * * * * * * * * * * * * * * * * * //

dimensions      [0 2 -2 0 0 0 0];


internalField   nonuniform List<scalar> 
42400
(
6446.48
6233.06
5949.76
5573.82
5040.26
4389.92
3665.08
2935.49
2301.38
1866.92
1679.53
1696.58
1823.41
1975.08
2104.39
2196.55
2253.97
2281.81
2279.89
2241.27
2158.02
2031.99
1875.64
1702.36
1521.29
1338.32
1158.02
984.427
820.912
670.043
533.847
413.886
310.958
224.824
154.311
97.6822
53.0376
18.552
-7.43855
-26.4116
-39.6673
-48.3274
-53.3404
-55.499
-55.4613
-53.7703
-50.8674
-47.1103
-42.7889
-38.1391
-33.3528
-28.586
-23.9645
-19.5877
-15.5303
-11.8452
-8.56471
-5.70306
-3.25748
-1.21016
0.470001
1.82541
2.90748
3.77569
4.49352
5.12529
5.7326
6.36872
7.07207
7.8591
8.71781
9.60483
10.4493
11.1656
11.6738
11.9236
11.9039
11.6744
11.2594
10.9058
-6998.87
-6542.21
-5960.88
-5369.44
-4737.84
-4141.13
-3583.74
-3070.62
-2609.26
-2208.4
-1874.33
-1605.97
-1397.71
-1244.98
-1137.49
-1047.99
-948.536
-836.364
-725.227
-626.798
-548.958
-495.536
-464.522
-450.33
-446.569
-447.485
-448.341
-445.66
-437.588
-423.775
-404.966
-382.404
-357.368
-330.942
-303.973
-277.114
-250.893
-225.738
-202.004
-179.971
-159.826
-141.648
-125.409
-110.998
-98.2467
-86.9555
-76.9173
-67.9352
-59.8349
-52.4716
-45.7321
-39.533
-33.8166
-28.5448
-23.6939
-19.2489
-15.1991
-11.5351
-8.24615
-5.31901
-2.73701
-0.47955
1.47723
3.16058
4.60043
5.82853
6.87737
7.77836
8.55955
9.24283
9.84122
10.3572
10.7834
11.1061
11.3118
11.3969
11.3697
11.2775
11.1055
11.1334
-2458.51
-2305.46
-2076.69
-1768.3
-1396.66
-1052.43
-790.923
-628.159
-552.867
-551.473
-616.612
-740.587
-909.772
-1108.04
-1319.98
-1532.22
-1733.41
-1913.42
-2062.28
-2172.07
-2238.49
-2260.22
-2237.94
-2173.95
-2072.04
-1937.6
-1777.69
-1601.29
-1418.27
-1237.33
-1064.97
-905.383
-761.001
-633.247
-522.8
-429.527
-352.421
-289.776
-239.509
-199.472
-167.675
-142.382
-122.153
-105.822
-92.4765
-81.4058
-72.0638
-64.0294
-56.9774
-50.6597
-44.893
-39.5498
-34.5492
-29.8468
-25.424
-21.2788
-17.4178
-13.8505
-10.5857
-7.62912
-4.98159
-2.63892
-0.591368
1.17632
2.68472
3.9592
5.02917
5.92681
6.68518
7.33555
7.90445
8.41088
8.8646
9.26652
9.61175
9.89461
10.1165
10.2875
10.4415
10.6458
38.1786
-403.994
-1038.18
-1817.53
-2686.3
-3462.14
-4025.16
-4329.28
-4432.13
-4458.07
-4514.74
-4631.98
-4770.19
-4868.02
-4878.93
-4784.8
-4589.25
-4307.55
-3960.26
-3567.94
-3150.47
-2726.29
-2310.07
-1911.79
-1539.46
-1201.75
-907.606
-664.582
-476.229
-339.588
-246.342
-186.295
-149.661
-128.309
-116.217
-109.202
-104.537
-100.607
-96.5701
-92.0942
-87.1498
-81.8576
-76.3853
-70.8916
-65.5024
-60.3048
-55.3492
-50.6529
-46.2059
-41.9799
-37.9387
-34.0489
-30.2881
-26.6474
-23.1318
-19.7561
-16.5415
-13.5112
-10.6872
-8.08806
-5.72646
-3.60861
-1.73339
-0.0922851
1.33036
2.55639
3.61241
4.52765
5.33144
6.05037
6.70569
7.31144
7.87383
8.39242
8.86292
9.28108
9.64633
9.96572
10.2546
10.4863
-12412.7
-11610.4
-10583.8
-9438.94
-8040.49
-6425.54
-4633.44
-2839.71
-1272.19
-55.8358
836.392
1484.13
1932.99
2211.25
2353.17
2388.97
2340.12
2229.8
2082.7
1917.28
1743.92
1568.06
1392.58
1218.25
1044.17
870.123
699.045
537.537
394.085
275.607
184.085
116.939
69.0467
35.1481
11.0519
-6.29185
-18.8824
-28.0616
-34.6413
-39.1738
-42.0923
-43.7232
-44.3216
-44.0987
-43.2373
-41.8963
-40.2085
-38.2757
-36.1681
-33.9289
-31.584
-29.1523
-26.6535
-24.1123
-21.5595
-19.0281
-16.5537
-14.1694
-11.9039
-9.77981
-7.81198
-6.00678
-4.36177
-2.86621
-1.5024
-0.247987
0.920923
2.02602
3.08326
4.10037
5.07631
6.003
6.86899
7.66372
8.38087
9.01975
9.58471
10.0828
10.517
10.8879
13921.1
13823.9
13599
13125.9
12427.1
11656.9
10882.5
10108.4
9325.33
8511.62
7599.94
6537.89
5406.54
4372.81
3539.23
2889.45
2368.1
1944.42
1606.97
1341.32
1131.34
964.334
830.58
722.322
633.075
557.339
490.63
429.519
371.601
315.391
260.797
208.595
160.293
117.462
80.9059
50.665
26.277
7.1944
-7.33974
-18.1629
-26.0359
-31.5995
-35.3568
-37.6901
-38.8911
-39.1876
-38.7627
-37.7669
-36.3253
-34.5421
-32.5052
-30.2893
-27.9587
-25.5698
-23.1721
-20.8087
-18.5166
-16.3263
-14.2609
-12.3356
-10.5561
-8.9185
-7.40843
-6.00231
-4.66929
-3.37497
-2.08667
-0.779445
0.558119
1.92017
3.28368
4.61313
5.86914
7.01812
8.03951
8.928
9.6909
10.343
10.9044
11.3917
2399.47
2066.89
1621.57
1127.71
597.968
146.882
-198.099
-446.032
-612.722
-719.433
-798.969
-893.423
-1029.51
-1197.62
-1359.06
-1472.42
-1513.12
-1478.68
-1387
-1261.69
-1120.13
-972.582
-824.962
-681.746
-547.187
-425.156
-318.744
-230.098
-160.288
-109.011
-74.3457
-52.954
-40.1947
-32.8928
-28.5801
-26.8548
-27.7493
-30.6888
-34.6481
-38.8174
-42.6361
-45.7806
-48.0718
-49.4397
-49.8982
-49.5178
-48.4029
-46.6745
-44.4578
-41.8738
-39.0339
-36.0374
-32.9698
-29.9036
-26.8983
-24.0026
-21.2543
-18.6819
-16.304
-14.1293
-12.1557
-10.3697
-8.74618
-7.2492
-5.83448
-4.45392
-3.06193
-1.62335
-0.121251
1.43777
3.023
4.58484
6.06624
7.41667
8.60301
9.61379
10.4565
11.1522
11.7291
12.1907
-7005.88
-6941.96
-6813.32
-6583.31
-6279.97
-5940.09
-5602.78
-5299.2
-5049.19
-4857.7
-4710.84
-4578.96
-4432.97
-4261.39
-4068.78
-3859.56
-3626.18
-3356.49
-3048.62
-2714.42
-2374.5
-2045.11
-1734.52
-1446.23
-1181.75
-943.207
-733.137
-552.659
-401.966
-282.098
-194.119
-135.987
-101.305
-81.9701
-72.9611
-72.2976
-76.9193
-84.128
-91.8019
-98.3425
-102.4
-103.783
-102.719
-99.622
-94.9587
-89.1678
-82.6304
-75.6655
-68.5349
-61.4492
-54.5721
-48.0249
-41.8907
-36.2206
-31.0396
-26.3525
-22.15
-18.4123
-15.1127
-12.2186
-9.69221
-7.49042
-5.56434
-3.85968
-2.31825
-0.88136
0.505028
1.88326
3.27735
4.68902
6.09704
7.46161
8.7345
9.87257
10.8484
11.654
12.2992
12.8056
13.1951
13.4712
3623.1
3595.3
3498.27
3302.21
3021.84
2704.06
2396.07
2135.52
1938.56
1802.98
1716.77
1660.48
1609.64
1544.19
1450.5
1315.57
1132.01
905.705
655.882
397.906
138.102
-120.435
-371.177
-603.183
-803.306
-960.282
-1065.23
-1111.78
-1102.84
-1056.46
-996.935
-937.836
-877.934
-812.485
-742.221
-672.085
-606.165
-545.057
-486.026
-428.383
-373.383
-322.232
-275.758
-234.386
-198.13
-166.692
-139.618
-116.409
-96.5896
-79.7238
-65.419
-53.3217
-43.1143
-34.5132
-27.2692
-21.1661
-16.0196
-11.6745
-8.00117
-4.89148
-2.25463
-0.0129162
1.90192
3.55148
4.99225
6.27557
7.4456
8.53627
9.56911
10.5513
11.4757
12.3222
13.069
13.6964
14.195
14.5679
14.8286
14.9965
15.0873
15.1119
-6848.68
-6458.27
-5968.47
-5449.32
-4894.66
-4363.46
-3865.24
-3410.39
-3008.62
-2648.49
-2299.5
-1935.13
-1547.06
-1145.16
-753.641
-406.925
-140.448
31.1406
120.477
153.879
154.847
138.379
112.326
80.4336
44.0351
2.59968
-44.968
-98.4888
-155.426
-211.597
-262.96
-306.75
-341.198
-364.682
-375.458
-372.362
-356.012
-328.605
-293.788
-254.628
-215.228
-178.213
-145.261
-117.025
-93.4663
-74.1787
-58.5735
-46.0141
-35.901
-27.7142
-21.0266
-15.4995
-10.8718
-6.94656
-3.57717
-0.655724
1.89733
4.14107
6.12007
7.86871
9.41412
10.7784
11.9803
13.0361
13.9607
14.7676
15.4684
16.0726
16.5865
17.0125
17.35
17.5968
17.7515
17.8157
17.7955
17.7015
17.5485
17.3519
17.1227
16.8718
154.66
101.31
41.7255
-37.136
-183.997
-392.877
-662.106
-1001.41
-1406.81
-1817.27
-2134.55
-2304.55
-2346.55
-2307.42
-2217.11
-2088.42
-1930.08
-1749.54
-1552.97
-1346.82
-1138.92
-937.227
-748.278
-576.739
-425.161
-294.33
-183.741
-92.087
-17.8173
40.4126
83.6934
113.265
130.902
138.95
139.944
136.063
128.864
119.407
108.461
96.6901
85.1487
73.9958
63.7074
54.6589
46.9938
40.6963
35.6463
31.671
28.5847
26.2139
24.4107
23.056
22.0582
21.3475
20.8706
20.5856
20.4582
20.4585
20.5597
20.7371
20.9675
21.2291
21.5017
21.7662
22.0052
22.2031
22.3461
22.423
22.4256
22.3488
22.1912
21.9549
21.6461
21.2745
20.8521
20.3923
19.909
19.4147
18.9162
18.4246
5210.18
5019.17
4804.43
4527.33
4051.77
3455.92
2860.13
2384.03
2062.48
1837.38
1641.21
1456.16
1279.27
1097.35
917.876
763.777
645.68
564.3
514.797
487.132
471.018
459.829
451.232
445.416
442.706
442.596
444.029
445.75
446.475
445.001
440.34
431.843
419.24
402.619
382.365
359.093
333.592
306.793
279.611
252.403
226.171
201.634
179.03
158.435
139.843
123.196
108.405
95.3644
83.9588
74.0658
65.5623
58.3239
52.2255
47.1434
42.9568
39.5489
36.8089
34.6325
32.9233
31.5939
30.5657
29.7698
29.1462
28.6434
28.2173
27.8309
27.4534
27.0605
26.6338
26.1611
25.6365
25.0597
24.4352
23.7714
23.0792
22.3707
21.6578
20.951
20.2559
19.5846
-2922.47
-2142.02
-1181.28
-375.803
306.426
857.504
1342.24
1764.17
2107.81
2366.42
2544.92
2654.04
2703.33
2697.47
2638.07
2529.39
2381.01
2206.21
2020.01
1836.15
1664.1
1508.4
1370.2
1249.32
1145.16
1056.33
980.303
913.555
852.272
793.549
735.827
678.52
621.72
565.839
511.492
459.383
410.032
363.899
321.385
283.097
248.949
218.585
191.917
168.695
148.592
131.248
116.295
103.387
92.2211
82.5431
74.1497
66.8834
60.6214
55.2647
50.7269
46.9258
43.7788
41.2006
39.1048
37.4066
36.0255
34.8882
33.9305
33.0982
32.3463
31.6386
30.9469
30.2495
29.5309
28.7815
27.997
27.1778
26.3284
25.4565
24.5716
23.6843
22.8052
21.9431
21.1029
20.2977
8799.4
8642.06
8449.87
8183
7810.79
7356.87
6846.02
6299.81
5735.4
5168.9
4617.89
4100.51
3633.52
3234.29
2921.7
2707.27
2582.28
2518.32
2478.93
2433.41
2363.55
2262.27
2130.16
1973.47
1802.76
1628.49
1458.87
1299.29
1151.48
1015.8
891.66
778.33
675.213
581.969
498.429
424.511
360.261
305.527
259.898
222.685
192.847
169.14
150.299
135.131
122.591
111.842
102.284
93.539
85.4118
77.8357
70.8265
64.44
58.7395
53.7732
49.5597
46.0816
43.2859
41.0906
39.3942
38.0876
37.0642
36.2288
35.5027
34.8254
34.1536
33.4591
32.7247
31.9414
31.1064
30.2212
29.2907
28.3225
27.3265
26.3137
25.2956
24.284
23.2894
22.3201
21.3814
20.4862
758.317
788.734
844.759
912.615
995.717
1073.6
1135.33
1171.69
1176.87
1150.25
1095.2
1017.87
924.903
820.43
703.911
568.356
402.663
200.706
-30.6476
-272.564
-502.88
-704.897
-870.314
-997.619
-1088.77
-1144.4
-1163.47
-1146.64
-1095.98
-1016.69
-915.576
-799.963
-677.053
-553.414
-434.596
-324.967
-227.68
-144.32
-75.4198
-20.5924
21.163
51.2542
71.3077
83.2439
88.8135
89.5635
86.8485
81.8091
75.3962
68.3734
61.3374
54.741
48.9067
44.0347
40.2097
37.4148
35.5462
34.4402
33.9068
33.752
33.7987
33.9006
33.9519
33.8843
33.6627
33.2779
32.737
32.0567
31.2578
30.362
29.3907
28.3643
27.3018
26.2208
25.1371
24.0646
23.0149
21.9964
21.015
20.082
-13603.5
-13500.3
-13374.1
-13190.2
-12915.5
-12565.7
-12149.8
-11676.5
-11149.2
-10567.1
-9928.24
-9234.41
-8495.55
-7730.24
-6963.05
-6220.84
-5526.61
-4893.15
-4322.66
-3811.16
-3354.87
-2949.49
-2585.29
-2245.06
-1912.93
-1583.42
-1264.26
-970.03
-713.751
-502.133
-335.479
-209.546
-117.659
-52.5463
-7.47543
23.2619
44.1061
57.816
66.6169
72.0647
75.0751
76.115
75.4808
73.2424
69.5821
64.7382
59.2387
53.1568
46.8489
40.7097
35.0805
30.2541
26.4484
23.7837
22.2725
21.8236
22.26
23.3492
24.8386
26.4869
28.087
29.48
30.5611
31.2792
31.6292
31.6393
31.3566
30.8343
30.1241
29.272
28.3175
27.2938
26.2285
25.1444
24.0603
22.9912
21.9489
20.9416
19.9749
19.0571
-436.689
-215.364
77.9768
373.593
683.711
953.026
1177.99
1361.97
1510.15
1629.62
1725.11
1795.47
1836.61
1851.37
1856.13
1868.73
1892.43
1914.64
1915.75
1875.66
1780.32
1631.51
1450.93
1271.12
1117.95
997.959
902.41
819.646
741.836
666.324
593.884
526.716
466.146
412.457
365.177
323.269
285.777
252.125
221.731
194.273
169.485
147.101
126.89
108.747
92.556
78.0866
64.9991
53.5389
43.6851
35.3178
28.3994
22.9264
18.8979
16.2932
15.047
15.0259
16.0197
17.7556
19.9334
22.2633
24.4947
26.4319
27.944
28.9694
29.5108
29.6186
29.368
28.84
28.1081
27.234
26.2666
25.2438
24.1948
23.1417
22.1012
21.0857
20.1043
19.1626
18.2646
17.4143
14139.6
14020.7
13838.9
13516.7
13052.6
12489.6
11866.8
11210.4
10534.1
9840.87
9122.45
8358.05
7517.92
6585.24
5580.33
4577.58
3683.26
2967.83
2430.03
2024.17
1708.7
1464.12
1280.61
1145.22
1042.47
959.209
886.785
820.057
757.456
698.974
644.467
593.423
545.16
498.859
453.812
409.634
366.329
324.224
283.818
245.632
210.109
177.575
148.263
122.183
99.2592
79.4605
62.6164
48.4783
36.7963
27.4244
20.2298
15.0851
11.8619
10.4013
10.4832
11.8069
13.9992
16.6603
19.4275
22.0201
24.2447
25.9801
27.1654
27.7985
27.931
27.652
27.0646
26.2654
25.3338
24.3294
23.2942
22.2571
21.2372
20.247
19.2943
18.3838
17.518
16.6977
15.9227
15.1927
-4011.45
-3964.23
-3872.05
-3721.53
-3534.02
-3332.29
-3118.78
-2892.44
-2659.31
-2436.8
-2252.2
-2136.16
-2105.59
-2147.29
-2210.23
-2222.96
-2137.5
-1958.81
-1732.57
-1513.09
-1336.54
-1218.65
-1161.35
-1155.69
-1180.79
-1210.42
-1223.32
-1208.22
-1161.71
-1085.24
-984.53
-868.403
-745.632
-623.505
-507.21
-401.004
-307.835
-229.204
-165.323
-115.326
-77.5969
-50.1572
-30.9423
-17.9902
-9.53643
-4.08721
-0.468934
2.2046
4.58315
7.09732
9.94963
13.1709
16.6645
20.2407
23.6484
26.6217
28.9287
30.4224
31.0875
31.0447
30.4902
29.6115
28.5382
27.3456
26.0824
24.7907
23.5094
22.2702
21.0942
19.9922
18.9668
18.0158
17.1342
16.3163
15.5559
14.8475
14.1858
13.5666
12.9859
12.4404
-14230.4
-13674.6
-12968.7
-12256.8
-11551.6
-10834.5
-10056.8
-9214.51
-8334.84
-7457.79
-6617.97
-5834.4
-5110.84
-4443.19
-3829.56
-3276.05
-2791.14
-2379.04
-2037.86
-1762.74
-1547.79
-1384.41
-1262.43
-1170.6
-1098.13
-1035.74
-976.514
-916.33
-853.618
-788.568
-722.851
-658.567
-597.884
-542.26
-493.014
-450.307
-413.467
-381.35
-352.597
-325.917
-300.296
-275.083
-249.969
-224.91
-200.016
-175.443
-151.373
-128.022
-105.622
-84.4273
-64.7408
-46.8905
-31.1756
-17.8294
-6.95182
1.49393
7.67737
11.8915
14.5219
15.9879
16.6737
16.8712
16.7634
16.4505
15.9931
15.4412
14.8416
14.2338
13.6458
13.0929
12.5811
12.1096
11.6745
11.2709
10.8936
10.5381
10.2007
9.8787
9.56996
9.27344
11907.1
11724.4
11554
11384.5
11183.9
10906.2
10495.5
9931.06
9250.07
8512.39
7757.14
6996.49
6233.61
5476.72
4738.28
4031.93
3368.99
2756.53
2203.7
1733.2
1369.02
1100.37
884.419
694.495
535.394
415.932
334.809
286.579
265.772
266.476
278.568
291.556
297.891
294.215
280.48
258.883
232.973
206.516
182.47
162.516
147.136
135.426
126.383
119.16
113.022
107.474
102.218
97.0957
92.04
87.0389
82.1106
77.2856
72.5972
68.076
63.7475
59.6322
55.7465
52.103
48.7116
45.5785
42.7072
40.1003
37.7583
35.673
33.8316
32.2147
30.7965
29.5463
28.4308
27.4172
26.4765
25.5868
24.7343
23.9129
23.122
22.3645
21.6442
20.9674
20.3344
19.7524
-2604.86
-2600.94
-2572.05
-2480.21
-2308.37
-2062.15
-1770.24
-1479.9
-1224.67
-1007.38
-813.465
-629.411
-448.366
-270.992
-103.1
43.2727
146.837
181.208
121.39
-35.54
-239.784
-393.256
-419.207
-322.486
-164.556
-0.638532
144.1
261.562
347.61
398.395
411.829
388.997
341.325
289.136
251.24
235.764
238.289
247.316
252.469
249.277
238.426
223.176
206.154
188.916
172.317
156.852
142.755
130.077
118.749
108.641
99.6011
91.4769
84.1328
77.456
71.3592
65.7786
60.6711
56.0099
51.7827
47.9844
44.562
41.5515
38.9344
36.6855
34.7731
33.157
31.7904
30.6224
29.6012
28.6788
27.816
26.9858
26.1742
25.3785
24.6033
23.8562
23.1447
22.4765
21.8529
21.2785
-4954.27
-4767.55
-4523.52
-4241.46
-3890.73
-3558.9
-3318.65
-3206.5
-3171.79
-3140.6
-3088.58
-3024.1
-2957.85
-2903.21
-2874.14
-2872.02
-2880.04
-2869.89
-2809.36
-2676.17
-2471.76
-2219.86
-1948.47
-1676.42
-1413.26
-1164.74
-936.239
-732.628
-557.503
-412.867
-298.304
-210.242
-142.65
-89.0379
-44.3742
-6.11773
25.9944
51.3273
69.8833
82.7917
91.703
98.0186
102.553
105.624
107.304
107.588
106.545
104.309
101.058
96.9965
92.3309
87.2562
81.9462
76.5529
71.2081
66.0252
61.0952
56.4929
52.2683
48.4547
45.1263
42.2359
39.7644
37.6751
35.9152
34.4248
33.1481
32.032
31.03
30.0964
29.1998
28.3203
27.4515
26.5986
25.7728
24.9862
24.2484
23.5659
22.9388
22.3688
879.551
1047.83
1190.94
1285.1
1454.42
1681.06
1906.47
2097.64
2246.42
2356.36
2437.63
2492.71
2512.26
2477.87
2369.94
2177.38
1905.84
1581.62
1247.19
945.25
701.276
518.424
387.871
299.947
246.597
220.785
215.447
222.834
235.551
247.957
256.618
260.071
258.355
252.428
243.536
232.761
220.888
208.476
195.97
183.738
172.071
161.176
151.17
142.078
133.836
126.311
119.345
112.782
106.481
100.336
94.2804
88.2947
82.3985
76.625
71.0329
65.7749
60.8439
56.3086
52.2385
48.6761
45.6247
43.0634
40.937
39.1617
37.6438
36.3019
35.079
33.9379
32.851
31.7933
30.7465
29.7039
28.6731
27.6711
26.718
25.8309
25.0208
24.2919
23.641
23.0636
12393.9
12051
11550.2
10875.2
10031.4
9190.02
8408.43
7677.56
6972.12
6276.8
5581.31
4871.74
4133.81
3365.27
2588.75
1855.36
1242.05
822.901
603.395
498.296
415.102
328.82
255.594
207.396
187.778
193.666
214.687
239.626
260.419
272.35
274.523
268.902
258.346
245.405
231.885
218.802
206.564
195.238
184.754
175.014
165.928
157.398
149.356
141.734
134.478
127.535
120.74
114.123
107.641
101.243
94.9006
88.6234
82.4503
76.4483
70.7058
65.2529
60.2859
55.8982
52.1439
49.0478
46.5927
44.7163
43.3021
42.1864
41.1878
40.1511
38.9793
37.6493
36.1868
34.6435
33.0761
31.5367
30.0691
28.708
27.4769
26.3872
25.4396
24.6264
23.933
23.3422
-7220.3
-6932.6
-6555.24
-6069.02
-5458.5
-4745.9
-3958.54
-3125.76
-2261.64
-1359.92
-419.843
508.038
1307.31
1861
2137.07
2199.59
2130
1975.15
1750.69
1464.37
1134.84
793.349
470.1
186.55
-40.5439
-198.601
-284.341
-305.89
-283.008
-238.012
-185.841
-133.625
-84.1791
-39.1941
-0.0479154
32.2851
57.4248
75.6325
87.6984
94.7272
97.9121
98.3886
97.1011
94.7863
91.9559
88.9287
85.9599
82.9686
79.8667
76.5565
72.963
69.0768
64.9755
60.8119
56.7835
53.0941
49.92
47.3706
45.4723
44.178
43.3525
42.8098
42.3621
41.837
41.1113
40.1444
38.8486
37.3832
35.8054
34.1776
32.5616
31.0068
29.5498
28.2164
27.0225
25.9751
25.0725
24.3067
23.6643
23.1248
214.669
28.8167
-233.412
-566.829
-1004.86
-1509.52
-2046.02
-2568
-3027.68
-3387.01
-3625.94
-3744.45
-3760.92
-3699.03
-3569.28
-3371.03
-3111.45
-2813.53
-2506.37
-2212.39
-1942.74
-1700.27
-1484.11
-1290.94
-1113.16
-932.732
-735.47
-520.792
-306.763
-122.569
9.46145
86.3126
120.844
128.677
121.79
107.796
91.1812
74.5127
59.2265
46.1256
35.6593
27.9913
23.0267
20.4693
19.9411
20.9877
23.1075
25.805
28.6312
31.2128
33.277
34.6857
35.4466
35.6909
35.6211
35.448
35.3389
35.3887
35.6156
35.9821
36.4532
36.9202
37.2833
37.4237
37.2563
36.7419
36.0073
34.996
33.7899
32.4697
31.1012
29.7409
28.4358
27.2225
26.1265
25.1615
24.3309
23.6302
23.049
22.5648
-2726.74
-2457.17
-2039.11
-1489.98
-855.584
-164.599
590.352
1388.67
2167.33
2834.4
3305.82
3552.45
3601.45
3498.32
3291.24
3030.58
2755.99
2486.42
2229.42
1988.1
1762.88
1551.22
1346.12
1142.81
940.401
744.008
560.978
394.598
242.881
103.808
-19.8645
-122.824
-201.166
-253.717
-281.809
-288.611
-278.569
-256.869
-228.725
-198.602
-169.67
-143.597
-121.015
-101.736
-85.0488
-70.1235
-56.2391
-42.9269
-30.0463
-17.7714
-6.4782
3.43512
11.7111
18.3141
23.4093
27.2736
30.1961
32.414
34.0906
35.3112
36.1791
36.6721
36.816
36.6342
36.149
35.3905
34.4508
33.3291
32.0834
30.7719
29.4476
28.1585
26.944
25.8336
24.8451
23.9857
23.2535
22.6409
22.1368
21.7174
12153.6
11789.8
11335.5
10765.2
9987.55
9099.89
8150.72
7194.07
6283.49
5430.7
4615.37
3839.68
3126.11
2484.4
1911.97
1403.34
953.774
560.819
223.217
-58.0057
-281.921
-448.283
-557.964
-614.291
-625.526
-605.698
-570.327
-530.158
-489.558
-449.369
-410.999
-376.286
-346.728
-322.007
-300.874
-281.877
-263.674
-245.412
-226.76
-207.73
-188.464
-169.186
-149.931
-130.661
-111.387
-92.1475
-73.0846
-54.4482
-36.5852
-19.9274
-4.93459
8.00221
18.6533
26.9949
33.1879
37.514
40.3045
41.8938
42.5834
42.5728
42.0149
41.1199
39.9794
38.6603
37.2179
35.6962
34.084
32.4668
30.8758
29.3431
27.901
26.5763
25.3877
24.3436
23.4434
22.6784
22.0356
21.5002
21.0576
20.6865
-10530.6
-10051.5
-9401.51
-8581.31
-7559.17
-6514.59
-5578.41
-4781.71
-4102.41
-3522.16
-3024.85
-2596.68
-2226.33
-1905.95
-1632.38
-1403.8
-1218.15
-1073.18
-965.645
-890.768
-842.114
-811.861
-791.124
-770.859
-744.354
-710.465
-673.702
-639.565
-610.032
-584.131
-560.523
-538.178
-515.444
-490.695
-463.322
-433.02
-399.993
-365.004
-329.166
-293.61
-259.181
-226.286
-194.917
-164.801
-135.651
-107.37
-80.1272
-54.3346
-30.5388
-9.2939
8.95991
23.9766
35.7148
44.3136
50.0705
53.3855
54.7182
54.5746
53.4309
51.5852
49.2734
46.7137
44.0522
41.3852
38.778
36.2768
33.9127
31.7139
29.7034
27.8982
26.3086
24.9355
23.7698
22.7933
21.9806
21.3042
20.7381
20.261
19.8566
19.5113
689.978
645.279
560.245
448.072
350.889
280.623
218.299
137.743
34.8339
-66.7273
-144.072
-193.624
-220.333
-228.426
-221.91
-204.87
-181.104
-154.536
-129.114
-107.643
-91.4685
-81.7464
-80.2833
-88.6438
-107.317
-136.528
-176.448
-225.405
-278.303
-327.992
-368.218
-395.813
-409.518
-408.463
-391.766
-360.454
-317.287
-265.868
-210.694
-155.991
-104.586
-57.9465
-16.6422
19.2224
49.702
74.8622
94.747
109.43
119.103
124.156
125.218
123.092
118.599
112.464
105.282
97.5348
89.62
81.8164
74.2908
67.2861
60.8588
55.0175
49.7494
45.027
40.8182
37.0895
33.8162
30.9744
28.5394
26.4855
24.782
23.3908
22.2669
21.3599
20.6194
20.0004
19.4683
19.0009
18.586
18.2256
879.481
919.632
950.908
957.342
941.098
902.577
847.408
782.457
713.493
646.591
588.656
545.919
523.502
522.105
531.099
526.458
482.934
394.153
279.21
163.368
61.4137
-22.8835
-90.737
-145.375
-189.662
-225.33
-254.197
-278.331
-298.819
-315.414
-327.586
-335.055
-337.112
-332.789
-321.285
-302.179
-275.764
-243.339
-206.342
-166.087
-124.023
-81.7097
-40.6873
-2.36397
32.0683
61.6914
85.8973
104.415
117.332
125.083
128.346
127.9
124.504
118.859
111.608
103.346
94.6115
85.8485
77.3819
69.4234
62.0896
55.4336
49.4682
44.1841
39.5595
35.509
32.0509
29.1374
26.7187
24.7436
23.1547
21.8896
20.8818
20.0644
19.3762
18.7681
18.2091
17.6861
17.2003
16.7783
-5593.1
-5455.73
-5306.01
-5155.29
-5020.9
-4869.3
-4659.72
-4371.2
-4014.2
-3621.89
-3231.26
-2867.82
-2535.64
-2216.79
-1886.52
-1537.94
-1192.49
-894.713
-675.676
-537.589
-464.227
-436.042
-436.464
-452.875
-475.983
-499.696
-521.328
-540.607
-557.759
-572.403
-583.787
-590.941
-592.97
-589.318
-578.966
-561.184
-536.524
-505.095
-467.141
-423.362
-374.841
-322.924
-269.202
-215.384
-163.184
-114.243
-70.0167
-31.6623
0.0847189
24.9976
43.3602
55.872
63.4966
67.2862
68.2264
67.1446
64.6827
61.316
57.3942
53.1799
48.8773
44.6464
40.6111
36.8617
33.4584
30.4888
27.9068
25.709
23.8733
22.361
21.1258
20.1161
19.2774
18.5539
17.8944
17.2605
16.6344
16.0205
15.4405
14.9515
10226.7
9934.31
9568.53
9061.59
8270.72
7288
6208.61
5140.57
4162.02
3306.34
2577.63
1964.25
1445.33
1001.86
633.743
359.31
185.434
88.2605
27.9862
-22.7893
-70.7623
-110.07
-132.047
-133.591
-116.051
-84.926
-49.0636
-17.3188
4.63318
15.0379
14.9494
6.64157
-7.40883
-24.4826
-42.4109
-59.672
-74.7588
-86.3488
-93.6196
-96.2149
-94.1988
-87.9759
-78.2077
-65.7243
-51.4431
-36.2977
-21.1743
-6.85256
6.04816
17.111
26.1274
33.0782
38.0868
41.3629
43.1534
43.709
43.2666
42.0431
40.2365
38.0284
35.584
33.0514
30.5577
28.206
26.0595
24.1728
22.5522
21.1819
20.0305
19.0584
18.2254
17.4945
16.8295
16.1945
15.5569
14.8976
14.2207
13.5541
12.9455
12.4729
-591.541
-209.309
256.904
643.982
1009.81
1386.32
1815.06
2263.82
2677.04
3009.66
3235.16
3346.64
3354.71
3281.29
3151.37
2984.8
2794.17
2589.96
2382.36
2178.83
1985.29
1807.39
1647.49
1504.63
1372.09
1239.15
1098.3
949.059
798.013
654.769
526.403
416.168
324.596
250.569
191.955
146.195
110.954
83.6496
62.3908
45.7919
32.9384
23.2435
16.3137
11.839
9.5196
9.02194
9.96321
11.9233
14.4792
17.2477
19.919
22.2718
24.168
25.5379
26.3615
26.6539
26.4562
25.8298
24.8532
23.6184
22.2269
20.783
19.386
18.1117
17.0357
16.1783
15.5391
15.0846
14.7568
14.4893
14.221
13.9046
13.5087
13.0173
12.4302
11.7681
11.0749
10.4135
9.86107
9.50528
-2016.16
-1731.17
-1301.54
-788.391
-215.612
320.201
802.293
1224.87
1585.67
1885.02
2123.87
2302
2418.13
2471.12
2457.5
2369.6
2201.63
1963.6
1686
1406.16
1152.61
941.965
782.288
673.489
609.269
578.225
562.468
543.879
511.519
464.563
408.292
349.591
293.35
241.798
195.46
154.37
118.188
87.0316
60.9935
40.1762
24.4962
13.2916
6.03966
2.03587
0.492138
0.678613
1.9867
3.94443
6.20252
8.5098
10.689
12.6167
14.2091
15.4121
16.1964
16.5554
16.5053
16.085
15.3553
14.3973
13.306
12.184
11.1375
10.2696
9.64743
9.30796
9.24648
9.41353
9.72304
10.0689
10.3458
10.4687
10.3851
10.0804
9.57778
8.93492
8.23635
7.58221
7.07389
6.83595
9284.98
9021.47
8739.49
8420.36
7966.46
7414.83
6753.58
5989.72
5145.37
4234.84
3267.53
2253.27
1207.82
169.784
-772.571
-1504.84
-1978.13
-2248.93
-2399.95
-2463.93
-2440.2
-2335.06
-2165.97
-1952.62
-1715.63
-1474.36
-1244.09
-1034.83
-851.481
-694.597
-561.34
-448.272
-352.495
-272.142
-206.225
-154.029
-114.412
-85.5412
-65.15
-51.0305
-41.2323
-33.6259
-27.495
-22.3161
-17.7285
-13.5447
-9.66605
-6.04171
-2.6517
0.498704
3.38202
5.9536
8.15981
9.94798
11.2763
12.1228
12.4912
12.4144
11.9556
11.1959
10.2782
9.25932
8.2671
7.42862
6.84065
6.56236
6.60264
6.9148
7.40208
7.937
8.39144
8.66568
8.70413
8.49556
8.06565
7.47113
6.79301
6.13892
5.59417
5.39396
-15281.4
-14667.4
-13898.9
-13049.2
-12064.7
-11011.2
-9920.64
-8841.93
-7821.12
-6887.94
-6053.81
-5317.1
-4669.77
-4099.63
-3587.53
-3115.1
-2679.32
-2293.81
-1972.22
-1713.43
-1503.95
-1328.1
-1173.89
-1033.29
-902.778
-783.349
-677.442
-586.843
-511.91
-451.022
-400.422
-355.302
-311.826
-268.586
-226.617
-188.167
-155.033
-127.675
-105.514
-87.4972
-72.4114
-59.6922
-48.6286
-38.9409
-30.4128
-22.8854
-16.2419
-10.3877
-5.24542
-0.754182
3.12927
6.43093
9.16539
11.3382
12.9485
14.0051
14.5294
14.5564
14.1313
13.33
12.2156
10.9617
9.67476
8.45235
7.39706
6.59813
6.11869
5.98418
6.17419
6.61883
7.2027
7.78182
8.21424
8.39522
8.28018
7.89133
7.29676
6.63083
5.95017
5.66906
-3328.07
-3384.15
-3506.4
-3687.38
-3884.75
-4028.09
-4083.59
-4050.22
-3940.9
-3770.42
-3550.99
-3290.81
-2996.83
-2677.39
-2342.23
-2001.46
-1666.76
-1352.3
-1071.93
-835.368
-640.63
-483.072
-355.636
-255.675
-183.502
-139.443
-121.144
-122.82
-136.742
-155.185
-171.866
-182.773
-186.409
-183.44
-176.069
-166.025
-154.441
-142.075
-129.139
-115.678
-102.086
-88.8416
-76.2177
-64.4744
-53.7167
-43.8846
-34.9709
-26.9534
-19.7927
-13.4471
-7.87959
-3.06109
1.02695
4.39708
7.06523
9.04906
10.3737
11.0769
11.2121
10.8495
10.0781
9.00652
7.75256
6.44137
5.20098
4.15382
3.40598
3.03536
3.07997
3.52808
4.31325
5.31764
6.38506
7.34512
8.04474
8.39005
8.34963
8.02834
7.4533
7.14031
11077.8
10987.8
10918.2
10839.6
10701.3
10495.9
10210
9836.34
9372.06
8817.41
8180.68
7482.77
6754.11
6028.64
5337.2
4698.04
4114.86
3583.39
3096.14
2641.21
2206
1789.26
1402.08
1056.62
761.011
521.015
336.999
200.411
98.6142
23.1599
-28.6816
-58.4648
-70.1495
-70.0444
-64.3783
-58.3025
-54.5244
-53.2483
-53.541
-54.3201
-54.7804
-54.4673
-53.1917
-50.864
-47.5784
-43.592
-39.0901
-34.2501
-29.2483
-24.2469
-19.3897
-14.8008
-10.5834
-6.8195
-3.57213
-0.873821
1.25657
2.82473
3.85792
4.40359
4.52861
4.31782
3.87154
3.30075
2.7219
2.25036
1.99218
2.03427
2.433
3.20186
4.29924
5.62163
7.01091
8.28244
9.26901
9.86771
10.0503
9.90728
9.49375
9.19629
18.7782
17.7289
16.8206
15.9972
15.2153
14.4461
13.6782
12.9092
12.1384
11.365
10.5906
9.82194
9.07348
8.36542
7.71722
7.14056
6.63752
6.19997
5.81513
5.46966
5.15205
4.85323
4.56645
4.28748
4.01546
3.75323
3.50626
3.28012
3.07752
2.89696
2.7336
2.5814
2.43504
2.29152
2.15009
2.01139
1.87667
1.74722
1.62397
1.50772
1.39872
1.29662
1.20108
1.11175
1.02832
0.950446
0.877787
0.810008
0.746804
0.687891
0.632981
0.581799
0.534105
0.489682
0.448314
0.409778
0.373879
0.340455
0.309348
0.280388
0.253419
0.228318
0.204979
0.18329
0.163128
0.144387
0.126982
0.110817
0.0957788
0.0817608
0.0686945
0.0565356
0.0452271
0.0346915
0.024865
0.0157216
0.00725241
-0.00057291
-0.00781097
-0.0145142
-0.0207117
-0.0264272
-0.0317047
-0.0366024
-0.0411596
-0.0453816
-0.0492631
-0.0528185
-0.0560821
-0.05908
-0.061814
-0.0642788
-0.066489
-0.0684799
-0.0702819
-0.0718993
-0.0733217
-0.0745497
-0.0756046
-0.0765104
-0.0772747
-0.0778931
-0.0783719
-0.0787368
-0.0790152
-0.079212
-0.0793092
-0.0792928
-0.0791767
-0.0789969
-0.0787833
-0.0785412
-0.0782608
-0.0779404
-0.0775946
-0.0772382
-0.0768679
-0.0764654
-0.0760204
-0.0755453
-0.0750647
-0.0745899
-0.074105
-0.0735809
-0.0730009
-0.0723721
-0.0717123
-0.0710299
-0.070319
-0.069571
-0.0687881
-0.0679805
-0.0671523
-0.0662937
-0.065391
-0.0644453
-0.0634811
-0.0625318
-0.0616167
-0.0607286
-0.059841
-0.058928
-0.0579788
-0.0569975
-0.0559951
-0.0549842
-0.0539795
-0.0529974
-0.0520493
-0.0511307
-0.0502186
-0.0492838
-0.0483105
-0.0473087
-0.0463078
-0.0453356
-0.0443996
-0.0434827
-0.0425571
-0.0416009
-0.0406074
-0.0395812
-0.0385271
-0.0374436
-0.0363237
-0.035161
-0.033954
-0.0327071
-0.0314282
-0.0301276
-0.0288174
-0.027511
-0.0262207
-0.0249556
-0.0237216
-0.0225255
-0.0213782
-0.0202924
-0.019275
-0.0183187
-0.0173993
-0.0164849
-0.0155508
-0.0145908
-0.0136183
-0.0126547
-0.0117152
-0.0108011
-0.00990376
-0.00901529
-0.00813588
-0.00727257
-0.00643042
-0.00560421
-0.00477857
-0.00393645
-0.00307044
-0.00218607
-0.00129871
-0.000426009
20.3076
19.2581
18.3068
17.4086
16.5371
15.6773
14.8249
13.9819
13.1515
12.335
11.5328
10.7464
9.98312
9.25642
8.58281
7.97519
7.43857
6.96971
6.55593
6.18318
5.83713
5.5057
5.18044
4.85765
4.53921
4.23197
3.94523
3.68675
3.45923
3.25956
3.0809
2.91567
2.75726
2.60236
2.45021
2.30149
2.15734
2.01881
1.88654
1.76184
1.64514
1.53533
1.43208
1.33516
1.24429
1.15916
1.07942
1.00476
0.934899
0.869539
0.808385
0.75116
0.697625
0.647555
0.600715
0.556882
0.515869
0.477513
0.44164
0.408068
0.37664
0.347242
0.319763
0.294076
0.270053
0.247589
0.226591
0.206951
0.188544
0.171274
0.155083
0.13992
0.125707
0.112352
0.0997959
0.0880242
0.0770262
0.0667588
0.057158
0.0481744