/*--------------------------------*- C++ -*----------------------------------*\
| =========                 |                                                 |
| \\      /  F ield         | OpenFOAM: The Open Source CFD Toolbox           |
|  \\    /   O peration     | Version:  2012                                  |
|   \\  /    A nd           | Website:  www.openfoam.com                      |
|    \\/     M anipulation  |                                                 |
\*---------------------------------------------------------------------------*/
FoamFile
{
    version     2.0;
    format      ascii;
    class       surfaceScalarField;
    location    "0.04";
    object      phi;
}
// * * * * * * * * * * * * * * * * * * * * * * * * * * * * * * * * * * * * * //

dimensions      [0 3 -1 0 0 0 0];
oriented        oriented;


internalField   nonuniform List<scalar> 
84340
(
-0.00022862
0.000408128
-0.000179508
-0.000455608
0.000698151
-0.000471163
-0.000250803
0.000579452
-0.000784257
0.000474352
0.000432395
-0.00115755
0.00154194
0.000364799
-0.00143238
0.00274065
0.000260119
-0.00145883
0.00392682
3.79445e-05
-0.00122411
0.005039
-0.000303146
-0.000809037
0.00604472
-0.000674642
-0.000331075
0.00691519
-0.000944604
7.413e-05
0.00762826
-0.00103096
0.000317903
0.00817199
-0.000954714
0.000410976
0.00854404
-0.000797321
0.000425274
0.00873499
-0.000611993
0.000421048
0.00874058
-0.000421725
0.000416135
0.00857161
-0.000237303
0.000406273
0.00824943
-5.81207e-05
0.000380297
0.00779346
0.000113627
0.000342343
0.0072149
0.000268438
0.000310125
0.00653512
0.000388391
0.000291384
0.00579219
0.00045604
0.000286895
0.00503173
0.000472786
0.00028767
0.00428999
0.000451734
0.000290013
0.00358479
0.000405725
0.000299473
0.00291454
0.000345273
0.000324978
0.00226941
0.000278274
0.000366857
0.00164705
0.00021043
0.000411927
0.0010578
0.000145083
0.00044417
0.00051686
8.4831e-05
0.000456108
3.57623e-05
3.15009e-05
0.000449597
-0.000378971
-1.38464e-05
0.000428579
-0.00072353
-5.11593e-05
0.000395719
-0.000997821
-8.04497e-05
0.00035474
-0.00120648
-0.000102969
0.000311628
-0.00135821
-0.000120389
0.000272116
-0.00146357
-0.000134078
0.000239438
-0.00153319
-0.000144366
0.000213993
-0.00157447
-0.000153409
0.000194686
-0.00159313
-0.000161444
0.000180101
-0.00159381
-0.000168819
0.000169503
-0.00158026
-0.000175836
0.000162283
-0.00155539
-0.0001828
0.000157935
-0.00152178
-0.000190077
0.000156459
-0.00148136
-0.000198101
0.000157683
-0.00143556
-0.000207387
0.000161591
-0.00138537
-0.000218493
0.000168298
-0.00133126
-0.000231968
0.000177859
-0.00127333
-0.000248265
0.000190342
-0.00121142
-0.000267663
0.000205752
-0.00114523
-0.000290206
0.000224009
-0.00107447
-0.000315688
0.000244936
-0.000999044
-0.000343677
0.000268245
-0.000919016
-0.000373579
0.000293551
-0.000834691
-0.000404706
0.000320381
-0.000746547
-0.000436332
0.000348189
-0.000655169
-0.000467729
0.00037635
-0.000561189
-0.00049818
0.000404199
-0.000465211
-0.000526989
0.000431012
-0.000367749
-0.000553487
0.000456024
-0.000269148
-0.000577031
0.00047843
-0.000169527
-0.000597023
0.000497403
-6.87242e-05
-0.000612928
0.000512126
3.37596e-05
-0.000624303
0.000521819
0.000138789
-0.000630828
0.0005258
0.000247615
-0.000632357
0.000523531
0.000361894
-0.000628974
0.000514695
0.000483617
-0.000621051
0.000499329
0.000615083
-0.000609316
0.00047785
0.000758675
-0.000594908
0.000451315
0.000916617
-0.000579427
0.000421486
0.00109056
-0.000564938
0.000390999
0.001281
-0.000553898
0.000363452
0.00148684
-0.000548979
0.000343143
0.00170498
-0.000552719
0.000334579
0.00193025
-0.000567028
0.000341758
0.00215554
-0.00059274
0.000367449
0.00237208
-0.00062885
0.000412304
0.00257082
-0.000673996
0.000475261
0.00273998
-0.000720491
0.000551336
-0.000775541
0.000635201
0.00288032
0.000335924
7.22038e-05
0.000753811
0.000280264
0.000964625
0.000368638
0.00101788
0.000379135
0.0010277
0.000354986
0.00101379
0.000274027
0.000910255
0.000141477
0.000619692
-1.25832e-05
9.33297e-05
-0.00014828
-0.000613084
-0.000238191
-0.00136203
-0.000282016
-0.00201959
-0.000297162
-0.00251677
-0.000300136
-0.00283191
-0.000296857
-0.00296487
-0.000288765
-0.0029315
-0.000270668
-0.00275372
-0.000235899
-0.00246404
-0.000176053
-0.00210712
-8.84863e-05
-0.00173734
1.86114e-05
-0.00141295
0.000131652
-0.00117707
0.000236901
-0.00104745
0.00032211
-0.00101869
0.000376967
-0.00107202
0.000398609
-0.00118205
0.0003883
-0.00132066
0.000349043
-0.00145799
0.000282408
-0.0015699
0.000196747
-0.00164277
0.00010437
-0.0016741
1.74749e-05
-0.00166972
-5.55307e-05
-0.00163876
-0.000111416
-0.00159074
-0.000150989
-0.00153382
-0.000177313
-0.00147386
-0.000194035
-0.00141383
-0.000204391
-0.00135636
-0.000210877
-0.00130267
-0.000215136
-0.00125327
-0.000218219
-0.00120826
-0.000220848
-0.00116741
-0.000223646
-0.00113022
-0.000227275
-0.00109582
-0.000232496
-0.00106304
-0.000240166
-0.00103036
-0.000251175
-0.000995993
-0.000266335
-0.000958024
-0.000286233
-0.000914604
-0.000311082
-0.000864174
-0.000340636
-0.000805663
-0.0003742
-0.000738587
-0.000410753
-0.00066305
-0.000449116
-0.000579649
-0.000488107
-0.000489342
-0.00052664
-0.000393306
-0.000563766
-0.000292812
-0.000598673
-0.000189129
-0.000630673
-8.34256e-05
-0.00065919
2.32928e-05
-0.00068375
0.000130264
-0.000703995
0.00023703
-0.000719694
0.000343489
-0.000730762
0.000449943
-0.000737283
0.000557122
-0.000739536
0.000666164
-0.000738016
0.00077856
-0.000733448
0.000896035
-0.00072679
0.00102034
-0.000719216
0.00115299
-0.000712069
0.00129483
-0.000706786
0.00144571
-0.000704774
0.00160397
-0.000707236
0.00176621
-0.000714958
0.00192728
-0.000728097
0.00208053
-0.000745991
0.0022188
-0.000767127
0.002334
-0.000789196
0.00242275
-0.000809239
-0.000827268
0.00247448
0.000197113
-0.000124909
0.000722913
-0.000245535
0.00136839
-0.000276841
0.00195866
-0.000211137
0.00240614
-9.24926e-05
0.00265808
2.20874e-05
0.00269051
0.000109055
0.00252454
0.000153384
0.00223182
0.000144437
0.00190072
9.29106e-05
0.00158994
2.87644e-05
0.00131743
-2.46538e-05
0.00109102
-7.37208e-05
0.000912882
-0.00011872
0.000782059
-0.000157942
0.000693974
-0.000182583
0.000643644
-0.000185569
0.000617351
-0.00014976
0.000598016
-6.91511e-05
0.000564196
5.24306e-05
0.000494482
0.000201366
0.000374403
0.000356981
0.000200835
0.000495679
-1.70801e-05
0.000594883
-0.000256313
0.000637842
-0.00048331
0.000615296
-0.0006625
0.000528233
-0.000768812
0.00038872
-0.000792263
0.000220198
-0.000742293
5.43994e-05
-0.000643189
-8.16283e-05
-0.000524991
-0.000173729
-0.000414221
-0.000222185
-0.000328068
-0.000237142
-0.000273666
-0.000231715
-0.00025061
-0.000217092
-0.000254257
-0.000200744
-0.00027844
-0.000186694
-0.000317095
-0.000176481
-0.000365046
-0.000170268
-0.000418136
-0.000167758
-0.000472989
-0.000168793
-0.000526637
-0.000173628
-0.000576198
-0.000182934
-0.000618716
-0.000197648
-0.000651193
-0.000218698
-0.000670811
-0.000246718
-0.000675251
-0.000281793
-0.000662996
-0.000323338
-0.000633501
-0.000370131
-0.000587193
-0.000420508
-0.000525304
-0.000472641
-0.000449627
-0.000524793
-0.000362253
-0.000575481
-0.000265371
-0.000623521
-0.000161133
-0.000668003
-5.1572e-05
-0.000708234
6.14312e-05
-0.000743677
0.00017616
-0.000773919
0.000291069
-0.000798658
0.000404778
-0.000817704
0.000516081
-0.000830997
0.000623961
-0.000838642
0.000727618
-0.00084094
0.000826504
-0.000838422
0.000920358
-0.00083187
0.00100923
-0.000822318
0.00109346
-0.000811022
0.00117363
-0.000799385
0.0012504
-0.000788844
0.00132434
-0.000780724
0.00139563
-0.000776067
0.00146388
-0.000775479
0.00152793
-0.00077901
0.00158593
-0.0007861
0.00163555
-0.000795608
0.00167437
-0.000805944
0.00170044
-0.000815265
0.0017132
-0.000822006
-0.000825122
0.00171106
-0.000510476
0.000385566
-0.00143917
0.000683163
-0.00246868
0.000752666
-0.00349756
0.000817743
-0.00450275
0.000912698
-0.00550035
0.00101968
-0.00641418
0.00102289
-0.00707599
0.00081519
-0.00735154
0.000419991
-0.0072279
-3.07328e-05
-0.006818
-0.000381128
-0.00626637
-0.000576287
-0.00566921
-0.000670882
-0.00506468
-0.000723248
-0.00444178
-0.000780844
-0.00379373
-0.000830636
-0.00313051
-0.000848789
-0.00245804
-0.000822224
-0.00178228
-0.000744918
-0.00110517
-0.000624679
-0.00043429
-0.00046951
0.00021403
-0.000291339
0.000815831
-0.000106123
0.00134304
6.76689e-05
0.00176888
0.000212009
0.00206933
0.000314847
0.00222499
0.000372573
0.00222753
0.000386174
0.00208327
0.00036446
0.00182098
0.000316693
0.00148697
0.000252378
0.00112669
0.000186553
0.000775319
0.000129184
0.000454029
8.41477e-05
0.000172496
4.98172e-05
-6.79116e-05
2.33164e-05
-0.000269488
8.32016e-07
-0.000436631
-1.9551e-05
-0.000574031
-3.90813e-05
-0.000685383
-5.89159e-05
-0.000772953
-8.01871e-05
-0.000837764
-0.000103982
-0.000880091
-0.0001313
-0.000900009
-0.000163017
-0.00089783
-0.000199827
-0.00087439
-0.000242139
-0.000831152
-0.000289955
-0.000770172
-0.000342773
-0.000693936
-0.000399574
-0.000605122
-0.000458945
-0.00050635
-0.00051928
-0.000399993
-0.000578997
-0.000288095
-0.000636692
-0.000172369
-0.000691207
-5.42656e-05
-0.000741624
6.49591e-05
-0.000787228
0.000184177
-0.000827452
0.000302337
-0.000861836
0.000418425
-0.000890006
0.000531421
-0.000911655
0.00064027
-0.000926552
0.000743843
-0.00093457
0.000840929
-0.000935729
0.000930246
-0.000930258
0.0010105
-0.000918673
0.00108046
-0.000901832
0.00113913
-0.00088099
0.00118589
-0.000857783
0.00122067
-0.000834164
0.00124406
-0.000812235
0.00125735
-0.000794008
0.00126239
-0.000781114
0.00126145
-0.000774533
0.00125686
-0.000774423
0.00125088
-0.000780122
0.0012456
-0.00079032
0.00124304
-0.000803384
0.00124554
-0.000817765
0.00125579
-0.00083226
-0.000847778
0.00127845
0.000865869
-0.000480302
0.00215925
-0.000610218
0.00335261
-0.000440691
0.0044003
-0.000229949
0.00534099
-2.79961e-05
0.0061638
0.000196871
0.00678988
0.000396813
0.00708209
0.000522973
0.00688148
0.000620609
0.00602727
0.00082347
0.00450597
0.00114018
0.00259756
0.00133212
0.000748256
0.00117842
-0.000688904
0.000713912
-0.00164966
0.000179913
-0.00227836
-0.000201937
-0.00275789
-0.000369256
-0.00318367
-0.000396446
-0.00356521
-0.000363382
-0.00387902
-0.000310868
-0.00409551
-0.000253013
-0.00419379
-0.000193064
-0.00416598
-0.000133929
-0.00401903
-7.92861e-05
-0.00377489
-3.21242e-05
-0.00346719
7.1471e-06
-0.0031349
4.0284e-05
-0.00281686
6.81272e-05
-0.00254096
8.85572e-05
-0.0023171
9.28405e-05
-0.00214928
8.45506e-05
-0.00202725
6.45262e-05
-0.0019354
3.73398e-05
-0.00186102
9.76132e-06
-0.00179614
-1.50598e-05
-0.00173903
-3.37904e-05
-0.00168842
-4.97794e-05
-0.00164384
-6.41362e-05
-0.00160215
-8.07684e-05
-0.00155886
-0.000102201
-0.00150984
-0.000129208
-0.00145137
-0.000162457
-0.00138058
-0.000202088
-0.00129586
-0.00024774
-0.00119699
-0.000298695
-0.0010851
-0.000354025
-0.000962372
-0.000412685
-0.00083157
-0.000473575
-0.000695606
-0.000535538
-0.00055715
-0.000597401
-0.000418411
-0.000658019
-0.000281079
-0.000716329
-0.000146375
-0.000771395
-1.51524e-05
-0.000822429
0.000112011
-0.000868787
0.000234737
-0.000909955
0.000352797
-0.000945512
0.000466053
-0.000975092
0.000574395
-0.000998348
0.000677661
-0.00101492
0.000775555
-0.00102445
0.000867566
-0.00102658
0.000952917
-0.00102108
0.00103055
-0.00100789
0.00109915
-0.00098728
0.0011573
-0.000959979
0.0012036
-0.000927285
0.00123695
-0.000891135
0.00125686
-0.00085408
0.00126375
-0.000819123
0.00125913
-0.000789383
0.00124564
-0.000767628
0.00122689
-0.000755779
0.001207
-0.000754533
0.00119015
-0.000763281
0.00118019
-0.000780354
0.00118033
-0.000803528
0.00119319
-0.000830626
0.00122107
-0.000860141
-0.000891765
0.00126506
-0.000119634
-0.000360669
0.000459472
-0.00118932
0.00173644
-0.00171766
0.00304741
-0.00154091
0.00392366
-0.00090425
0.00428325
-0.000162719
0.00419113
0.000488935
0.00366493
0.00104917
0.00266947
0.00161607
0.00129219
0.00220075
-0.000216834
0.0026492
-0.00155647
0.00267176
-0.00253159
0.00215353
-0.00312922
0.00131155
-0.00345134
0.000502034
-0.00361687
-3.6413e-05
-0.00370013
-0.000285997
-0.00374862
-0.000347948
-0.00376855
-0.000343457
-0.00376448
-0.000314936
-0.00374458
-0.000272913
-0.00370785
-0.000229793
-0.00365082
-0.000190962
-0.00357019
-0.000159919
-0.00346401
-0.000138304
-0.00333075
-0.000126106
-0.00316887
-0.000121602
-0.00297987
-0.000120875
-0.00277288
-0.000118426
-0.0025693
-0.000110747
-0.00238705
-9.7692e-05
-0.00223846
-8.4064e-05
-0.00212351
-7.76129e-05
-0.00203122
-8.25332e-05
-0.00195108
-9.5197e-05
-0.00187577
-0.000109102
-0.00180213
-0.000123417
-0.00172522
-0.000141044
-0.00164199
-0.000164007
-0.00155158
-0.00019261
-0.00145405
-0.000226732
-0.0013501
-0.000266408
-0.00124055
-0.000311635
-0.00112618
-0.000362115
-0.00100771
-0.000417166
-0.000885953
-0.000475778
-0.00076191
-0.000536728
-0.000636794
-0.000598691
-0.000511986
-0.000660346
-0.000388934
-0.000720454
-0.000269021
-0.000777932
-0.000153452
-0.000831898
-4.31546e-05
-0.000881693
6.12934e-05
-0.000926877
0.000159699
-0.000967193
0.000252245
-0.0010025
0.000339435
-0.0010327
0.000421989
-0.00105765
0.000500711
-0.00107707
0.000576342
-0.00109055
0.000649422
-0.00109753
0.000720178
-0.00109734
0.000788452
-0.00108935
0.000853676
-0.00107311
0.000914901
-0.0010485
0.000970876
-0.00101595
0.00102019
-0.000976598
0.00106147
-0.000932412
0.00109364
-0.00088625
0.00111623
-0.00084171
0.00112962
-0.000802781
0.00113526
-0.000773266
0.00113557
-0.000756086
0.0011337
-0.000752668
0.0011331
-0.000762675
0.00113694
-0.000784197
0.00114775
-0.000814336
0.00116711
-0.000849981
0.00119542
-0.00088846
-0.000927518
0.00123118
-0.000351592
-9.07667e-06
-0.00123168
-0.00030924
-0.00224909
-0.000700252
-0.00312038
-0.000669616
-0.00383411
-0.000190517
-0.00438186
0.000385026
-0.00472781
0.000834884
-0.00481764
0.001139
-0.00453576
0.00133419
-0.00375853
0.00142352
-0.00248548
0.00137615
-0.000998335
0.00118462
0.000255713
0.000899487
0.000972242
0.000595018
0.00114839
0.000325887
0.000990234
0.000121743
0.00071528
-1.10434e-05
0.000460877
-9.35448e-05
0.000266764
-0.000149345
0.000130946
-0.000179118
4.86909e-05
-0.000190658
1.11513e-05
-0.000192253
8.8543e-06
-0.000188665
2.96912e-05
-0.000180755
6.26301e-05
-0.000171243
0.000100395
-0.000163871
0.000140427
-0.000161635
0.000186309
-0.000166757
0.000243829
-0.000175945
0.000310001
-0.000176919
0.000366091
-0.000153782
0.000380383
-9.83553e-05
0.000320601
-1.78303e-05
0.000160009
7.80584e-05
-7.47365e-05
0.000139548
-0.000333156
0.000149318
-0.000567633
0.000111061
-0.000751981
4.3304e-05
-0.000879494
-3.64938e-05
-0.000956279
-0.000115825
-0.000990414
-0.000192598
-0.000989682
-0.00026714
-0.000960708
-0.00034061
-0.00090919
-0.000413633
-0.000840249
-0.000486107
-0.000758616
-0.000557411
-0.000668677
-0.000626667
-0.000574431
-0.000692937
-0.000479406
-0.00075537
-0.000386574
-0.000813286
-0.000298259
-0.000866247
-0.000216086
-0.000914071
-0.000140959
-0.00095682
-7.3089e-05
-0.000994747
-1.20767e-05
-0.0010282
4.29618e-05
-0.00105754
9.3238e-05
-0.00108298
0.000140123
-0.00110453
0.000184988
-0.00112194
0.000229073
-0.00113464
0.000273384
-0.00114184
0.000318639
-0.00114259
0.000365235
-0.00113595
0.00041325
-0.00112113
0.000462459
-0.00109771
0.000512369
-0.00106586
0.000562265
-0.00102649
0.000611276
-0.000981423
0.000658462
-0.000933437
0.000702936
-0.000886184
0.000744017
-0.000843862
0.000781383
-0.000810631
0.000815186
-0.000789889
0.000846085
-0.000783567
0.000875146
-0.000791737
0.000903656
-0.000812707
0.00093287
-0.000843551
0.000963754
-0.000880865
0.000996725
-0.00092143
-0.000962831
0.00103204
-5.89331e-05
4.98566e-05
-0.00067368
0.000305506
-0.00175295
0.000379021
-0.00273772
0.000315147
-0.00320777
0.000279534
-0.0030963
0.000273554
-0.00253941
0.000278003
-0.00168669
0.000286277
-0.000649997
0.000297501
0.000471171
0.00030235
0.00156453
0.000282782
0.00252344
0.000225711
0.00329218
0.000130756
0.00388083
6.36592e-06
0.00434309
-0.000136374
0.00474721
-0.000282381
0.00514746
-0.000411288
0.00555712
-0.000503208
0.00594599
-0.000538215
0.00629719
-0.000530318
0.00658513
-0.0004786
0.00677986
-0.000386978
0.006852
-0.000260809
0.0067732
-0.00010195
0.00652385
7.80997e-05
0.00609769
0.000262291
0.00551003
0.000426026
0.00480627
0.000537
0.00405707
0.00057326
0.00332811
0.000552039
0.00264761
0.000526722
0.00200649
0.000542756
0.0013895
0.000599162
0.000812166
0.000655394
0.000289226
0.000662489
-0.000156099
0.000594643
-0.000507099
0.00046206
-0.000754884
0.000291089
-0.000915893
0.000124516
-0.00101712
-1.46029e-05
-0.00106162
-0.000148092
-0.00105912
-0.000269642
-0.00102051
-0.00037922
-0.000956367
-0.000477773
-0.000876161
-0.000566313
-0.000787801
-0.000645771
-0.000697529
-0.000716939
-0.000610002
-0.000780464
-0.000528478
-0.000836894
-0.000455006
-0.000886758
-0.000390619
-0.000930633
-0.000335517
-0.000969173
-0.00028925
-0.00100309
-0.000250902
-0.00103309
-0.000219267
-0.00105984
-0.00019299
-0.00108382
-0.000170688
-0.00110528
-0.00015101
-0.00112421
-0.000132677
-0.00114027
-0.000114478
-0.00115284
-9.52662e-05
-0.00116105
-7.3946e-05
-0.00116391
-4.94757e-05
-0.00116042
-2.08858e-05
-0.00114972
1.26863e-05
-0.00113129
5.19432e-05
-0.00110512
9.73574e-05
-0.00107191
0.000149083
-0.00103315
0.000206861
-0.000991214
0.000269984
-0.000949307
0.000337141
-0.00091102
0.000406606
-0.000880096
0.000476387
-0.00085967
0.000544527
-0.000851707
0.000609444
-0.000856653
0.000670189
-0.000873452
0.000726564
-0.000899926
0.00077904
-0.000933341
0.000828642
-0.000971032
-0.00101124
0.000877056
-7.82232e-05
0.00012808
0.000122721
0.000104563
0.000438163
6.35788e-05
0.000643348
0.000109963
0.000729504
0.000193378
0.000731538
0.00027152
0.000664282
0.000345259
0.000508752
0.000441808
0.000244383
0.00056187
-0.000112959
0.000659692
-0.000518741
0.000688564
-0.000932898
0.000639869
-0.00133376
0.000531618
-0.00170601
0.000378613
-0.00204778
0.000205393
-0.0023843
5.41409e-05
-0.00272369
-7.18937e-05
-0.00308612
-0.000140777
-0.00346041
-0.000163926
-0.003838
-0.000152725
-0.00420083
-0.000115775
-0.00452906
-5.87466e-05
-0.00480513
1.52625e-05
-0.00501184
0.000104755
-0.00514013
0.000206394
-0.00519292
0.000315083
-0.00518539
0.000418491
-0.00514281
0.000494427
-0.00509249
0.000522939
-0.00504794
0.000507488
-0.00499626
0.00047504
-0.0049015
0.000448002
-0.0047271
0.000424753
-0.00445975
0.00038805
-0.00411996
0.000322692
-0.00375034
0.000225025
-0.00339118
0.000102897
-0.00307039
-2.96955e-05
-0.00276184
-0.000184034
-0.00244993
-0.000326518
-0.00214279
-0.000455228
-0.00184562
-0.000566809
-0.0015658
-0.000659046
-0.00131094
-0.000732631
-0.00108664
-0.000790608
-0.000895493
-0.000836921
-0.000737255
-0.000875178
-0.000609676
-0.000908043
-0.000509336
-0.000937234
-0.000432305
-0.000963789
-0.000374596
-0.000988342
-0.000332464
-0.0010113
-0.000302597
-0.00103295
-0.00028222
-0.00105347
-0.000269114
-0.00107295
-0.000261558
-0.00109137
-0.000258208
-0.00110863
-0.000257936
-0.00112448
-0.00025967
-0.00113854
-0.000262255
-0.00115025
-0.000264365
-0.00115894
-0.000264466
-0.00116381
-0.000260841
-0.00116404
-0.000251655
-0.0011589
-0.000235065
-0.00114788
-0.000209347
-0.00113084
-0.000173065
-0.00110819
-0.000125243
-0.00108097
-6.55773e-05
-0.00105088
5.29659e-06
-0.00102018
8.59374e-05
-0.00099166
0.000173859
-0.000968018
0.000265859
-0.00095167
0.000358439
-0.000944288
0.000448329
-0.000946544
0.000532974
-0.000958097
0.00061084
-0.000977792
0.000681492
-0.00100399
0.000745486
-0.00103503
-0.00106981
0.000804047
0.000500981
-0.000372902
0.00138656
-0.000781012
0.00229888
-0.000848741
0.00314142
-0.000732577
0.00387849
-0.000543692
0.00443694
-0.000286934
0.00473698
4.52179e-05
0.00475263
0.000426157
0.00456901
0.000745495
0.00438306
0.000845639
0.00439958
0.000672043
0.00467252
0.000366928
0.00508424
0.000119897
0.00547426
-1.13994e-05
0.00573653
-5.68836e-05
0.00583264
-4.19677e-05
0.0057519
8.8438e-06
0.0055216
8.95203e-05
0.00517818
0.000179495
0.00475867
0.000266794
0.00429731
0.000345579
0.00382469
0.000413871
0.00336896
0.000470999
0.0029562
0.000517516
0.00260835
0.000554244
0.00234134
0.000582092
0.00215838
0.000601445
0.00204109
0.000611718
0.00195231
0.000611719
0.00185954
0.00060026
0.00175874
0.000575843
0.0016701
0.000536642
0.00161333
0.000481519
0.00159052
0.000410859
0.00158732
0.000325896
0.00158434
0.000227999
0.00156846
0.000118782
0.00153765
1.11395e-06
0.00147392
-0.000120302
0.0013904
-0.000243007
0.00128283
-0.000347657
0.0011595
-0.000443479
0.00102559
-0.000525134
0.000886451
-0.000593491
0.000747255
-0.000651412
0.000612488
-0.000702155
0.000485649
-0.000748339
0.000369214
-0.000791608
0.000264746
-0.000832766
0.00017303
-0.000872074
9.41802e-05
-0.000909492
2.77138e-05
-0.000944838
-2.7365e-05
-0.000977876
-7.24551e-05
-0.00100838
-0.000109212
-0.00103619
-0.000139372
-0.00106121
-0.000164574
-0.00108343
-0.00018618
-0.00110287
-0.000205135
-0.00111958
-0.000221863
-0.00113352
-0.000236224
-0.00114458
-0.000247523
-0.00115251
-0.000254583
-0.00115698
-0.000255861
-0.00115762
-0.000249607
-0.00115413
-0.000234057
-0.00114639
-0.000207649
-0.0011346
-0.000169249
-0.00111937
-0.00011838
-0.00110175
-5.53571e-05
-0.0010832
1.84429e-05
-0.00106546
0.000100812
-0.00105039
0.000188789
-0.00103965
0.000279043
-0.00103454
0.00036834
-0.00103584
0.000453965
-0.00104372
0.000534014
-0.00105784
0.00060749
-0.00107747
0.000674218
-0.00110175
-0.00113028
0.000734694
-0.000188447
-0.000184454
-0.000607214
-0.000362246
-0.00109327
-0.000362681
-0.00153723
-0.000288623
-0.00195228
-0.000128635
-0.00240921
0.000169992
-0.00291892
0.000554924
-0.00338156
0.000888803
-0.00364314
0.00100707
-0.00360646
0.000808965
-0.00329572
0.000361307
-0.0028176
-0.000111192
-0.00228371
-0.000413996
-0.00177907
-0.000516038
-0.0013509
-0.000485053
-0.0010129
-0.000379975
-0.000752303
-0.000251751
-0.000545093
-0.00011769
-0.000372981
7.38289e-06
-0.000221079
0.000114891
-7.89596e-05
0.00020346
6.00916e-05
0.00027482
0.000199653
0.000331437
0.000341257
0.000375912
0.000485575
0.000409926
0.000632697
0.00043497
0.000781793
0.000452349
0.000930773
0.000462738
0.00107647
0.000466022
0.00121532
0.000461407
0.00134337
0.000447801
0.00145585
0.000424157
0.00154778
0.000389594
0.00161531
0.000343328
0.00165645
0.000284759
0.0016704
0.000214047
0.00165636
0.000132822
0.00161311
4.43634e-05
0.00153974
-4.69326e-05
0.00143208
-0.000135346
0.00130618
-0.000221762
0.0011654
-0.000302694
0.00101745
-0.00037718
0.000870465
-0.00044651
0.000730595
-0.000511542
0.000601404
-0.000572964
0.000484354
-0.000631289
0.000379642
-0.000686896
0.000286922
-0.000740045
0.000205701
-0.000790853
0.000135476
-0.000839267
7.57059e-05
-0.000885068
2.57483e-05
-0.000927918
-1.51964e-05
-0.000967437
-4.80988e-05
-0.00100329
-7.40703e-05
-0.00103524
-9.42928e-05
-0.00106321
-0.000109918
-0.00108725
-0.00012195
-0.00110755
-0.00013113
-0.00112434
-0.00013783
-0.00113788
-0.000141997
-0.00114835
-0.000143135
-0.00115585
-0.000140352
-0.00116041
-0.000132474
-0.00116201
-0.000118194
-0.00116067
-9.62677e-05
-0.00115652
-6.57135e-05
-0.00114992
-2.6e-05
-0.00114146
2.27987e-05
-0.001132
7.99485e-05
-0.00112261
0.000144032
-0.00111447
0.000213135
-0.00110875
0.000285064
-0.00110647
0.000357613
-0.00110839
0.000428833
-0.00111494
0.000497199
-0.00112621
0.000561685
-0.00114195
0.000621754
-0.00116182
-0.00118576
0.000677234
-0.00037646
0.000192006
-0.00104354
0.000304836
-0.00169603
0.000289812
-0.00222966
0.000244997
-0.00258
0.000221707
-0.00268709
0.000277085
-0.00250596
0.000373789
-0.00204922
0.000432067
-0.00142241
0.000380253
-0.000839445
0.000226005
-0.000509806
3.1667e-05
-0.000495595
-0.000125403
-0.000697752
-0.000211838
-0.00097727
-0.00023652
-0.00123802
-0.000224304
-0.00142454
-0.000193455
-0.00152173
-0.000154561
-0.00152542
-0.000113998
-0.0014448
-7.32409e-05
-0.00130065
-2.92542e-05
-0.00111861
2.14217e-05
-0.000921499
7.77065e-05
-0.00072193
0.000131868
-0.000523501
0.000177483
-0.000326276
0.000212701
-0.000131159
0.000239852
5.98714e-05
0.000261319
0.000244576
0.000278033
0.00042104
0.000289558
0.000587698
0.000294749
0.000743329
0.00029217
0.00088666
0.000280826
0.00101642
0.000259834
0.00113063
0.00022912
0.00122625
0.000189136
0.00129938
0.000140918
0.00134614
8.6061e-05
0.00136439
2.61126e-05
0.00135758
-4.01258e-05
0.00132197
-9.97347e-05
0.0012573
-0.000157088
0.00117067
-0.000216063
0.00106889
-0.000275408
0.000956991
-0.000334607
0.000839121
-0.000393673
0.000718913
-0.000452756
0.000599625
-0.000512001
0.00048421
-0.000571482
0.000375301
-0.000631136
0.000275149
-0.000690701
0.000185562
-0.000749679
0.000107843
-0.00080735
4.27567e-05
-0.000862832
-9.49608e-06
-0.000915185
-4.92641e-05
-0.00096352
-7.7398e-05
-0.00100711
-9.51605e-05
-0.00104544
-0.000104096
-0.00107831
-0.000105872
-0.00110577
-0.000102105
-0.00112811
-9.4194e-05
-0.00114579
-8.31884e-05
-0.00115935
-6.97011e-05
-0.00116933
-5.38923e-05
-0.00117622
-3.55188e-05
-0.00118038
-1.40424e-05
-0.00118214
1.12235e-05
-0.00118179
4.09496e-05
-0.00117965
7.5635e-05
-0.00117615
0.000115485
-0.00117185
0.000160333
-0.00116746
0.000209624
-0.00116376
0.000262467
-0.00116159
0.000317739
-0.00116174
0.000374205
-0.00116486
0.000430651
-0.00117139
0.000485976
-0.00118153
0.000539273
-0.00119525
0.000589856
-0.00121241
-0.00123306
0.000637157
0.000329179
-0.000137173
0.000682213
-4.81977e-05
0.000856763
0.000115262
0.000897375
0.000204385
0.000878256
0.000240827
0.00091135
0.000243991
0.001052
0.000233138
0.00126462
0.000219445
0.00144817
0.000196701
0.00151027
0.00016391
0.00142335
0.000118588
0.00122242
7.55258e-05
0.00095729
5.32914e-05
0.000649654
7.11162e-05
0.000292205
0.000133145
-0.000121513
0.000220263
-0.000563935
0.000287861
-0.000979842
0.000301909
-0.00131768
0.000264595
-0.00155181
0.000204879
-0.00168509
0.000154697
-0.00173156
0.000124175
-0.00170532
0.000105631
-0.00161609
8.82548e-05
-0.00147115
6.77655e-05
-0.00127834
4.70415e-05
-0.0010477
3.06788e-05
-0.000790671
2.10014e-05
-0.000523101
2.19886e-05
-0.000259597
3.12443e-05
-9.63785e-06
4.22105e-05
0.00022022
5.09675e-05
0.000425515
5.45392e-05
0.000603247
5.13875e-05
0.00075055
4.18333e-05
0.000867989
2.34792e-05
0.000954453
-4.03193e-07
0.00100941
-2.88454e-05
0.00103114
-6.18538e-05
0.00102884
-9.74336e-05
0.00100729
-0.000135543
0.000967427
-0.000176198
0.000911234
-0.000219214
0.00084122
-0.000264593
0.000759947
-0.0003124
0.000669983
-0.000362792
0.00057402
-0.000416039
0.00047497
-0.000472431
0.000375967
-0.000532133
0.000280268
-0.000595002
0.000191041
-0.000660452
0.000111115
-0.000727424
4.27518e-05
-0.000794469
-1.25243e-05
-0.000859908
-5.40155e-05
-0.000922028
-8.18569e-05
-0.000979264
-9.69435e-05
-0.00103036
-0.000100784
-0.00107447
-9.52993e-05
-0.00111126
-8.25869e-05
-0.00114082
-6.4681e-05
-0.0011637
-4.33399e-05
-0.00118069
-1.98925e-05
-0.00119278
4.83306e-06
-0.00120094
3.04944e-05
-0.00120604
5.71472e-05
-0.0012088
8.51146e-05
-0.00120976
0.000114844
-0.00120938
0.000146781
-0.00120809
0.000181252
-0.00120632
0.000218402
-0.00120461
0.00025815
-0.00120351
0.000300184
-0.00120363
0.000343983
-0.00120554
0.000388869
-0.00120974
0.000434072
-0.00121659
0.000478802
-0.00122626
0.000522324
-0.00123877
0.000563997
-0.00125408
-0.00127228
0.000603209
-0.000377778
0.000240605
-0.000846741
0.000420765
-0.00109088
0.000359404
-0.00113068
0.000244186
-0.00105671
0.000166856
-0.000910969
9.82462e-05
-0.000709721
3.18899e-05
-0.000463949
-2.63265e-05
-0.000194881
-7.23676e-05
7.53678e-05
-0.000106339
0.000329824
-0.000135869
0.000572268
-0.000166917
0.000821027
-0.000195468
0.00109295
-0.000200809
0.0013828
-0.000156707
0.00166385
-6.07812e-05
0.00189518
5.6528e-05
0.00204145
0.000155642
0.00209049
0.000215557
0.00205442
0.000240942
0.00196174
0.000247378
0.00184189
0.000244029
0.00171475
0.000232767
0.00158588
0.00021713
0.00147215
0.000181499
0.00138638
0.000132805
0.00133526
8.18034e-05
0.00133062
2.56395e-05
0.00136321
-1.05977e-05
0.00142488
-3.04262e-05
0.00150457
-3.74843e-05
0.00159194
-3.64023e-05
0.00167834
-3.18636e-05
0.00175711
-2.73829e-05
0.00182405
-2.51026e-05
0.00187336
-2.58306e-05
0.00190225
-2.92987e-05
0.00190855
-3.51443e-05
0.0018912
-4.44968e-05
0.00185028
-5.65201e-05
0.00178642
-7.16779e-05
0.00170094
-9.07215e-05
0.00159604
-0.000114309
0.00147461
-0.000143164
0.00133997
-0.000177758
0.00119571
-0.000218534
0.00104566
-0.000265996
0.00089388
-0.000320646
0.000744483
-0.000382736
0.000601545
-0.000452064
0.000468864
-0.000527771
0.000349759
-0.000608319
0.000246895
-0.000691604
0.00016213
-0.000775144
9.63988e-05
-0.000856297
4.96431e-05
-0.000932508
2.082e-05
-0.00100153
8.00968e-06
-0.00106166
8.62397e-06
-0.00111187
1.96807e-05
-0.00115188
3.81197e-05
-0.00118213
6.11237e-05
-0.0012037
8.6399e-05
-0.00121806
0.000112347
-0.00122689
0.000138099
-0.00123179
0.000163414
-0.00123411
0.0001885
-0.00123484
0.000213806
-0.00123469
0.000239841
-0.00123412
0.000267048
-0.00123353
0.000295726
-0.00123329
0.000325985
-0.00123377
0.00035774
-0.00123538
0.00039072
-0.00123852
0.000424503
-0.00124353
0.000458565
-0.00125065
0.000492344
-0.00126004
0.000525298
-0.00127173
0.000556927
-0.00128571
-0.00130203
0.000586681
-0.000176125
0.00041673
-0.000528298
0.000772938
-0.000983055
0.000814162
-0.00149618
0.000757309
-0.00201286
0.00068354
-0.00250455
0.000589932
-0.00296552
0.000492863
-0.00340268
0.000410835
-0.00382902
0.000353968
-0.00425571
0.000320357
-0.00468995
0.000298371
-0.00513035
0.000273475
-0.00556072
0.000234906
-0.00594123
0.0001797
-0.00621077
0.000112835
-0.00631044
3.88842e-05
-0.00622003
-3.38741e-05
-0.00596943
-9.49578e-05
-0.00560765
-0.000146231
-0.00517691
-0.000189791
-0.00470074
-0.000228795
-0.00419027
-0.000266447
-0.00365476
-0.000302743
-0.00310139
-0.000336235
-0.00254645
-0.000373438
-0.00200466
-0.000408987
-0.00147589
-0.000446966
-0.000967448
-0.000482806
-0.00046736
-0.000510686
2.83004e-05
-0.000526086
0.000516936
-0.00052612
0.000990055
-0.000509522
0.00143515
-0.000476956
0.00183829
-0.000430528
0.00218698
-0.000373788
0.00247256
-0.000311415
0.0026853
-0.000242031
0.00282367
-0.000173518
0.00288974
-0.000110569
0.0028898