/*--------------------------------*- C++ -*----------------------------------*\
| =========                 |                                                 |
| \\      /  F ield         | OpenFOAM: The Open Source CFD Toolbox           |
|  \\    /   O peration     | Version:  2012                                  |
|   \\  /    A nd           | Website:  www.openfoam.com                      |
|    \\/     M anipulation  |                                                 |
\*---------------------------------------------------------------------------*/
FoamFile
{
    version     2.0;
    format      ascii;
    class       surfaceScalarField;
    location    "0.81";
    object      phi;
}
// * * * * * * * * * * * * * * * * * * * * * * * * * * * * * * * * * * * * * //

dimensions      [0 3 -1 0 0 0 0];
oriented        oriented;


internalField   nonuniform List<scalar> 
84340
(
-0.000138037
-0.000199051
0.000337089
-0.00044204
-0.000353504
0.000657507
-0.000981276
-0.000258515
0.00079775
-0.00172291
-9.68461e-05
0.000838479
-0.00253864
1.14379e-05
0.000804297
-0.00336629
0.000113134
0.000714515
-0.00419451
0.000230753
0.000597463
-0.0049924
0.000352236
0.000445658
-0.00566558
0.000439509
0.000233668
-0.0060893
0.00045115
-2.74251e-05
-0.00618015
0.000385816
-0.000294968
-0.00593467
0.000293902
-0.000539382
-0.00540321
0.000230619
-0.000762077
-0.00466649
0.000222361
-0.000959088
-0.00380369
0.000269286
-0.00113208
-0.00289058
0.000355083
-0.00126819
-0.00198045
0.000432089
-0.00134222
-0.0011082
0.000452207
-0.00132446
-0.000295012
0.000384744
-0.00119793
0.000437471
0.000245972
-0.000978455
0.00108134
5.94829e-05
-0.000703354
0.00164003
-0.000137941
-0.000420752
0.00212038
-0.000316588
-0.000163757
0.00252357
-0.000453459
5.02654e-05
0.00286494
-0.000560687
0.000219317
0.00314987
-0.000631373
0.000346446
0.00337992
-0.000665309
0.000435263
0.00355689
-0.000666956
0.000489985
0.00368486
-0.000644323
0.000516348
0.00376948
-0.000605376
0.000520757
0.00381394
-0.000553222
0.000508761
0.00381674
-0.000487307
0.000484511
0.00377116
-0.000405631
0.000451208
0.00366684
-0.000308001
0.000412318
0.00349384
-0.000199701
0.000372705
0.00325211
-9.62889e-05
0.000338023
0.00296099
-2.15596e-05
0.000312673
0.00265538
8.69279e-06
0.000296919
0.00236663
3.07929e-06
0.000285675
0.00210525
-9.69329e-06
0.000271066
0.00186978
-1.00904e-05
0.000245565
0.00163938
2.4931e-05
0.000205464
0.00139948
8.64598e-05
0.000153445
0.00114383
0.000159514
9.61334e-05
0.000874649
0.000225751
4.34302e-05
0.000601669
0.000270116
2.86397e-06
0.000335718
0.000285846
-1.98947e-05
8.96201e-05
0.000275301
-2.92035e-05
-0.000126347
0.000245697
-2.973e-05
-0.000303621
0.00020452
-2.72462e-05
-0.000446043
0.000157189
-1.47671e-05
-0.000556356
0.000105469
4.84405e-06
-0.000638281
5.18497e-05
3.00752e-05
-0.000698951
-2.09905e-06
6.27688e-05
-0.000741948
-5.56847e-05
9.86824e-05
-0.000768884
-0.000108019
0.000134954
-0.000780213
-0.000158341
0.00016967
-0.000775852
-0.000205992
0.00020163
-0.000755647
-0.000250363
0.000230159
-0.000719619
-0.000290882
0.000254854
-0.000668109
-0.000327003
0.000275493
-0.00060187
-0.000358213
0.000291974
-0.000522106
-0.000384053
0.000304289
-0.000430456
-0.000404152
0.000312502
-0.000328935
-0.000418261
0.00031674
-0.000219835
-0.000426299
0.000317198
-0.000105595
-0.00042838
0.000314141
1.13446e-05
-0.00042484
0.000307901
0.000128698
-0.000416234
0.000298881
0.000244455
-0.000403304
0.000287547
0.000356971
-0.000386928
0.000274411
0.000465
-0.000368049
0.00026002
0.000567665
-0.000347598
0.000244933
0.000664404
-0.000326443
0.000229703
0.000754883
-0.000305346
0.000214867
0.000838869
-0.00028495
0.000200964
0.000916063
-0.000265777
0.000188583
0.000985808
-0.000248235
0.00017849
0.00104662
-0.000232698
0.000171883
-0.000219999
0.000172101
0.00109452
-7.27236e-05
-0.000126327
-0.000175488
-0.00025074
-0.000144075
-0.000289929
5.29846e-05
-0.000293905
0.000321897
-0.000257474
0.000592934
-0.000157904
0.000807918
1.5769e-05
0.000925005
0.000235149
0.000927188
0.000437326
0.000831495
0.000546843
0.000689576
0.000527735
0.00056881
0.000414667
0.000547855
0.000251574
0.00069274
7.74757e-05
0.00102689
-6.48594e-05
0.00154559
-0.000163622
0.00220269
-0.000225011
0.00292543
-0.000270528
0.00362943
-0.000319258
0.00425599
-0.000380589
0.00477005
-0.000454583
0.0051685
-0.000536385
0.00546952
-0.000617614
0.0057009
-0.000684832
0.00585492
-0.000714705
0.0058963
-0.000672754
0.0057628
-0.000531807
0.00540207
-0.000306233
0.00482252
-6.47683e-05
0.00410479
0.000112354
0.00335582
0.000195746
0.00265548
0.000213033
0.00203651
0.000213336
0.00150077
0.00022774
0.00103533
0.000265748
0.000620931
0.000318105
0.000238255
0.000361116
-0.000125283
0.00037223
-0.000470013
0.00034781
-0.000782978
0.000303271
-0.00105215
0.000259082
-0.00125568
0.00022846
-0.00138347
0.000214253
-0.00143693
0.00021297
-0.00142876
0.000217584
-0.00137938
0.000220737
-0.00131081
0.000217271
-0.00124029
0.000204786
-0.00117771
0.000183117
-0.00112627
0.00015308
-0.00108489
0.00011581
-0.00105216
7.27374e-05
-0.00102518
2.48705e-05
-0.00100081
-2.64677e-05
-0.000975858
-8.06406e-05
-0.000947184
-0.000136693
-0.000911977
-0.000193549
-0.000867882
-0.000250087
-0.000813118
-0.000305128
-0.000746552
-0.000357448
-0.000667742
-0.000405813
-0.000576933
-0.000449023
-0.000475027
-0.00048596
-0.00036354
-0.000515639
-0.000244534
-0.000537266
-0.000120543
-0.000550289
5.57654e-06
-0.000554499
0.000130826
-0.000550089
0.0002523
-0.000537708
0.000367447
-0.000518451
0.000474291
-0.000493772
0.000571577
-0.000465334
0.000658795
-0.000434816
0.000736097
-0.000403745
0.000804143
-0.000373393
0.000863938
-0.000344746
0.000916705
-0.000318544
0.000963829
-0.000295359
0.00100691
-0.00027578
-0.000261402
0.00104831
-0.000329808
0.000203481
-0.000729841
0.000149293
-0.000949922
-6.98477e-05
-0.000991813
-0.000252014
-0.000898211
-0.000351076
-0.000686528
-0.000369587
-0.000352834
-0.000317926
9.49661e-05
-0.000212651
0.000615905
-8.36125e-05
0.00112911
3.3636e-05
0.001549
0.000107851
0.00184669
0.000116975
0.00203083
6.74356e-05
0.00213835
-3.00463e-05
0.00222939
-0.000155905
0.00234704
-0.000281268
0.0025068
-0.000384769
0.00269946
-0.000463187
0.00290397
-0.000523775
0.00310005
-0.000576664
0.00327424
-0.000628776
0.00340991
-0.000672056
0.0034931
-0.000700799
0.00351106
-0.000702793
0.00345131
-0.000654953
0.00330325
-0.000524691
0.00306013
-0.000288691
0.00271754
3.63523e-05
0.00228995
0.000362821
0.00179936
0.000602949
0.00127158
0.000723526
0.000730768
0.000753843
0.000202842
0.000741262
-0.000286053
0.000716634
-0.000711139
0.000690835
-0.00105558
0.000662542
-0.00131901
0.000624553
-0.00151614
0.000569361
-0.0016624
0.000494063
-0.00176214
0.000403011
-0.00180863
0.000305575
-0.00179467
0.000214501
-0.00172632
0.000145907
-0.00161835
0.000104993
-0.00149188
9.11202e-05
-0.00136486
9.37134e-05
-0.00124852
0.000100927
-0.00114806
0.000104326
-0.00106484
9.99005e-05
-0.00099694
8.51811e-05
-0.00094005
5.89206e-05
-0.0008869
1.95883e-05
-0.000837768
-2.42617e-05
-0.000796255
-6.79804e-05
-0.000753431
-0.000123465
-0.000705756
-0.000184369
-0.00065126
-0.000248045
-0.000588703
-0.000312644
-0.000517339
-0.000376492
-0.000436823
-0.000437964
-0.00034718
-0.000495455
-0.000248793
-0.000547411
-0.000142385
-0.000592368
-2.90394e-05
-0.000628984
8.9736e-05
-0.000656042
0.000211944
-0.000672498
0.000335019
-0.000677574
0.000455883
-0.000670954
0.000571156
-0.000652982
0.00067752
-0.000624814
0.000772165
-0.000588418
0.000853224
-0.000546393
0.000920018
-0.000501611
0.00097308
-0.000456808
0.00101394
-0.000414254
0.00104481
-0.00037561
0.00106825
-0.000341988
0.00108704
-0.000314147
0.00110403
-0.000292773
-0.000278893
0.00112153
0.000591675
-0.000388194
0.00146469
-0.000723721
0.00228039
-0.000885544
0.00299466
-0.00096629
0.00358264
-0.000939055
0.0040429
-0.000829848
0.00439527
-0.000670294
0.00467546
-0.00049284
0.00491299
-0.000321145
0.00511387
-0.00016724
0.0052557
-3.39857e-05
0.00529073
8.19517e-05
0.0051759
0.000182261
0.00488825
0.000257611
0.00443429
0.000298052
0.00384758
0.000305443
0.00317116
0.000291649
0.00243991
0.000268062
0.00167478
0.000241356
0.000884985
0.000213131
7.17516e-05
0.000184457
-0.000756796
0.000156491
-0.00158905
0.000131456
-0.00240562
0.000113778
-0.00316827
0.000107697
-0.0038033
0.000110334
-0.00422403
0.000132038
-0.0043593
0.000171624
-0.00421731
0.000220833
-0.00388338
0.000269019
-0.00346893
0.000309077
-0.00305487
0.000339782
-0.00266887
0.000355264
-0.00231866
0.000366424
-0.00200466
0.00037683
-0.00172465
0.000382538
-0.00147805
0.000377953
-0.00126582
0.000357127
-0.00108791
0.000316155
-0.000941047
0.000256147
-0.000820462
0.00018499
-0.000721399
0.000115437
-0.000636098
6.06062e-05
-0.000558816
2.77106e-05
-0.000484157
1.64615e-05
-0.000410202
1.97585e-05
-0.000337184
2.79096e-05
-0.000265569
3.27116e-05
-0.000195271
2.96024e-05
-0.0001293
1.921e-05
-6.48869e-05
-5.49218e-06
-1.07873e-07
-4.51907e-05
7.09152e-05
-9.52847e-05
0.00014952
-0.000146585
0.000226574
-0.000200518
0.000298961
-0.000256755
0.000366032
-0.000315116
0.000428458
-0.000375069
0.000487652
-0.000435686
0.000545371
-0.000495683
0.000603223
-0.000553308
0.000662464
-0.000606652
0.000723992
-0.000653895
0.000788421
-0.000693414
0.000856087
-0.000723707
0.000926863
-0.000743274
0.00099991
-0.000750622
0.00107347
-0.00074451
0.00114484
-0.000724352
0.00121066
-0.000690634
0.00126743
-0.00064519
0.0013122
-0.000591169
0.00134324
-0.000532643
0.00136036
-0.000473933
0.00136497
-0.000418866
0.00135962
-0.000370259
0.00134746
-0.000329823
0.00133174
-0.000298434
0.00131555
-0.000276576
-0.000264556
0.00130121
-0.000542575
0.000154381
-0.00131994
5.3645e-05
-0.00212437
-8.11126e-05
-0.00306353
-2.71317e-05
-0.00413802
0.000135431
-0.00526832
0.000300457
-0.00634459
0.000405973
-0.00727155
0.000434122
-0.00799706
0.000404359
-0.00850527
0.000340978
-0.00880127
0.000262013
-0.0088969
0.000177584
-0.00880715
9.25043e-05
-0.00855842
8.88864e-06
-0.00818917
-7.12019e-05
-0.00774027
-0.000143461
-0.00724644
-0.000202177
-0.00673532
-0.000243054
-0.00622901
-0.00026496
-0.00574623
-0.000269644
-0.00530049
-0.000261286
-0.00489759
-0.00024641
-0.00453276
-0.000233375
-0.00418944
-0.000229545
-0.00384282
-0.000238913
-0.00347362
-0.000258873
-0.00305904
-0.000282542
-0.00258451
-0.000302906
-0.00204903
-0.00031465
-0.0014648
-0.000315206
-0.000851466
-0.000304257
-0.000228186
-0.000283498
0.000382582
-0.000255504
0.000971154
-0.000222148
0.00153584
-0.000187857
0.00207637
-0.000157986
0.00258689
-0.000132571
0.00305724
-0.000113219
0.00347337
-9.99763e-05
0.00382026
-9.07503e-05
0.00408686
-8.16091e-05
0.00427584
-7.35447e-05
0.00439442
-5.79731e-05
0.00445426
-3.21286e-05
0.00446944
1.28479e-06
0.00445157
3.76246e-05
0.00440773
7.17543e-05
0.00434092
9.95253e-05
0.00425249
0.000118025
0.00414622
0.000125482
0.00401988
0.000120846
0.00387046
0.000104236
0.00369881
7.63608e-05
0.00351478
3.74483e-05
0.00332543
-1.11679e-05
0.00313817
-6.94964e-05
0.00296032
-0.000137274
0.00279651
-0.000211251
0.00264992
-0.000289095
0.00252195
-0.00036772
0.00241221
-0.000443565
0.00231888
-0.000513319
0.00223953
-0.000574546
0.00217192
-0.000625798
0.00211438
-0.000666173
0.00206584
-0.000694731
0.0020254
-0.000710183
0.00199197
-0.000711075
0.00196392
-0.000696305
0.00193902
-0.000665738
0.00191451
-0.000620676
0.00188744
-0.000564101
0.00185532
-0.000500518
0.00181672
-0.000435337
0.00177172
-0.000373866
0.0017218
-0.000320335
0.00166935
-0.000277372
0.00161706
-0.000246146
0.00156745
-0.000226967
-0.000219827
0.00152272
0.000237396
-8.30143e-05
0.000340809
-4.97688e-05
3.96093e-05
0.000220087
-0.000562087
0.000574565
-0.00126569
0.000839033
-0.00190153
0.000936298
-0.00232764
0.000832085
-0.00247738
0.000583861
-0.00236029
0.000287265
-0.00204511
2.57987e-05
-0.00162126
-0.000161841
-0.00116855
-0.000275117
-0.000746544
-0.000329505
-0.000394211
-0.000343445
-0.000131542
-0.000333871
3.88827e-05
-0.000313886
0.000127924
-0.000291218
0.000152803
-0.000267933
0.000130965
-0.000243122
7.90035e-05
-0.000217682
5.50793e-06
-0.00018779
-8.13349e-05
-0.000159567
-0.000170231
-0.000144479
-0.000250999
-0.000148776
-0.000317201
-0.000172712
-0.000364598
-0.000211477
-0.000387818
-0.000259322
-0.000379402
-0.000311322
-0.000331799
-0.000362253
-0.000244877
-0.000402128
-0.000118632
-0.000430502
4.52823e-05
-0.000447412
0.000242313
-0.000452535
0.000467823
-0.000447659
0.000715418
-0.000435451
0.000975837
-0.000418405
0.0012416
-0.000398338
0.00150476
-0.000376369
0.00175777
-0.000352995
0.00199502
-0.000327993
0.00221454
-0.00030113
0.00241315
-0.000272155
0.00259695
-0.000241778
0.00277049
-0.000205665
0.00293723
-0.000165457
0.00309561
-0.000120752
0.00324839
-8.10314e-05
0.00339564
-4.77206e-05
0.00353495
-2.12869e-05
0.00366335
-2.91424e-06
0.00377746
6.73393e-06
0.0038746
7.10049e-06
0.00395237
-1.40904e-06
0.00400912
-1.93046e-05
0.00404069
-4.27344e-05
0.00405451
-8.33231e-05
0.00405075
-0.000133515
0.00402468
-0.000185172
0.00397421
-0.000238629
0.00389869
-0.000292198
0.00379959
-0.000344473
0.00368082
-0.00039454
0.00354795
-0.000441682
0.00340709
-0.000484931
0.00326361
-0.000522696
0.00312149
-0.000552617
0.00298324
-0.000571933
0.00285029
-0.000578121
0.00272349
-0.000569506
0.00260341
-0.000545657
0.0024903
-0.000507567
0.00238394
-0.000457741
0.00228361
-0.000400186
0.00218836
-0.000340084
0.00209749
-0.000283002
0.00201097
-0.000233816
0.00192947
-0.000195873
0.00185416
-0.000170831
0.0017864
-0.00015921
-0.000161151
0.00172772
0.000174144
-0.000257158
0.00030777
-0.000183395
0.000333731
0.000194127
0.000373914
0.000534382
0.00050021
0.000712737
0.000701429
0.000735078
0.000917797
0.000615718
0.00109696
0.000404698
0.00120294
0.000181282
0.00121269
1.60549e-05
0.00110725
-5.64021e-05
0.000869543
-3.74117e-05
0.000496134
4.39042e-05
8.27152e-07
0.000151862
-0.000578503
0.000245459
-0.00118361
0.000291221
-0.00175208
0.00027725
-0.00223869
0.000218676
-0.00262724
0.000145435
-0.00292781
8.28809e-05
-0.00315447
3.88734e-05
-0.00331787
3.83432e-06
-0.00342344
-3.89081e-05
-0.00347108
-0.000101141
-0.00345944
-0.000184348
-0.00338861
-0.000282305
-0.0032615
-0.000386438
-0.00308118
-0.000491638
-0.0028536
-0.000589835
-0.00258677
-0.000668957
-0.00229527
-0.000722002
-0.00199654
-0.000746147
-0.00170533
-0.000743738
-0.00143152
-0.000721468
-0.00117925
-0.000687724
-0.000947989
-0.000649667
-0.000734792
-0.000611536
-0.000536159
-0.000575003
-0.000349117
-0.000540036
-0.000171145
-0.000505965
1.23578e-08
-0.000472287
0.000166667
-0.00043881
0.000330292
-0.000405404
0.000496719
-0.000372092
0.000669928
-0.000338667
0.000854733
-0.000305557
0.00104698
-0.000273275
0.00124287
-0.000243614
0.00143898
-0.000217395
0.00163189
-0.000195825
0.00181865
-0.000180028
0.00199636
-0.000170614
0.00216265
-0.000167692
0.00231468
-0.000171337
0.00245338
-0.00018143
0.00256793
-0.000197874
0.00265432
-0.000219907
0.00271616
-0.000247014
0.00275612
-0.000278588
0.00277811
-0.000314187
0.00278672
-0.000353085
0.00278614
-0.000393964
0.00277917
-0.000434707
0.0027666
-0.000472361
0.00274733
-0.000503429
0.00271918
-0.000524469
0.00268005
-0.0005328
0.00262893
-0.000527001
0.00256648
-0.000507059
0.00249501
-0.000474182
0.00241794
-0.000430505
0.0023391
-0.0003789
0.00226186
-0.000322947
0.00218864
-0.000266864
0.00212078
-0.000215138
0.00205881
-0.000171849
0.00200295
-0.000140008
0.00195344
-0.000121324
0.00191086
-0.000116627
-0.000126266
0.00187598
-0.000367264
0.000110106
-0.000577431
2.67715e-05
-0.000383696
3.92464e-07
-0.000131989
0.000282674
-6.55713e-05
0.00064632
-0.00022115
0.000890657
-0.000611127
0.00100569
-0.00125556
0.00104913
-0.0021269
0.00105262
-0.00313656
0.00102571
-0.00416804
0.000975081
-0.00510896
0.00090351
-0.00588223
0.000817169
-0.00644235
0.00071199
-0.00677649
0.000579595
-0.00689765
0.00041238
-0.00684291
0.000222511
-0.00665174
2.75021e-05
-0.00635925
-0.000147047
-0.0059878
-0.000288576
-0.00555568
-0.000393244
-0.00508238
-0.00046946
-0.00459051
-0.000530781
-0.00410151
-0.000590145
-0.00362986
-0.000655997
-0.00318117
-0.000730992
-0.00275599
-0.000811619
-0.00235529
-0.000892344
-0.00197898
-0.000966136
-0.00162852
-0.00101942
-0.00130801
-0.00104251
-0.0010244
-0.00102976
-0.000788122
-0.000980014
-0.0006071
-0.00090249
-0.000480489
-0.000814335
-0.000397731
-0.000732425
-0.000342863
-0.000666404
-0.000301196
-0.000616671
-0.000262921
-0.00057831
-0.00022311
-0.000545776
-0.000179879
-0.000515519
-0.000132385
-0.000486305
-7.94697e-05
-0.000458319
-1.94025e-05
-0.000432159
5.01552e-05
-0.000408225
0.000131224
-0.000386625
0.000225236
-0.000367287
0.000331787
-0.000350164
0.000449698
-0.000335306
0.000576854
-0.000322981
0.000710491
-0.000313665
0.000847768
-0.000307891
0.000986278
-0.000306202
0.00112402
-0.00030908
0.00125947
-0.000316875
0.00139129
-0.000329697
0.00151877
-0.000347391
0.00164115
-0.000369393
0.00175729
-0.000394727
0.00186515
-0.000422048
0.0019617
-0.000449635
0.00204318
-0.000475437
0.00210571
-0.000497237
0.00214628
-0.000512933
0.00216367
-0.000520822
0.00215901
-0.000519803
0.00213566
-0.000509454
0.00209866
-0.000490001
0.0020538
-0.000462199
0.00200683
-0.000427215
0.00196288
-0.000386547
0.00192603
-0.000342057
0.00189911
-0.000296027
0.00188341
-0.000251161
0.00187867
-0.000210401
0.00188339
-0.000176567
0.00189538
-0.000151996
0.00191245
-0.000138394
0.00193291
-0.000137086
-0.000148574
0.00195521
0.000318787
-0.000208681
0.00102544
-0.000679879
0.00210756
-0.00108173
0.00348588
-0.00109565
0.00500246
-0.000870256
0.00658238
-0.000689268
0.00818598
-0.000597903
0.00977306
-0.000537951
0.0112982
-0.000472508
0.0127097
-0.000385782
0.0139644
-0.000279649
0.0150173
-0.000149327
0.0158232
1.12531e-05
0.0163434
0.000191777
0.0165378
0.000385192
0.0163773
0.000572895
0.0158703
0.000729497
0.0150653
0.000832452
0.0140504
0.000867898
0.0129253
0.000836528
0.0117768
0.000755282
0.0106587
0.000648593
0.00959305
0.000534869
0.00858226
0.000420644
0.00762171
0.00030456
0.00670691
0.000183808
0.00583736
5.79277e-05
0.00501555
-7.05282e-05
0.00424598
-0.000196568
0.00353925
-0.000312697
0.00290691
-0.000410166
0.00235812
-0.000480966
0.00189577
-0.000517668
0.00151823
-0.000524946
0.00121893
-0.00051504
0.000987894
-0.000501386
0.000813893
-0.000492402
0.000685376
-0.000488153
0.000590676
-0.00048361
0.000518683
-0.000473783
0.000460062
-0.000456897
0.000408634
-0.000434876
0.000362215
-0.000411899
0.000322356
-0.0003923
0.00029301
-0.000378879
0.000278644
-0.00037226
0.000282657
-0.0003713
0.000306556
-0.000374064
0.000349967
-0.000378717
0.000411052
-0.000384065
0.000487042
-0.000389655
0.000574741
-0.000395589
0.000670789
-0.000402251
0.000771764
-0.000410055
0.00087418
-0.000419291
0.000974505
-0.000430022
0.00106918
-0.000442065
0.00115479
-0.000455005
0.00122829
-0.000468229
0.00128721
-0.000480967
0.00132994
-0.000492362
0.00135607
-0.000501567
0.00136667
-0.000507839
0.00136432
-0.000510587
0.00135287
-0.000509367
0.00133689
-0.000503828
0.00132113
-0.000493686
0.00130988
-0.000478753
0.00130669
-0.000459011
0.0013142
-0.000434728
0.0013342
-0.000406542
0.00136765
-0.000375509
0.00141472
-0.000343094
0.00147465
-0.00031109
0.00154572
-0.000281471
0.00162536
-0.000256209
0.00171048
-0.000237113
0.00179788
-0.000225795
0.00188462
-0.000223827
-0.000231653
0.0019677
-0.000317247
0.000108567
-0.000942382
-5.47442e-05
-0.00165908
-0.00036503
-0.00215738
-0.000597354
-0.00229867
-0.000728958
-0.00220232
-0.00078562
-0.0020114
-0.00078882
-0.0018183
-0.000731059
-0.00169284
-0.000597964
-0.00169091
-0.000387712
-0.00185204
-0.000118521
-0.00217618
0.000174812
-0.00259167
0.000426742
-0.00298266
0.000582772
-0.00321531
0.000617842
-0.0031886
0.000546181
-0.00286726
0.000408155
-0.00227244
0.000237629
-0.00145308
4.85409e-05
-0.000472822
-0.000143729
0.000583598
-0.000301138
0.00161617
-0.000383974
0.00253779
-0.00038676
0.00329453
-0.000336088
0.0038616
-0.000262515
0.00423193
-0.000186517
0.00440972
-0.00011987
0.00440826
-6.90611e-05
0.00424856
-3.68704e-05
0.0039586
-2.27387e-05
0.00357167
-2.32377e-05
0.00312595
-3.52431e-05
0.0026662
-5.79239e-05
0.00223566
-9.44007e-05
0.00186173
-0.000141109
0.00155296
-0.000192614
0.00130389
-0.000243338
0.00110308
-0.000287345
0.000939878
-0.000320406
0.000806778
-0.000340683
0.000698795
-0.000348915
0.000612083
-0.000348164
0.000543075
-0.000342891
0.000488382
-0.000337607
0.000445139
-0.000335636
0.000411289
-0.00033841
0.000385573
-0.000345583
0.000367322
-0.000355812
0.000356223
-0.000367617
0.000352077
-0.000379919
0.000354596
-0.000392175
0.000363279
-0.000404272
0.000377359
-0.000416331
0.000395843
-0.000428539
0.000417588
-0.000441036
0.00044143
-0.000453863
0.000466312
-0.000466948
0.000491411
-0.000480104
0.000516226
-0.000493044
0.000540642
-0.000505382
0.000564924
-0.000516644
0.000589636
-0.00052628
0.000615501
-0.000533705
0.000643268
-0.000538354
0.000673643
-0.000539742
0.00070733
-0.000537515
0.000745135
-0.00053149
0.000788048
-0.000521667
0.000837266
-0.000508229
0.000894089
-0.000491551
0.000959739
-0.000472193
0.00103514
-0.000450908
0.00112067
-0.000428629
0.00121602
-0.000406437
0.00132007
-0.000385522
0.00143099
-0.000367127
0.0015464
-0.000352525
0.00166365
-0.000343039
0.00178001
-0.000340194
-0.000344598
0.00189296
0.000866366
-0.000757799
0.00214876
-0.00133714
0.00326391
-0.00148018
0.00416518
-0.00149862
0.00492062
-0.00148439
0.00550953
-0.00137453
0.00587026
-0.00114955
0.00594247
-0.000803266
0.00568181
-0.00033731
0.0050618
0.000232302
0.00407957
0.000863713
0.0027713
0.00148307
0.00120209
0.00199596
-0.000533512
0.00231837
-0.00233566
0.00241999
-0.0041032
0.00231372
-0.00575334
0.0020583
-0.00718989
0.00167417
-0.00827004
0.0011287
-0.00885374
0.000439971
-0.00892703
-0.000227852
-0.00863604
-0.000674961
-0.00816687
-0.000855931
-0.0076334
-0.000869558
-0.007079
-0.000816914
-0.00652066
-0.000744855
-0.00597009
-0.000670446
-0.00543708
-0.000602067
-0.00492945
-0.000544498
-0.00445216
-0.000500032
-0.00400608
-0.000469318
-0.0035894
-0.000451925
-0.0032007
-0.000446623
-0.0028438
-0.000451292
-0.00252228
-0.000462629
-0.00223923
-0.000475669
-0.00199622
-0.000486349
-0.00179102
-0.000492542
-0.00161724
-0.00049419
-0.00146561
-0.000492311
-0.0013265
-0.000488025
-0.00119237
-0.000482294
-0.00105927
-0.000475989
-0.000926962
-0.000469916
-0.000797837
-0.000464761
-0.000675299
-0.000460948
-0.000562219
-0.000458663
-0.000460121
-0.00045791
-0.00036912
-0.000458618
-0.00028831
-0.000460728
-0.000216263
-0.000464221
-0.000151429
-0.000469106
-9.23759e-05
-0.000475385
-3.78995e-05
-0.000483016
1.29496e-05
-0.000491886
6.088e-05
-0.000501794
0.000106384
-0.000512452
0.000149775
-0.000523495
0.000191242
-0.00053451
0.000230917
-0.000545057
0.000268972
-0.000554699
0.000305717
-0.000563025
0.000341681
-0.000569668
0.000377647
-0.00057432
0.000414638
-0.000576733
0.000453856
-0.000576734
0.000496593
-0.000574227
0.000544134
-0.000569206
0.00059767
-0.000561765
0.000658223
-0.000552104
0.000726571
-0.000540541
0.000803169
-0.000527507
0.000888083
-0.000513543
0.000980943
-0.000499297
0.00108093
-0.000485512
0.00118685
-0.000473039
0.00129717
-0.000462852
0.00141024
-0.000456106
0.00152434
-0.000454291
-0.00045882
0.00163856
-0.000409799
-0.000348
-0.000714807
-0.00103213
-0.000548542
-0.00164644
-0.000172985
-0.00187418
3.44425e-05
-0.00169182
-9.89399e-05
-0.00124115
-0.000543263
-0.00070523
-0.00115081
-0.000195719
-0.00173676
0.000248642
-0.00214444
0.000639979
-0.00227019
0.000989467
-0.00208511
0.00129799
-0.00164321
0.00155405
-0.00106462
0.00173979
-0.00048604
0.0018414
-2.57904e-05
0.00185347
0.000263649
0.00176886
0.000381677
0.00155614
0.000341548
0.00116883
0.000151571
0.000629948
-0.000166695
9.04139e-05
-0.000564607
-0.000277049
-0.000981001
-0.000439537
-0.00136369
-0.00048687
-0.00168575
-0.00049485
-0.00193661
-0.000494002
-0.00211443
-0.000492626
-0.00222302
-0.000493475
-0.00226952
-0.000498
-0.00226248
-0.000507064
-0.0022106
-0.000521202
-0.00212209
-0.000540434
-0.00200513
-0.000563588
-0.00186878
-0.000587636
-0.00172294
-0.000608468
-0.0015761
-0.000622519
-0.00143391
-0.000628531
-0.00129897
-0.000627485
-0.00117157
-0.000621585
-0.00105088
-0.000613004
-0.000935688
-0.000603218
-0.000825092
-0.000592891
-0.000718843
-0.000582238
-0.000617362
-0.000571397
-0.000521547
-0.000560576
-0.000432418
-0.000550077
-0.000350807
-0.000540274
-0.000277159
-0.000531558
-0.00021148
-0.000524297
-0.000153402
-0.000518806
-0.000102306
-0.000515317
-5.74502e-05
-0.000513962
-1.80716e-05
-0.000514763
1.6539e-05
-0.000517626
4.70053e-05
-0.000522352
7.38614e-05
-0.000528651
9.7582e-05
-0.000536173
0.000118625
-0.000544538
0.000137476
-0.000553362
0.000154695
-0.000562276
0.000170938
-0.000570943
0.00018697
-0.000579058
0.000203648
-0.000586346
0.000221893
-0.000592565
0.000242661
-0.000597501
0.000266907
-0.00060098
0.000295549
-0.000602869
0.000329432
-0.00060309
0.000369296
-0.000601628
0.000415735
-0.000598543
0.000469175
-0.00059398
0.000529845
-0.000588176
0.00059777
-0.000581468
0.000672777
-0.000574303
0.00075452
-0.000567256
0.000842522
-0.000561041
0.000936221
-0.000556551
0.00103502
-0.00055491
0.00113832
-0.000557584
-0.000567101
0.0012466
-0.00057648
0.00022848
-0.00153026
-7.83509e-05
-0.00234812
-0.000828592
-0.00291319
-0.0013091
-0.003321
-0.00128402
-0.00362249
-0.000939651
-0.00383035
-0.000497375
-0.00392321
-0.000102858
-0.00386863
0.000194063
-0.00362872
0.000400069
-0.00317547
0.000536213
-0.00249655
0.000619079
-0.00159909
0.000656598
-0.000513199
0.000653892
0.000709882
0.000618322
0.00200762
0.000555739
0.0033034
0.000473083
0.00447945
0.000380084
0.00535922
0.000289063
0.00577628
0.000212884
0.00570848
0.000158215
0.00531216
0.000119274
0.00477479
9.78286e-05
0.00420769
8.02346e-05
0.00365464
5.82008e-05
0.00313171
2.89224e-05
0.0026453
-6.21118e-06
0.00219593
-4.41108e-05
0.00178055
-8.26158e-05
0.00139623
-0.000122745
0.00104343
-0.000168397
0.000727636
-0.000224642
0.000456747
-0.000292699
0.000236346
-0.000367235
6.66333e-05
-0.000438755
-5.72097e-05
-0.000498676
-0.000142809
-0.000542932
-0.000198058
-0.000572237
-0.000229711
-0.000589932
-0.000243015
-0.0005997
-0.000242005
-0.000604229
-0.000229779
-0.000605116
-0.000208837
-0.00060318
-0.000181334
-0.0005989
-0.000149214
-0.000592695
-0.00011424
-0.000585051
-7.79865e-05
-0.000576528
-4.18099e-05
-0.000567734
-6.82693e-06
-0.00055928
2.61015e-05
-0.000551735
5.63688e-05
-0.000545584
8.3607e-05
-0.0005412
0.000107659
-0.000538815
0.000128539
-0.000538507
0.000146389
-0.000540202
0.000161435
-0.000543697
0.00017395
-0.000548687
0.000184229
-0.000554817
0.000192584
-0.000561717
0.000199356
-0.000569047
0.000204926
-0.000576514
0.000209751
-0.000583882
0.000214373
-0.000590968
0.00021944
-0.000597631
0.000225694
-0.000603755
0.000233956
-0.000609242
0.000245094
-0.000614008
0.000259994
-0.000617989
0.000279514
-0.000621148
0.000304458
-0.000623487
0.000335548
-0.00062507
0.000373407
-0.000626034
0.00041855
-0.00062661
0.000471387
-0.00062714
0.000532227
-0.000628096
0.000601282
-0.000630095
0.000678651
-0.000633919
0.000764273
-0.000640532
0.000857901
-0.000651212
-0.0006685
0.000959299
0.000370107
-0.000141628
0.000667028
-0.000375272
0.000546891
-0.000708454
0.000234799
-0.000997007
7.59328e-05
-0.00112515
0.000261666
-0.00112538
0.000812275
-0.00104799
0.00164627
-0.000936857
0.00265747
-0.000817128
0.00375597
-0.000698432
0.00487497
-0.000582789
0.00596357
-0.000469528
0.00697751
-0.000357334
0.00787655
-0.00024515
0.00862706
-0.000132191
0.0091962
-1.34035e-05
0.0095664
0.000102881
0.00973168
0.000214812
0.00970356
0.000317179
0.00950334
0.000413104
0.0091595
0.000502057
0.00869346
0.000585312
0.00812688
0.000664409
0.0074681
0.000739015
0.00672066
0.000805638
0.00589228
0.0008573
0.00499879
0.000887283
0.00406474
0.000889935
0.00312273
0.000859397
0.00221139
0.000788599
0.00137218
0.000670808
0.000643504
0.000504033
5.50749e-05
0.00029573
-0.000379356
6.71953e-05
-0.000664988
-0.000153124
-0.000822499
-0.000341165
-0.000880112
-0.000485318
-0.000866459
-0.00058589
-0.000806241
-0.00065015
-0.000718784
-0.000687158
-0.000618098
-0.000704914
-0.000513689
-0.000709524
-0.000411512
-0.000705357
-0.000314968
-0.000695443
-0.000225731
-0.000681932
-0.000144405
-0.000666377
-7.09746e-05
-0.000649958
-5.0978e-06
-0.000633611
5.37172e-05
-0.000618095
0.000106005
-0.000604023
0.000152284
-0.000591863
0.000193024
-0.00058194
0.000228635
-0.000574426
0.000259471
-0.000569342
0.000285837
-0.000566569
0.000308013
-0.000565872
0.000326264
-0.000566938
0.000340862
-0.000569415
0.000352106
-0.000572962
0.000360336
-0.000577277
0.000365944
-0.000582123
0.000369392
-0.00058733
0.000371215
-0.000592792
0.000372029
-0.000598446
0.000372535
-0.000604261
0.000373511
-0.000610218
0.000375804
-0.000616301
0.000380315
-0.0006225
0.000387975
-0.000628807
0.000399723
-0.000635235
0.000416476
-0.000641823
0.000439099
-0.000648657
0.000468376
-0.000655886
0.000504974
-0.000663738
0.000549408
-0.00067253
0.000601994
-0.00068268
0.000662781
-0.000694707
0.000731483
-0.000709234
0.000807374
-0.000727102
-0.000749749
0.000888623
-5.77272e-05
-8.39004e-05
-0.000293047
-0.000139952
-0.00100429
2.78784e-06
-0.00217752
0.000176225
-0.00357679
0.000274111
-0.00504242
0.000340253
-0.00648016
0.000389748
-0.00783382
0.000416811
-0.00905858
0.000407624
-0.0101077
0.00035067
-0.0109333
0.000242806
-0.0114973
9.45297e-05
-0.0117808
-7.38207e-05
-0.0117851
-0.000240866
-0.0115264
-0.00039096
-0.0110229
-0.000516871
-0.0103002
-0.000619793
-0.00938331
-0.000702096
-0.0083038
-0.000762329
-0.00709637
-0.000794323
-0.00580245
-0.000791862
-0.00446606
-0.000751078
-0.00313031
-0.000671346
-0.0018346
-0.000556698
-0.00061563
-0.000413328
0.00049248
-0.000250809
0.0014595
-7.97388e-05
0.00226083
8.86074e-05
0.00287884
0.00024139
0.0033039
0.000363531
0.0035348
0.000439908
0.00358055
0.000458289
0.00346447
0.000411803
0.00322079
0.000310879
0.00289375
0.000173917
0.00252026
3.23292e-05
0.00214539
-0.000110449
0.00179663
-0.000237133
0.00148941
-0.000342928
0.0012299