/*--------------------------------*- C++ -*----------------------------------*\
| =========                 |                                                 |
| \\      /  F ield         | OpenFOAM: The Open Source CFD Toolbox           |
|  \\    /   O peration     | Version:  2012                                  |
|   \\  /    A nd           | Website:  www.openfoam.com                      |
|    \\/     M anipulation  |                                                 |
\*---------------------------------------------------------------------------*/
FoamFile
{
    version     2.0;
    format      ascii;
    class       volVectorField;
    location    "0.81";
    object      U;
}
// * * * * * * * * * * * * * * * * * * * * * * * * * * * * * * * * * * * * * //

dimensions      [0 1 -1 0 0 0 0];


internalField   nonuniform List<vector> 
42400
(
(12.5452 -12.254 -2.40954e-17)
(20.3237 -22.7725 -4.04241e-17)
(15.0404 -18.4902 4.13531e-17)
(4.13961 -14.0227 0)
(-2.07519 -12.8898 0)
(-6.69463 -13.875 -3.36989e-20)
(-11.0307 -15.2664 0)
(-15.9134 -16.0129 3.89013e-20)
(-21.9319 -15.3028 0)
(-28.9884 -12.4517 3.84959e-20)
(-36.3651 -7.16505 3.02608e-20)
(-43.2778 0.253826 -1.72331e-20)
(-49.2805 9.08746 7.46481e-17)
(-54.3127 18.5776 -7.61881e-17)
(-58.2706 28.0452 2.00156e-20)
(-60.6969 36.5369 0)
(-60.3955 42.6224 0)
(-56.0807 44.7008 0)
(-47.3377 41.9986 0)
(-35.1402 35.2171 0)
(-21.4053 26.2199 0)
(-8.05993 17.0259 5.39796e-21)
(3.59594 8.96397 3.46873e-17)
(12.9788 2.60169 -5.53716e-18)
(20.049 -1.96949 -3.00965e-17)
(25.0349 -4.92179 1.45176e-20)
(28.2568 -6.55081 2.42398e-20)
(30.0515 -7.17499 -6.94539e-20)
(30.7521 -7.08363 0)
(30.6535 -6.51209 0)
(29.9826 -5.63632 -1.03082e-17)
(28.891 -4.59051 1.04036e-17)
(27.4777 -3.49372 -1.73028e-19)
(25.8165 -2.47212 8.25102e-18)
(23.9876 -1.66658 -8.10398e-18)
(22.0794 -1.20438 0)
(20.1776 -1.1199 0)
(18.3239 -1.27695 0)
(16.4695 -1.39858 0)
(14.5018 -1.21802 6.62874e-18)
(12.2891 -0.585749 -6.65685e-18)
(9.76559 0.476049 6.19197e-18)
(6.9987 1.77966 -7.1146e-19)
(4.19233 3.0445 -1.10785e-17)
(1.6478 3.97 5.20168e-18)
(-0.364919 4.34661 -4.53888e-18)
(-1.73538 4.14257 9.15159e-18)
(-2.52436 3.48985 -4.29164e-18)
(-2.8779 2.59036 -2.82258e-19)
(-2.93305 1.61963 4.03866e-18)
(-2.79522 0.679803 -7.92234e-18)
(-2.53464 -0.187649 -4.01513e-19)
(-2.19749 -0.964219 4.23507e-18)
(-1.8194 -1.64671 -4.64893e-19)
(-1.42864 -2.23878 0)
(-1.04156 -2.74066 0)
(-0.666634 -3.15084 0)
(-0.30785 -3.46825 3.90564e-19)
(0.033538 -3.6933 3.6999e-19)
(0.357378 -3.82795 0)
(0.663739 -3.87571 5.09164e-18)
(0.952405 -3.84157 -5.30986e-18)
(1.22265 -3.73194 -4.4266e-18)
(1.47325 -3.55456 4.34294e-18)
(1.70268 -3.31837 0)
(1.90939 -3.0333 0)
(2.0921 -2.70996 -3.16984e-18)
(2.2501 -2.35926 3.098e-18)
(2.38343 -1.99193 3.24042e-19)
(2.49301 -1.61806 0)
(2.58059 -1.24671 0)
(2.6486 -0.885604 2.36217e-19)
(2.69996 -0.541023 2.117e-19)
(2.73774 -0.217836 0)
(2.76504 0.0803262 1.6854e-19)
(2.78471 0.350745 1.25499e-18)
(2.79929 0.591062 -1.2173e-18)
(2.81098 0.798614 -2.29763e-19)
(2.82245 0.969739 -8.28716e-19)
(2.83357 1.09176 -5.62747e-19)
(5.91581 -6.36602 0)
(9.63978 -8.64169 5.21071e-17)
(2.46469 -4.33749 -5.36339e-17)
(-5.12592 4.40746 0)
(-12.5151 12.2745 0)
(-20.6717 21.3707 6.69568e-17)
(-30.072 31.4673 -6.84097e-17)
(-39.0506 40.5875 -3.92765e-20)
(-44.0694 45.3235 0)
(-42.009 42.8068 -3.90088e-20)
(-33.1651 33.7151 -3.0698e-20)
(-21.468 22.2306 -7.60601e-17)
(-11.0426 12.5477 3.83882e-18)
(-3.71595 6.53422 7.61084e-17)
(0.606746 4.30066 7.00178e-17)
(2.77419 5.0815 -7.04428e-17)
(4.09801 7.63757 0)
(5.60703 10.7098 6.40821e-19)
(7.67572 13.4259 0)
(10.1222 15.419 0)
(12.626 16.7078 0)
(14.9394 17.419 -3.91591e-17)
(16.9529 17.6833 5.93131e-18)
(18.6537 17.6531 3.45232e-17)
(19.9924 17.4761 0)
(20.7832 17.2384 -1.91035e-19)
(20.7569 16.8972 -2.37842e-20)
(19.6969 16.2795 6.82441e-20)
(17.5771 15.198 -6.80307e-18)
(14.635 13.6653 6.89134e-18)
(11.2492 11.9793 -7.67629e-20)
(7.71672 10.5556 -3.75198e-20)
(4.14706 9.69783 3.11587e-18)
(0.52442 9.50644 -2.98018e-18)
(-3.09971 9.88157 -6.13061e-18)
(-6.39724 10.4159 6.08183e-18)
(-8.81042 10.4027 0)
(-9.94481 9.29246 -1.35292e-19)
(-9.93876 7.19404 0)
(-9.34297 4.75463 -3.1459e-19)
(-8.7243 2.60781 6.5087e-18)
(-8.34042 1.04657 -6.86449e-18)
(-8.14617 0.0745839 3.99865e-19)
(-8.0034 -0.442803 -3.80808e-19)
(-7.77643 -0.679928 2.52439e-20)
(-7.39276 -0.793618 -3.35941e-19)
(-6.85497 -0.894545 3.15388e-19)
(-6.21274 -1.04116 4.62986e-18)
(-5.52431 -1.25169 -4.62387e-18)
(-4.83087 -1.52093 0)
(-4.153 -1.83514 2.73188e-19)
(-3.49949 -2.18021 5.01675e-19)
(-2.87217 -2.54067 3.47468e-18)
(-2.26854 -2.9029 -3.45736e-18)
(-1.68462 -3.25453 -4.72887e-19)
(-1.11865 -3.58116 6.47217e-18)
(-0.570822 -3.86894 -7.27196e-18)
(-0.0424614 -4.10561 -3.90715e-19)
(0.464038 -4.28093 -3.70087e-19)
(0.945311 -4.38714 5.47622e-18)
(1.39724 -4.41912 -5.38868e-18)
(1.81527 -4.3746 3.0431e-19)
(2.19476 -4.25416 2.77542e-19)
(2.53136 -4.06123 0)
(2.82135 -3.80199 -3.13849e-18)
(3.06194 -3.48521 2.66298e-19)
(3.25172 -3.12199 3.54554e-18)
(3.39089 -2.7253 0)
(3.48144 -2.3091 -6.11879e-19)
(3.52721 -1.88745 2.55037e-19)
(3.53363 -1.47333 1.88663e-18)
(3.50729 -1.07765 -2.07359e-18)
(3.45536 -0.708605 -1.70683e-18)
(3.38507 -0.371501 1.60845e-18)
(3.30313 -0.068991 -3.04217e-19)
(3.21551 0.198417 1.02767e-18)
(3.12721 0.431772 -7.91215e-19)
(3.04245 0.633332 2.2978e-19)
(2.96517 0.805417 -8.05488e-19)
(2.89975 0.940609 6.42959e-19)
(-3.20887 0.595336 -3.11519e-17)
(0.433466 -4.39007 -2.16334e-20)
(9.38155 -13.8135 2.84775e-19)
(18.5201 -22.3389 -3.57985e-21)
(24.7884 -27.1475 0)
(27.7434 -28.4517 -8.36905e-17)
(27.25 -26.2104 1.651e-16)
(23.6898 -20.7126 -8.12945e-17)
(18.2609 -13.128 6.85688e-17)
(13.0309 -5.48906 -8.22869e-18)
(10.177 -0.07778 -6.27492e-17)
(10.9429 1.65585 -5.00048e-19)
(15.3013 -0.349078 -4.66055e-19)
(22.174 -5.04403 3.49389e-17)
(29.8054 -10.7388 -3.56007e-17)
(36.5482 -15.7104 -5.98049e-19)
(41.6811 -19.0797 -2.16734e-17)
(45.3551 -21.0263 3.11075e-18)
(48.0199 -22.0878 1.81085e-17)
(50.1844 -22.7564 1.72022e-19)
(52.0851 -23.2911 -1.30865e-19)
(53.6888 -23.7573 -9.02563e-20)
(54.6915 -24.0192 0)
(54.5253 -23.6946 -2.56938e-19)
(52.2286 -22.0549 2.04081e-18)
(46.5176 -18.0801 -3.4324e-18)
(36.6081 -11.1594 1.53481e-18)
(23.5952 -2.26557 -1.66669e-18)
(10.7453 5.88598 1.69158e-18)
(1.43672 10.6528 2.22222e-18)
(-3.34733 11.4633 -4.53179e-18)
(-5.03718 9.67836 3.33703e-19)
(-5.53792 6.98587 2.0606e-18)
(-5.92735 4.40616 0)
(-6.48983 2.32423 0)
(-7.13834 0.776784 -1.03886e-19)
(-7.69699 -0.364604 0)
(-8.04702 -1.26157 2.04064e-20)
(-8.17174 -2.00967 2.81437e-18)
(-8.11418 -2.6197 -6.27245e-18)
(-7.93677 -3.04467 3.81159e-18)
(-7.68989 -3.21967 0)
(-7.41382 -3.12768 0)
(-7.12715 -2.8132 4.59841e-18)
(-6.81985 -2.37832 -4.25974e-18)
(-6.47133 -1.94004 -3.25087e-19)
(-6.06509 -1.58865 0)
(-5.59004 -1.37296 0)
(-5.04911 -1.30689 4.50834e-18)
(-4.44873 -1.38022 -4.48468e-18)
(-3.79569 -1.56848 -2.73173e-19)
(-3.09311 -1.83704 0)
(-2.35558 -2.15798 -4.65721e-18)
(-1.61093 -2.51537 4.06366e-18)
(-0.875325 -2.88303 -7.14839e-18)
(-0.151366 -3.23079 7.50575e-18)
(0.554673 -3.54036 -6.46249e-18)
(1.23464 -3.79966 1.32834e-17)
(1.88048 -3.99922 -1.24357e-17)
(2.48423 -4.13164 3.60444e-19)
(3.03807 -4.19139 5.50484e-18)
(3.53468 -4.17482 4.67619e-18)
(3.96745 -4.08032 -4.8693e-18)
(4.33084 -3.90844 0)
(4.62059 -3.66207 2.92538e-18)
(4.83388 -3.34701 -3.13898e-19)
(4.96968 -2.97246 -3.61917e-18)
(5.02948 -2.5512 0)
(5.01763 -2.09948 5.31373e-19)
(4.94162 -1.63599 1.52549e-18)
(4.81181 -1.18 -1.55454e-18)
(4.64061 -0.749044 0)
(4.44134 -0.356771 0)
(4.22694 -0.0117051 -1.54562e-19)
(4.00899 0.282844 1.35628e-19)
(3.79726 0.527833 6.02187e-19)
(3.59973 0.72705 -9.52464e-19)
(3.42309 0.885801 0)
(3.27246 1.00793 1.50035e-19)
(3.14964 1.08703 3.71109e-19)
(7.95522 -3.92539 7.07367e-17)
(24.2525 -10.1433 -1.0275e-16)
(36.8296 -16.0322 5.1266e-17)
(45.7628 -16.3401 4.39632e-17)
(47.6234 -13.9641 -4.5067e-17)
(44.7407 -8.64583 0)
(38.7962 -1.96734 5.72454e-17)
(31.7034 4.90608 -5.84159e-17)
(24.8509 11.2756 3.5905e-17)
(18.9237 16.8556 -3.66707e-17)
(13.9944 21.6388 1.61778e-17)
(9.60647 25.6483 -2.44136e-17)
(5.2057 28.6527 7.5595e-18)
(0.839417 30.2237 6.13782e-18)
(-2.87911 30.1945 -1.60196e-17)
(-5.74926 28.922 9.88996e-18)
(-8.17391 26.8466 1.27597e-17)
(-10.4293 24.2706 -2.42342e-17)
(-12.596 21.405 1.19962e-17)
(-14.603 18.2857 -1.77333e-19)
(-16.4674 14.9639 4.37324e-19)
(-18.2569 11.5266 2.49212e-18)
(-20.0935 8.10674 -2.7501e-18)
(-22.0977 4.89841 -1.92357e-20)
(-24.3339 2.09871 0)
(-26.7684 0.0343762 2.74084e-20)
(-29.1741 -0.991677 0)
(-31.1325 -0.86114 5.90456e-18)
(-32.205 0.214106 -4.26635e-19)
(-32.1806 1.75859 -5.80629e-18)
(-31.1846 3.28757 -5.03939e-18)
(-29.5563 4.51486 5.04449e-18)
(-27.6242 5.38078 -2.3677e-19)
(-25.5833 5.93497 -2.58922e-19)
(-23.494 6.22012 -4.98825e-18)
(-21.3145 6.22535 5.25373e-18)
(-18.9422 5.88462 0)
(-16.2665 5.1181 5.96688e-18)
(-13.2438 3.90191 -5.88095e-18)
(-9.97322 2.33108 2.93644e-19)
(-6.72924 0.627058 -4.51163e-19)
(-3.87833 -0.918078 0)
(-1.73875 -2.0454 0)
(-0.426941 -2.62214 0)
(0.180495 -2.70043 -3.81959e-19)
(0.340616 -2.44641 5.99632e-18)
(0.306063 -2.04686 -5.66207e-18)
(0.260042 -1.64371 0)
(0.297932 -1.31722 0)
(0.45161 -1.09861 5.19663e-18)
(0.7204 -0.984599 -4.87014e-18)
(1.09665 -0.958517 4.86868e-18)
(1.56947 -0.99924 -3.7329e-18)
(2.12291 -1.0792 5.14635e-19)
(2.72369 -1.18879 -3.68133e-18)
(3.33828 -1.33089 4.60447e-18)
(3.94646 -1.4993 -7.27986e-18)
(4.53426 -1.68152 6.78458e-18)
(5.08975 -1.86298 0)
(5.602 -2.02787 -3.388e-19)
(6.06041 -2.16063 -5.06414e-18)
(6.45499 -2.24763 7.2777e-19)
(6.77716 -2.27817 8.69686e-18)
(7.02012 -2.24439 -7.2383e-18)
(7.17875 -2.1409 3.07938e-18)
(7.24935 -1.9649 2.64369e-18)
(7.22978 -1.71696 -1.99293e-18)
(7.12038 -1.40261 -2.26682e-19)
(6.92529 -1.0336 -1.69253e-18)
(6.65368 -0.628154 1.59889e-18)
(6.32002 -0.20961 -3.10775e-19)
(5.94319 0.196687 -1.0958e-18)
(5.54428 0.567538 9.62135e-19)
(5.14385 0.88578 0)
(4.75955 1.14247 -5.86284e-19)
(4.40482 1.33663 2.50334e-19)
(4.089 1.473 9.44197e-19)
(3.81838 1.5592 -3.86297e-19)
(3.59654 1.6018 2.49242e-19)
(3.41878 1.5972 -2.43542e-19)
(0.486985 -1.77713 -2.59161e-17)
(0.679758 -7.92872 0)
(2.35984 -11.3715 0)
(-0.931319 -16.8352 1.43024e-19)
(-6.12366 -18.9818 0)
(-13.183 -20.6271 0)
(-20.4731 -21.9394 0)
(-26.7937 -23.2488 1.36999e-19)
(-31.4363 -24.7459 0)
(-34.0988 -26.3615 -3.01449e-19)
(-34.8034 -27.9798 1.60114e-17)
(-33.7476 -29.5256 -4.06215e-17)
(-31.1604 -30.9833 2.47012e-17)
(-27.2528 -32.3424 0)
(-22.335 -33.5795 -1.19489e-19)
(-16.8901 -34.6094 -2.40332e-19)
(-11.4724 -35.3331 0)
(-6.51497 -35.6279 4.61754e-17)
(-2.26406 -35.4386 -9.37801e-17)
(1.1823 -34.8057 9.97809e-19)
(3.83963 -33.8367 4.56589e-17)
(5.80923 -32.6546 3.04822e-19)
(7.23066 -31.3645 0)
(8.23224 -29.9695 -3.5675e-17)
(8.93471 -28.4556 3.72478e-17)
(9.38521 -26.708 -2.9974e-17)
(9.57735 -24.6025 3.07765e-17)
(9.53065 -22.0555 2.3961e-17)
(9.31453 -19.0779 -2.39904e-17)
(9.00833 -15.7581 0)
(8.67368 -12.2357 -1.59315e-17)
(8.34797 -8.65639 1.60797e-17)
(8.04356 -5.14463 2.79172e-19)
(7.7693 -1.79539 -1.07943e-17)
(7.5537 1.33799 1.11257e-17)
(7.4404 4.22609 7.68122e-20)
(7.46888 6.83583 -2.84032e-19)
(7.65462 9.12548 -8.49522e-18)
(7.97714 11.057 8.52647e-18)
(8.37232 12.6118 7.80559e-18)
(8.73722 13.7942 1.39619e-19)
(8.96713 14.6391 -8.21365e-18)
(9.00269 15.1983 0)
(8.85 15.5248 3.82012e-19)
(8.56689 15.6643 -5.24734e-18)
(8.23764 15.6478 1.18602e-17)
(7.9416 15.4818 -1.0745e-17)
(7.73355 15.1582 4.89692e-18)
(7.63819 14.664 0)
(7.65918 14.0023 2.53501e-19)
(7.78273 13.1956 -4.22764e-18)
(7.97127 12.2616 4.15149e-18)
(8.17916 11.2162 -1.06529e-19)
(8.38474 10.0991 -3.70037e-18)
(8.59122 8.95844 2.70059e-18)
(8.80147 7.83108 -3.22361e-18)
(9.01471 6.74631 -3.20906e-18)
(9.22803 5.73029 6.38599e-18)
(9.43557 4.8015 -5.22414e-18)
(9.62656 3.9726 5.48638e-18)
(9.78656 3.25223 0)
(9.90027 2.64383 -2.73387e-19)
(9.95496 2.1454 -3.41527e-18)
(9.94232 1.75147 2.92381e-18)
(9.85731 1.45635 6.3871e-19)
(9.69573 1.25644 0)
(9.45297 1.15019 1.66351e-18)
(9.12508 1.13587 -1.47863e-18)
(8.71156 1.20819 -1.8895e-19)
(8.21847 1.35545 -9.78957e-20)
(7.66033 1.55808 2.05809e-19)
(7.06 1.78954 4.95396e-20)
(6.4461 2.01993 -5.08762e-19)
(5.84845 2.22157 4.53707e-19)
(5.29304 2.37456 -1.90646e-20)
(4.7984 2.46965 0)
(4.37478 2.50739 -2.02422e-19)
(4.02591 2.49446 1.24841e-19)
(3.75165 2.43917 0)
(3.54187 2.33844 2.69011e-20)
(9.86812 -5.66656 -8.46717e-19)
(33.0056 -15.6924 -5.96733e-17)
(41.5966 -25.5534 5.47619e-17)
(34.2522 -21.9867 -1.0811e-16)
(16.8322 -16.1178 5.35015e-17)
(1.47335 -10.4327 5.51023e-19)
(-7.38421 -7.76433 4.42112e-17)
(-9.58584 -7.89893 -4.59542e-17)
(-7.38126 -9.27841 -4.22902e-19)
(-3.3619 -10.4973 -7.37128e-20)
(0.74845 -10.911 -3.26081e-17)
(4.12154 -10.4859 -2.75106e-17)
(6.45448 -9.44088 6.22095e-17)
(7.70547 -8.01488 -5.3877e-17)
(7.93434 -6.39569 1.0531e-16)
(7.23667 -4.7068 -5.1573e-17)
(5.73114 -3.01449 0)
(3.59042 -1.35163 0)
(1.04178 0.255044 4.31488e-17)
(-1.67294 1.76001 -2.11363e-18)
(-4.30769 3.09117 -4.08413e-17)
(-6.59419 4.13498 3.55253e-17)
(-8.22549 4.73198 -6.90252e-17)
(-8.92939 4.72811 3.28979e-17)
(-8.6118 4.09242 2.69687e-17)
(-7.42178 2.9763 -2.99116e-18)
(-5.67089 1.63581 -2.56506e-17)
(-3.68837 0.316823 1.20178e-19)
(-1.73468 -0.790041 -1.14845e-19)
(0.0135055 -1.55272 2.2015e-19)
(1.4727 -1.91918 0)
(2.64597 -1.90284 1.35804e-17)
(3.58478 -1.5597 -2.62795e-17)
(4.35452 -0.963059 1.26701e-17)
(5.01539 -0.186154 0)
(5.60975 0.701728 -9.93105e-18)
(6.1598 1.64223 9.96455e-18)
(6.66795 2.59396 0)
(7.11483 3.52971 0)
(7.46382 4.44432 -6.83918e-18)
(7.67568 5.34758 7.10077e-18)
(7.71963 6.24519 1.21918e-19)
(7.59138 7.14653 0)
(7.32423 8.05995 5.01709e-18)
(6.97039 8.97169 -7.19143e-19)
(6.58404 9.8562 -5.3599e-18)
(6.21461 10.6824 -2.46845e-19)
(5.90509 11.4293 5.18268e-19)
(5.68397 12.0758 0)
(5.56548 12.6014 -3.77763e-18)
(5.55577 12.9887 6.73951e-18)
(5.65449 13.2253 -3.43908e-18)
(5.8575 13.3047 -4.27164e-19)
(6.16013 13.2282 -3.11716e-18)
(6.55482 12.9882 5.33552e-19)
(7.02878 12.5904 4.86012e-18)
(7.57355 12.0676 -1.77922e-18)
(8.16356 11.4411 0)
(8.7523 10.7218 0)
(9.29106 9.93264 1.55442e-19)
(9.73785 9.105 1.37888e-19)
(10.0657 8.27248 0)
(10.2665 7.46516 1.97104e-18)
(10.3459 6.70629 -1.95701e-18)
(10.3151 6.01324 -1.80599e-18)
(10.1811 5.39959 1.09547e-19)
(9.94454 4.87623 1.05409e-18)
(9.60221 4.45106 -8.14571e-19)
(9.15347 4.12758 7.96064e-19)
(8.60521 3.90334 5.32932e-20)
(7.97432 3.76859 2.54073e-19)
(7.28787 3.70551 -2.64001e-19)
(6.58103 3.68887 -7.50138e-20)
(5.89259 3.6895 1.06455e-19)
(5.25835 3.68028 5.11577e-20)
(4.70487 3.64198 -3.11842e-20)
(4.24634 3.56605 1.36473e-19)
(3.8859 3.45292 -3.08087e-19)
(3.62078 3.30864 -3.74025e-20)
(3.43745 3.126 -3.70154e-20)
(-3.97418 2.58286 1.98606e-17)
(-29.3503 20.2143 3.38445e-19)
(-67.9935 41.4008 -2.67529e-17)
(-94.3985 58.3146 5.15587e-17)
(-102.291 62.8693 -2.5083e-17)
(-94.0494 58.9414 1.92325e-17)
(-73.6192 48.117 -2.9693e-18)
(-47.0114 33.6519 -1.82485e-17)
(-21.3609 19.4892 1.19921e-17)
(-1.76193 8.40341 -1.25276e-17)
(10.2769 1.09934 6.41988e-18)
(15.7619 -3.13502 -7.0507e-18)
(16.5066 -5.415 9.3924e-19)
(14.2807 -6.71217 -7.4121e-19)
(10.6045 -7.74608 1.88835e-19)
(6.6827 -8.90957 1.64935e-19)
(3.31111 -10.293 -1.2226e-17)
(0.764217 -11.7482 1.24502e-17)
(-1.06878 -13.0507 -2.33171e-19)
(-2.40649 -14.0702 -3.22963e-19)
(-3.32924 -14.849 -1.50909e-17)
(-3.73296 -15.5619 1.48226e-17)
(-3.4779 -16.3543 0)
(-2.58738 -17.2015 1.68405e-19)
(-1.28781 -17.9397 0)
(0.157368 -18.4187 0)
(1.62963 -18.6001 1.04791e-19)
(3.11941 -18.5148 5.22302e-18)
(4.58737 -18.1692 -5.38276e-18)
(5.92296 -17.5454 -3.17116e-18)
(7.01483 -16.6371 2.97962e-18)
(7.78301 -15.4821 2.05696e-19)
(8.21796 -14.1586 -1.98983e-19)
(8.37197 -12.7592 0)
(8.32231 -11.362 2.08922e-20)
(8.14076 -10.0137 0)
(7.87942 -8.73236 0)
(7.57246 -7.51964 -3.71546e-20)
(7.23949 -6.37016 0)
(6.89037 -5.27301 0)
(6.53347 -4.22123 3.72336e-18)
(6.17611 -3.21248 -3.40959e-18)
(5.82381 -2.23731 0)
(5.48865 -1.28487 0)
(5.18864 -0.347903 0)
(4.94537 0.58476 -1.5927e-19)
(4.77373 1.50514 2.4867e-19)
(4.68083 2.38853 2.83541e-18)
(4.67319 3.21226 -3.0526e-18)
(4.75553 3.95867 2.55292e-18)
(4.92787 4.61404 -2.82836e-18)
(5.18385 5.16945 2.65965e-19)
(5.51024 5.62331 8.77462e-20)
(5.88615 5.97729 0)
(6.28983 6.24103 0)
(6.69254 6.42008 -1.12726e-18)
(7.05884 6.50545 -8.02609e-20)
(7.36862 6.49997 1.0841e-18)
(7.62101 6.42325 -8.50927e-19)
(7.82577 6.29175 7.50231e-19)
(7.99934 6.11681 1.1843e-18)
(8.15739 5.908 -1.37992e-19)
(8.30592 5.67638 -2.11562e-18)
(8.43542 5.43525 9.96508e-19)
(8.52157 5.19839 2.80482e-20)
(8.53256 4.97799 1.28044e-19)
(8.43938 4.78322 4.80362e-19)
(8.22434 4.61975 -8.25671e-19)
(7.88507 4.49012 3.47738e-19)
(7.43384 4.39468 4.44235e-20)
(6.89415 4.33198 2.11326e-20)
(6.29729 4.29795 6.44274e-21)
(5.67954 4.28439 0)
(5.07935 4.27832 7.63719e-21)
(4.5327 4.26397 0)
(4.06753 4.2269 -3.45793e-19)
(3.69979 4.15789 -5.19068e-20)
(3.43347 4.05408 3.75669e-19)
(3.26661 3.91972 -3.02075e-19)
(3.18352 3.7408 -1.7424e-19)
(4.85238 -4.57932 6.24397e-17)
(8.59692 -8.79587 -9.3651e-17)
(7.12589 -6.54893 -4.06229e-19)
(0.251061 -2.79604 -9.16623e-17)
(-6.78067 2.3179 9.36019e-17)
(-13.8539 6.10284 -8.80136e-17)
(-20.2327 8.11552 1.74828e-16)
(-25.5509 8.27475 -8.61384e-17)
(-30.372 6.60884 7.85398e-17)
(-35.3896 3.899 -7.92103e-17)
(-41.0349 1.09391 0)
(-47.1213 -1.21146 -4.0114e-19)
(-52.8075 -2.98458 8.35643e-19)
(-56.6274 -4.67151 0)
(-56.9274 -6.86568 0)
(-52.7663 -9.95579 0)
(-44.7125 -13.8555 0)
(-34.7314 -17.916 -4.16609e-19)
(-25.1439 -21.2781 0)
(-17.4764 -23.3184 1.16138e-17)
(-12.0046 -23.9011 -1.12231e-17)
(-8.12376 -23.4389 -1.28134e-17)
(-4.91416 -22.5114 1.32524e-17)
(-1.65551 -21.5921 7.91057e-18)
(1.96055 -20.9127 -8.34903e-18)
(5.85531 -20.5049 5.92385e-18)
(9.75913 -20.2793 -6.10806e-18)
(13.3913 -20.0681 5.24477e-18)
(16.4618 -19.6687 -2.45706e-19)
(18.6427 -18.9582 -5.10407e-18)
(19.7758 -17.8466 0)
(19.8796 -16.3705 -5.41286e-20)
(19.1349 -14.6642 -3.61827e-20)
(17.8342 -12.927 0)
(16.2863 -11.3402 -2.08196e-20)
(14.7291 -9.99312 0)
(13.2913 -8.88477 0)
(12.0069 -7.96086 1.79178e-21)
(10.8636 -7.15071 -3.8566e-19)
(9.83451 -6.40474 4.2985e-19)
(8.89771 -5.69899 1.06155e-18)
(8.04252 -5.02345 -1.07631e-18)
(7.26548 -4.37271 -1.60923e-20)
(6.56582 -3.73995 0)
(5.94496 -3.11654 1.52496e-18)
(5.40624 -2.49471 -1.32644e-18)
(4.95414 -1.86965 0)
(4.59071 -1.24278 0)
(4.31579 -0.618844 -1.22956e-18)
(4.12833 -0.0066136 1.28849e-18)
(4.02637 0.582525 1.19665e-18)
(4.00732 1.13686 -1.14943e-18)
(4.06838 1.646 -9.30351e-19)
(4.20686 2.1013 1.5733e-18)
(4.42057 2.49748 -7.31376e-19)
(4.70638 2.83035 -1.38954e-19)
(5.05563 3.10063 0)
(5.45529 3.31332 6.88514e-21)
(5.89111 3.47404 -3.27114e-19)
(6.34419 3.58721 5.22939e-19)
(6.78879 3.65764 -2.62928e-19)
(7.19238 3.69108 0)
(7.51842 3.69407 -4.21713e-20)
(7.732 3.67401 0)
(7.80667 3.63943 -2.80977e-20)
(7.73021 3.59964 2.31136e-20)
(7.50711 3.56392 5.16327e-20)
(7.15675 3.54038 1.67924e-19)
(6.7083 3.53528 -1.01201e-19)
(6.19478 3.55271 6.87421e-20)
(5.64864 3.59448 3.76889e-19)
(5.09986 3.65968 -4.74948e-19)
(4.5759 3.74402 5.0164e-19)
(4.10171 3.83934 -4.87923e-19)
(3.69839 3.93427 7.00432e-19)
(3.38094 4.01628 -4.86324e-19)
(3.15652 4.07426 -6.73606e-19)
(3.02479 4.09987 6.53016e-19)
(2.98386 4.09236 -1.39754e-19)
(3.01569 4.02873 1.42494e-19)
(5.88526 -3.26957 -2.29409e-18)
(24.6598 -5.42522 -8.14254e-18)
(29.6046 -6.80403 2.12197e-17)
(10.055 11.5105 -2.9301e-17)
(-17.5596 31.6167 1.70489e-17)
(-31.6601 47.273 4.50378e-19)
(-33.913 57.6583 -3.02557e-17)
(-31.4409 65.3192 6.62051e-17)
(-27.103 71.4785 3.68158e-18)
(-20.9783 76.1475 -4.07443e-17)
(-13.006 79.124 -9.80042e-20)
(-3.5849 80.367 4.85583e-17)
(6.44061 80.051 -4.94505e-17)
(15.9725 78.5025 4.56636e-17)
(23.9206 76.0613 -4.64815e-17)
(29.603 72.8968 -3.83899e-17)
(33.0151 69.0108 3.90158e-17)
(34.6956 64.3381 4.21572e-19)
(35.3627 58.8981 0)
(35.5851 52.8874 1.90816e-17)
(35.6456 46.6666 -1.94755e-17)
(35.5866 40.5375 2.62844e-19)
(35.4205 34.7098 -9.30371e-18)
(35.1897 29.2408 9.18212e-18)
(34.9611 24.1073 3.69869e-19)
(34.7731 19.2553 0)
(34.609 14.6564 -1.62261e-19)
(34.4154 10.3499 -5.95158e-20)
(34.0993 6.41867 1.80452e-18)
(33.451 2.93307 -1.72193e-18)
(32.2364 0.0550947 3.77597e-19)
(30.3077 -2.06133 -2.85639e-19)
(27.5831 -3.2634 9.56235e-20)
(24.2461 -3.65019 -1.63761e-18)
(20.7424 -3.55207 3.04995e-18)
(17.5817 -3.29949 -1.44639e-18)
(15.0708 -3.08386 -7.4085e-19)
(13.2237 -2.93975 7.30372e-19)
(11.868 -2.83108 -3.85552e-20)
(10.8071 -2.72037 3.51432e-20)
(9.90904 -2.59897 1.2147e-20)
(9.11732 -2.47975 2.99641e-19)
(8.42111 -2.37808 4.12706e-20)
(7.82415 -2.29692 -3.25604e-19)
(7.32716 -2.22368 2.6221e-19)
(6.92373 -2.13649 -2.98633e-19)
(6.60276 -2.01384 0)
(6.35265 -1.8417 -2.7602e-19)
(6.16407 -1.616 1.87461e-19)
(6.03119 -1.34161 -2.37822e-19)
(5.95115 -1.0295 -3.37513e-20)
(5.92241 -0.69354 -1.22715e-20)
(5.94298 -0.34802 -1.72994e-20)
(6.00905 -0.00611807 -2.05561e-20)
(6.1138 0.320826 2.52563e-19)
(6.24693 0.623539 6.06607e-20)
(6.39487 0.894713 0)
(6.54161 1.12895 3.22112e-19)
(6.66947 1.32314 -3.25933e-19)
(6.76042 1.47668 0)
(6.79836 1.59122 4.42526e-19)
(6.77201 1.67046 -2.80476e-19)
(6.67701 1.72004 0)
(6.51648 1.74757 7.53492e-20)
(6.29939 1.76258 0)
(6.03742 1.77623 7.51636e-19)
(5.74204 1.80041 -1.5248e-18)
(5.42293 1.84628 7.70135e-19)
(5.08832 1.92272 -6.30114e-20)
(4.74624 2.03509 -6.88843e-20)
(4.40581 2.18474 8.83438e-19)
(4.07791 2.36915 -7.79831e-19)
(3.77495 2.58226 1.48139e-19)
(3.50982 2.81499 1.49095e-19)
(3.29427 3.05603 -2.46191e-19)
(3.13713 3.29286 -1.00293e-19)
(3.04347 3.51315 -1.16734e-18)
(3.01465 3.70536 -3.34845e-20)
(3.0527 3.86385 1.13469e-18)
(3.14452 3.96845 2.87952e-19)
(9.09148 -4.76325 0)
(41.2033 -21.7574 -9.54822e-20)
(79.3865 -41.9658 -4.83718e-19)
(102.484 -55.8388 -3.58632e-17)
(109.989 -60.6971 7.59251e-17)
(111.6 -61.4136 -8.30604e-17)
(112.333 -60.7289 4.33956e-17)
(112.622 -59.5717 0)
(111.313 -57.9394 1.12045e-19)
(106.991 -55.5231 -5.51392e-17)
(98.4744 -52.0169 5.63599e-17)
(85.1649 -47.2644 5.75641e-17)
(67.3485 -41.2544 -1.1631e-16)
(46.3504 -34.1154 2.30565e-18)
(24.423 -26.185 3.70389e-18)
(4.18353 -17.9634 5.32483e-17)
(-12.2084 -9.96581 4.00592e-19)
(-23.4556 -2.70179 -4.22567e-17)
(-29.1958 3.47369 4.26633e-17)
(-30.0425 8.51439 1.25109e-19)
(-27.5066 12.6708 2.95722e-19)
(-23.4282 16.2526 2.78116e-19)
(-19.1867 19.3726 -2.50295e-17)
(-15.3676 21.9206 4.42384e-18)
(-12.0204 23.7133 2.14019e-17)
(-9.02773 24.6197 3.27314e-19)
(-6.29524 24.5988 -1.20581e-17)
(-3.787 23.6953 2.13945e-17)
(-1.50909 22.0296 -1.60861e-17)
(0.502482 19.7881 6.68039e-18)
(2.18613 17.1821 0)
(3.51808 14.416 -3.63498e-18)
(4.49317 11.6973 5.17818e-18)
(5.25799 9.14753 -1.58838e-18)
(5.98847 6.83998 -9.04318e-19)
(6.77048 4.83117 9.98598e-19)
(7.54792 3.15509 1.52701e-20)
(8.17506 1.82483 0)
(8.50871 0.836018 -4.73564e-20)
(8.47949 0.167038 2.07488e-18)
(8.11661 -0.227708 -2.19683e-18)
(7.53242 -0.419188 7.59058e-20)
(6.87913 -0.491942 -7.34167e-20)
(6.29616 -0.523349 0)
(5.86985 -0.565494 0)
(5.62088 -0.638448 -1.48001e-18)
(5.51889 -0.73626 1.73197e-18)
(5.51066 -0.840112 5.33686e-20)
(5.54558 -0.930572 1.36712e-18)
(5.58923 -0.994443 -2.7693e-18)
(5.62491 -1.02627 1.18835e-18)
(5.64867 -1.02679 0)
(5.66288 -1.0005 -1.2371e-18)
(5.67154 -0.953497 1.13105e-18)
(5.67771 -0.8921 0)
(5.68273 -0.821984 -1.07285e-18)
(5.68635 -0.747743 1.01921e-18)
(5.68732 -0.672623 -9.73359e-19)
(5.68378 -0.598357 8.03385e-19)
(5.67348 -0.525016 0)
(5.65366 -0.450945 -2.25728e-19)
(5.62082 -0.37295 -7.7695e-20)
(5.57076 -0.28682 8.52189e-19)
(5.49903 -0.188095 -7.94401e-20)
(5.40179 -0.0728125 -8.16045e-19)
(5.27679 0.0620671 0)
(5.12406 0.218628 -7.30621e-20)
(4.94621 0.398223 0)
(4.74827 0.601692 0)
(4.53726 0.829358 1.50821e-18)
(4.3216 1.08075 -1.47032e-18)
(4.11061 1.35419 -1.26153e-18)
(3.91386 1.64632 -1.75708e-19)
(3.74049 1.95194 1.27876e-18)
(3.59848 2.26404 1.59082e-18)
(3.49408 2.57416 -1.39875e-18)
(3.43166 2.87309 1.49559e-19)
(3.41419 3.15145 1.37972e-18)
(3.44489 3.40059 -3.02462e-18)
(3.52194 3.62296 1.01776e-18)
(6.80079 0.701204 1.27729e-16)
(7.12243 7.94931 -9.52164e-17)
(1.26093 14.4771 -8.7759e-17)
(0.496279 21.5914 8.9752e-17)
(2.28456 24.5027 4.72716e-19)
(1.36302 28.3988 4.63451e-19)
(-5.18851 33.5657 0)
(-18.497 40.0125 5.81152e-17)
(-38.3895 47.3551 -5.92394e-17)
(-63.1429 54.7142 0)
(-89.1501 60.5479 -2.94159e-17)
(-111.129 62.7786 5.05588e-17)
(-123.501 59.4586 -7.16662e-18)
(-122.621 49.714 -2.09012e-17)
(-108.65 34.4127 8.11918e-18)
(-85.7321 15.9325 4.36924e-19)
(-59.8372 -2.92641 -7.10077e-19)
(-35.566 -20.0849 0)
(-14.8151 -34.2723 4.32131e-18)
(1.75624 -44.5305 -4.04117e-18)
(13.0324 -50.1806 -4.5769e-19)
(18.2247 -51.3435 3.81818e-18)
(18.3642 -49.1744 -4.56159e-18)
(15.6569 -45.2615 4.05166e-18)
(11.9261 -40.7865 -4.17353e-18)
(8.17017 -36.3207 -3.32162e-19)
(4.85954 -32.1021 3.85066e-18)
(2.19613 -28.2464 -6.32631e-19)
(0.234104 -24.811 -5.47757e-18)
(-1.05234 -21.8108 9.30293e-19)
(-1.71969 -19.2293 1.77587e-18)
(-1.82769 -17.0339 3.80408e-19)
(-1.43779 -15.2009 -2.93512e-19)
(-0.65171 -13.6949 0)
(0.358756 -12.4525 -3.29349e-20)
(1.38372 -11.396 -5.506e-20)
(2.2631 -10.4722 0)
(2.92853 -9.65471 -2.77271e-18)
(3.39479 -8.92911 2.86601e-18)
(3.71362 -8.27651 7.99223e-20)
(3.93779 -7.67215 0)
(4.10869 -7.09314 -7.64532e-20)
(4.25593 -6.52618 -2.75596e-18)
(4.39817 -5.97003 2.72729e-18)
(4.5433 -5.43285 0)
(4.68995 -4.92648 2.26786e-18)
(4.8317 -4.46122 -2.60842e-18)
(4.9619 -4.04292 0)
(5.07674 -3.67261 0)
(5.17607 -3.34742 1.09108e-19)
(5.26253 -3.06232 1.0438e-19)
(5.34 -2.81164 0)
(5.41229 -2.58997 -1.79363e-18)
(5.48216 -2.39243 1.87264e-18)
(5.55078 -2.21472 1.76002e-18)
(5.61752 -2.05294 -1.6689e-19)
(5.68004 -1.90356 -3.32567e-18)
(5.73464 -1.76338 3.21508e-18)
(5.77678 -1.6295 1.27171e-19)
(5.80175 -1.49933 -1.29455e-18)
(5.80524 -1.37048 1.47195e-19)
(5.78401 -1.24069 0)
(5.73624 -1.10761 0)
(5.66172 -0.968736 -1.30342e-18)
(5.56167 -0.82137 1.46341e-18)
(5.43859 -0.662719 0)
(5.29586 -0.490111 -1.7266e-19)
(5.13759 -0.301246 0)
(4.96842 -0.0944462 -1.11224e-18)
(4.79343 0.131141 1.08524e-18)
(4.61799 0.37539 -3.00383e-19)
(4.44759 0.637084 -2.26432e-18)
(4.28765 0.913831 1.98978e-18)
(4.14328 1.20206 -2.72261e-19)
(4.01909 1.49711 0)
(3.91915 1.79337 0)
(3.84715 2.08461 0)
(3.80676 2.36414 1.97835e-18)
(3.80231 2.62418 1.94369e-19)
(3.84392 2.88593 -3.27155e-18)
(38.7041 -15.1235 -6.67707e-17)
(81.4378 -33.0168 -9.81795e-17)
(99.4054 -37.5438 1.00203e-16)
(99.4125 -37.951 -9.70189e-17)
(94.3333 -33.9147 9.97424e-17)
(82.6492 -29.271 6.65672e-19)
(65.7788 -24.8682 6.39293e-19)
(45.3851 -20.5392 0)
(22.6345 -15.9409 -1.2664e-19)
(-1.54182 -10.341 0)
(-26.2816 -3.29291 5.18434e-19)
(-50.4254 5.18239 7.03398e-17)
(-72.3999 14.5049 -7.13075e-17)
(-90.5172 23.6431 -5.74531e-17)
(-103.556 31.4654 5.78971e-17)
(-111.063 37.0149 -4.38446e-17)
(-112.405 39.4146 4.63744e-17)
(-104.877 37.637 0)
(-84.4562 30.8946 0)
(-52.3498 19.8473 0)
(-19.2423 7.41991 2.28933e-17)
(3.06346 -2.55755 -4.44331e-17)
(12.4629 -8.32553 2.40074e-18)
(14.4344 -11.0255 3.71177e-17)
(13.8576 -12.4378 -1.82182e-17)
(12.6577 -13.3373 0)
(11.4032 -13.8615 -3.58804e-19)
(10.3293 -14.0834 0)
(9.55204 -14.0856 9.56667e-18)
(9.11094 -13.9285 -9.44039e-18)
(8.99145 -13.6519 9.16503e-20)
(9.13932 -13.2814 0)
(9.47222 -12.8327 -5.62267e-18)
(9.88749 -12.3152 1.055e-17)
(10.2782 -11.736 -4.99397e-18)
(10.5583 -11.1078 3.76024e-18)
(10.6907 -10.4476 -7.1042e-18)
(10.6723 -9.77106 3.33932e-18)
(10.5244 -9.09149 0)
(10.278 -8.4181 0)
(9.96373 -7.75645 0)
(9.60817 -7.11055 -1.99936e-18)
(9.23375 -6.48529 5.83383e-18)
(8.85881 -5.88691 -3.73e-18)
(8.49744 -5.32271 0)
(8.15926 -4.79964 3.28944e-18)
(7.84998 -4.323 -3.19137e-18)
(7.57237 -3.89567 -2.97574e-18)
(7.32726 -3.51797 2.76862e-19)
(7.11422 -3.18805 7.14099e-20)
(6.93192 -2.90254 6.48481e-20)
(6.77823 -2.65711 2.69542e-18)
(6.65022 -2.44701 0)
(6.5442 -2.26744 0)
(6.45589 -2.11385 2.23476e-18)
(6.38066 -1.98197 -2.41661e-18)
(6.31388 -1.86789 0)
(6.25114 -1.76803 0)
(6.1885 -1.67902 -1.49762e-19)
(6.12267 -1.59753 -2.22254e-19)
(6.05092 -1.52023 0)
(5.97117 -1.44373 0)
(5.88188 -1.36458 2.58386e-19)
(5.78207 -1.27943 2.48469e-19)
(5.67137 -1.18506 -1.87377e-18)
(5.55002 -1.07864 3.27801e-18)
(5.41888 -0.957755 1.46905e-19)
(5.27942 -0.820553 -3.03434e-18)
(5.13368 -0.665832 3.12305e-18)
(4.98416 -0.493092 -2.81081e-18)
(4.83375 -0.302581 5.0358e-19)
(4.68561 -0.0953045 1.31044e-18)
(4.54311 0.126996 -2.50113e-18)
(4.40978 0.361906 -4.00007e-20)
(4.2893 0.606427 4.67109e-18)
(4.18563 0.857087 -2.56577e-18)
(4.10315 1.10995 0)
(4.04693 1.3605 -5.22733e-19)
(4.02419 1.60641 0)
(4.05105 1.85997 1.94979e-18)
(8.42365 -4.66094 0)
(45.0491 -19.4144 -2.11305e-20)
(92.4299 -38.4077 2.43903e-20)
(111.056 -48.389 8.00964e-17)
(91.0803 -45.0335 -1.60365e-16)
(51.1454 -34.692 7.88762e-17)
(10.1454 -23.3957 -6.5022e-19)
(-21.6041 -14.3335 0)
(-42.2317 -8.00775 0)
(-53.7783 -3.6066 0)
(-58.702 -0.195256 -5.30161e-19)
(-58.6702 2.84832 -4.22971e-19)
(-54.6879 5.832 0)
(-47.5192 8.85588 -8.31508e-20)
(-37.8948 11.8955 5.93422e-19)
(-26.5699 14.8833 -3.949e-17)
(-14.3989 17.739 3.88783e-17)
(-2.47288 20.2942 1.77401e-19)
(7.87369 22.1911 0)
(15.3832 22.9326 -1.48348e-19)
(19.5617 22.2612 3.91378e-19)
(21.0302 20.4242 -2.10176e-17)
(20.9924 17.9638 3.19145e-18)
(20.43 15.311 1.79668e-17)
(19.8283 12.6797 4.73248e-19)
(19.324 10.1662 -2.82004e-20)
(18.8947 7.82679 9.21352e-18)
(18.4749 5.68793 -8.91936e-18)
(18.0184 3.74898 -4.07819e-21)
(17.5221 1.99109 -2.20853e-19)
(17.0193 0.39727 -1.88474e-19)
(16.5612 -1.03245 3.35689e-18)
(16.1675 -2.27321 -3.38909e-18)
(15.7957 -3.28441 -1.12895e-19)
(15.3633 -4.03207 1.05149e-19)
(14.8028 -4.51258 -3.71114e-21)
(14.1102 -4.7575 1.03349e-20)
(13.3428 -4.82196 0)