/*--------------------------------*- C++ -*----------------------------------*\
| =========                 |                                                 |
| \\      /  F ield         | OpenFOAM: The Open Source CFD Toolbox           |
|  \\    /   O peration     | Version:  2012                                  |
|   \\  /    A nd           | Website:  www.openfoam.com                      |
|    \\/     M anipulation  |                                                 |
\*---------------------------------------------------------------------------*/
FoamFile
{
    version     2.0;
    format      ascii;
    class       volScalarField;
    location    "0.97";
    object      p;
}
// * * * * * * * * * * * * * * * * * * * * * * * * * * * * * * * * * * * * * //

dimensions      [0 2 -2 0 0 0 0];


internalField   nonuniform List<scalar> 
42400
(
-6509.86
-6403.51
-6289.86
-6165.35
-6027.77
-5861.62
-5649.59
-5383.11
-5067.22
-4716.06
-4345.51
-3968.35
-3592.65
-3222.39
-2858.85
-2502.04
-2151.68
-1808.12
-1474.05
-1157.3
-870.989
-629.542
-442.64
-311.77
-231.501
-192.934
-183.959
-191.881
-205.381
-216.177
-219.694
-214.716
-202.459
-185.368
-165.997
-146.386
-127.884
-111.331
-97.2591
-85.8799
-77.0309
-70.268
-65.0777
-61.0348
-57.8431
-55.3039
-53.274
-51.6387
-50.2992
-49.1691
-48.1744
-47.2537
-46.3581
-45.45
-44.5023
-43.4965
-42.4213
-41.271
-40.0448
-38.7454
-37.3781
-35.9506
-34.4718
-32.9511
-31.3984
-29.8232
-28.2344
-26.6401
-25.0474
-23.4623
-21.89
-20.3346
-18.7992
-17.2859
-15.7956
-14.3272
-12.877
-11.4436
-10.0392
-8.6242
5170.85
5125.49
5065.04
4968.2
4825.9
4645.82
4436.21
4207.71
3970.67
3732.53
3496.59
3262.8
3029.17
2793.12
2552.75
2307.35
2057.15
1803.56
1549.01
1297.43
1055.5
832.562
638.346
479.246
355.468
262.996
196.455
152.103
125.765
112.941
110.034
114.051
121.993
131.044
138.937
143.827
144.037
138.619
127.599
111.953
93.1651
73.3562
54.1796
36.6447
21.2503
8.12522
-2.82017
-11.7826
-19.0003
-24.7165
-29.1594
-32.5331
-35.0151
-36.7563
-37.8831
-38.5002
-38.694
-38.5354
-38.0827
-37.3842
-36.4808
-35.4071
-34.1937
-32.8674
-31.4521
-29.969
-28.4368
-26.8717
-25.2876
-23.6962
-22.1071
-20.5283
-18.9665
-17.4266
-15.9129
-14.4277
-12.9727
-11.5515
-10.1775
-8.81048
2908.07
2967.27
3075.68
3218.45
3392.25
3555.24
3682.81
3762.19
3791.31
3774.32
3715.55
3616.98
3480.13
3307.6
3103.44
2873.36
2625.42
2368.93
2113.64
1868.9
1642.32
1438.31
1257.73
1098.73
957.756
831.684
718.557
616.239
525.01
445.067
376.484
318.934
271.539
232.763
200.267
171.744
145.539
120.766
97.3028
75.5347
56.2941
39.3768
24.646
11.9785
1.21561
-7.83834
-15.3846
-21.6165
-26.7062
-30.8028
-34.0341
-36.5099
-38.3254
-39.565
-40.3043
-40.6114
-40.5479
-40.1687
-39.5221
-38.6505
-37.5906
-36.3745
-35.0305
-33.584
-32.0576
-30.4718
-28.8446
-27.192
-25.5274
-23.8624
-22.2066
-20.5679
-18.953
-17.3672
-15.8149
-14.2995
-12.8235
-11.3917
-10.0187
-8.67772
68.74
-157.857
-458.697
-811.115
-1219.56
-1617.99
-1974.13
-2277.21
-2536.05
-2767.79
-2980.43
-3164.85
-3302.99
-3379.02
-3383.97
-3315.08
-3174.93
-2971.92
-2720.33
-2436.2
-2136.57
-1837.56
-1551.33
-1286.25
-1047.4
-837.883
-660.232
-515.165
-400.292
-311.215
-242.938
-190.543
-150.115
-118.407
-92.9564
-72.5258
-56.5106
-44.6288
-36.4911
-31.5877
-29.6249
-29.625
-30.9397
-33.0866
-35.6451
-38.2959
-40.8084
-43.0268
-44.8592
-46.2614
-47.2241
-47.7618
-47.9044
-47.6914
-47.1667
-46.3755
-45.3611
-44.1627
-42.8146
-41.3452
-39.778
-38.1323
-36.4248
-34.6703
-32.8824
-31.0742
-29.2577
-27.4438
-25.6423
-23.8615
-22.1088
-20.39
-18.7102
-17.0735
-15.4832
-13.9418
-12.451
-11.0141
-9.64452
-8.3103
-11167.8
-10591.4
-9827.04
-9017.02
-8172.43
-7399.08
-6691.36
-6034.7
-5427.18
-4877.47
-4393.78
-3977.19
-3623.7
-3328.95
-3088.99
-2898.24
-2745.67
-2618.17
-2512.54
-2427.9
-2342.08
-2225.59
-2079.73
-1923.26
-1757.66
-1574.86
-1379.58
-1184.99
-1002.55
-841.016
-704.799
-593.014
-501.205
-424.914
-361.193
-308.313
-264.66
-228.668
-199.082
-174.807
-154.894
-138.534
-125.046
-113.866
-104.535
-96.6769
-89.9911
-84.2355
-79.2163
-74.7787
-70.7989
-67.1784
-63.84
-60.7241
-57.7856
-54.9914
-52.3167
-49.743
-47.2559
-44.843
-42.4943
-40.2011
-37.9573
-35.7587
-33.6036
-31.4921
-29.4256
-27.4065
-25.4374
-23.5207
-21.659
-19.8542
-18.108
-16.4219
-14.7972
-13.2344
-11.7335
-10.2966
-8.93519
-7.61368
3175.73
3115.34
3030.13
2881.99
2649.36
2309.7
1877.47
1397.17
929.135
525.185
210.394
-17.6034
-174.531
-276.115
-334.505
-360.472
-363.659
-352.572
-334.691
-316.222
-301.13
-291.86
-290.136
-295.216
-302.355
-302.816
-290.753
-267.943
-243.258
-226.779
-223.131
-230.437
-243.272
-255.587
-262.525
-262.194
-255.121
-243.142
-228.137
-211.592
-194.7
-178.306
-162.93
-148.84
-136.13
-124.779
-114.7
-105.769
-97.8464
-90.7936
-84.4793
-78.7875
-73.62
-68.8957
-64.549
-60.5272
-56.787
-53.292
-50.0112
-46.9175
-43.9871
-41.1996
-38.5379
-35.9886
-33.5409
-31.1874
-28.9226
-26.7426
-24.6448
-22.6273
-20.6886
-18.8274
-17.0428
-15.3336
-13.699
-12.1377
-10.6479
-9.23018
-7.89358
-6.59773
3493.58
3447.4
3391.16
3310.78
3180.61
3017.01
2833.54
2651.53
2490.74
2356.57
2236.58
2106.86
1943.87
1734.73
1479.79
1189.54
879.439
565.342
260.818
-22.2926
-271.746
-475.151
-623.45
-715.157
-752.843
-736.604
-666.554
-556.604
-438.177
-340.304
-265.289
-200.067
-145.096
-111.032
-99.1434
-100.339
-106.501
-113.555
-119.366
-123.443
-125.673
-126.056
-124.729
-121.95
-118.045
-113.355
-108.182
-102.767
-97.2807
-91.8314
-86.4858
-81.2855
-76.2596
-71.4311
-66.8183
-62.4334
-58.2818
-54.3621
-50.6669
-47.1844
-43.9
-40.7979
-37.8629
-35.0838
-32.4427
-29.932
-27.5429
-25.2678
-23.1004
-21.0356
-19.0689
-17.1964
-15.4147
-13.7208
-12.1117
-10.5845
-9.13628
-7.76634
-6.4817
-5.23757
-6247.79
-6107.3
-5950.94
-5788.05
-5631.44
-5454.57
-5220.76
-4904.06
-4503.1
-4033.8
-3512.57
-2951.29
-2368.15
-1797.18
-1283.42
-862.536
-547.357
-328.431
-188.166
-110.372
-80.965
-86.597
-115.396
-158.093
-207.397
-256.493
-298.635
-328.577
-343.968
-344.553
-331.731
-310.639
-289.1
-271.846
-258.012
-245.443
-232.694
-218.96
-204.798
-190.565
-176.564
-163.105
-150.466
-138.85
-128.371
-119.039
-110.765
-103.392
-96.7378
-90.6283
-84.9224
-79.5252
-74.3839
-69.477
-64.8004
-60.3565
-56.1468
-52.1687
-48.4156
-44.8769
-41.5404
-38.3926
-35.4203
-32.6112
-29.9537
-27.4379
-25.0549
-22.797
-20.6574
-18.6301
-16.7099
-14.8918
-13.1715
-11.545
-10.0085
-8.55811
-7.19002
-5.90291
-4.70189
-3.53861
5933.49
5685.53
5336.16
4854.04
4174.03
3408.83
2666.52
2018
1464.25
964.199
482.155
9.40654
-436.317
-819.542
-1105.82
-1279.59
-1345.39
-1317.71
-1216.42
-1066.08
-891.698
-714.694
-550.864
-411.058
-301.091
-222.107
-171.175
-142.443
-128.848
-123.744
-121.954
-120.265
-117.002
-111.478
-105.061
-98.7621
-92.987
-88.3364
-85.0192
-82.8828
-81.6074
-80.8234
-80.2009
-79.5021
-78.5906
-77.4093
-75.9464
-74.2092
-72.2102
-69.964
-67.4885
-64.8062
-61.946
-58.9429
-55.8357
-52.6644
-49.4676
-46.2808
-43.1349
-40.0555
-37.0635
-34.1746
-31.4002
-28.7474
-26.2199
-23.8185
-21.5423
-19.3887
-17.3539
-15.4339
-13.6239
-11.9193
-10.3152
-8.80717
-7.39054
-6.06073
-4.81337
-3.64662
-2.56383
-1.51426
3028.87
3240.36
3523.41
3792.28
4044
4189.54
4221.86
4156.79
4015.89
3820.09
3587.89
3333.31
3065.64
2791.36
2514.79
2239.54
1970.22
1712.3
1471.13
1250.8
1052.61
876.16
719.665
580.982
458.184
349.579
254.849
175.114
111.138
62.9765
29.3412
7.35855
-6.7619
-16.8794
-25.1796
-32.5245
-39.1261
-45.0687
-50.0717
-54.1563
-57.4252
-59.851
-61.6362
-62.9419
-63.8362
-64.3201
-64.3572
-63.9281
-63.0393
-61.7183
-60.0021
-57.9307
-55.5473
-52.9022
-50.052
-47.0583
-43.982
-40.8798
-37.8003
-34.7834
-31.8598
-29.0514
-26.3728
-23.832
-21.4322
-19.1725
-17.0497
-15.0588
-13.1936
-11.4477
-9.81432
-8.2871
-6.85978
-5.52654
-4.28185
-3.12027
-2.03688
-1.02954
-0.100022
0.803095
-5624.9
-5197.03
-4614.87
-3967.17
-3241.38
-2545.84
-1900.74
-1317.01
-805.672
-372.365
-13.442
282.15
527.048
730.039
892.879
1011.11
1077.26
1085.76
1038.36
946.092
825.731
693.088
558.178
426.283
301.706
189.832
94.8734
18.1235
-41.1208
-84.4905
-114.461
-135.617
-150.823
-161.322
-167.304
-168.764
-166.087
-159.982
-151.624
-141.887
-131.287
-120.727
-110.71
-101.471
-93.1437
-85.7495
-79.2154
-73.4163
-68.2147
-63.4843
-59.1177
-55.0278
-51.1482
-47.4319
-43.8498
-40.3885
-37.0459
-33.8274
-30.742
-27.7998
-25.0089
-22.3748
-19.9001
-17.5843
-15.4239
-13.4135
-11.5458
-9.81266
-8.20537
-6.71523
-5.33379
-4.05305
-2.86559
-1.76463
-0.743897
0.202537
1.07979
1.89007
2.63293
3.35847
4515.79
4219.08
3804.65
3255.35
2534.93
1754.53
991.811
301.188
-293.684
-796.573
-1224.29
-1595.39
-1924.34
-2217.83
-2474.55
-2689.38
-2858.95
-2978.9
-3042.64
-3040.94
-2958.29
-2777
-2498.33
-2157.67
-1806.67
-1484.98
-1207.93
-975.336
-783.015
-625.823
-499.311
-397.831
-317.474
-255.132
-207.879
-172.902
-147.548
-129.414
-116.431
-106.941
-99.7618
-94.0279
-89.0573
-84.502
-80.1639
-75.9297
-71.7352
-67.5421
-63.3277
-59.082
-54.8075
-50.5208
-46.251
-42.0374
-37.9252
-33.96
-30.1824
-26.6244
-23.307
-20.2409
-17.4274
-14.8605
-12.5287
-10.4169
-8.50747
-6.78199
-5.22186
-3.80932
-2.52787
-1.3626
-0.300376
0.670182
1.55883
2.3739
3.12256
3.81117
4.44476
5.02531
5.55308
6.0745
-8148.7
-7981.91
-7749.39
-7398.05
-6868.72
-6150.52
-5283.07
-4347.49
-3428.73
-2585.07
-1844
-1218.53
-722.67
-367.746
-148.806
-43.6589
-22.9678
-60.6961
-135.17
-229.543
-329.828
-422.782
-498.321
-553.224
-590.414
-613.028
-620.665
-612.078
-587.238
-549.205
-502.526
-451.845
-401.133
-353.289
-309.935
-271.68
-238.515
-210.087
-185.905
-165.667
-148.761
-134.476
-122.29
-111.729
-102.371
-93.8644
-85.9321
-78.3717
-71.0532
-63.9125
-56.942
-50.178
-43.6855
-37.5429
-31.8265
-26.5973
-21.892
-17.7198
-14.0644
-10.8898
-8.14965
-5.79225
-3.76768
-2.02908
-0.53395
0.755551
1.87242
2.84489
3.69687
4.4483
5.11552
5.71172
6.24743
6.73104
7.16928
7.56772
7.93043
8.25847
8.55201
8.85132
-2250.57
-2130.42
-1944.38
-1711.62
-1429.29
-1211.26
-1133.8
-1213.33
-1393.58
-1583.66
-1701.22
-1709.44
-1636.67
-1531.56
-1403.24
-1237.6
-1039.6
-830.742
-630.244
-453.091
-311.219
-210.93
-150.91
-123.295
-117.103
-122.374
-132.168
-142.411
-150.93
-156.868
-160.205
-161.346
-160.756
-158.863
-156.024
-152.65
-149.092
-145.586
-141.99
-138.043
-133.907
-129.455
-124.517
-118.932
-112.576
-105.382
-97.3549
-88.5743
-79.1919
-69.4196
-59.5129
-49.7489
-40.4019
-31.7185
-23.894
-17.0553
-11.2507
-6.45318
-2.5757
0.505489
2.92579
4.81321
6.2783
7.41199
8.28756
8.96367
9.48697
9.89442
10.2147
10.4698
10.6763
10.8465
10.9893
11.1109
11.2158
11.3072
11.3867
11.4535
11.5066
11.5777
11117.6
10918.4
10662.8
10299.3
9807.48
9199.2
8488.24
7691.29
6829.2
5934.28
5056.55
4252.99
3559.92
2976.39
2476.82
2036.19
1643.71
1300.63
1011.11
774.843
585.232
434.035
316.173
229.96
172.464
137.288
116.341
102.977
92.8036
82.9741
71.7297
58.0661
41.6271
22.6585
1.9123
-19.5261
-40.4834
-59.9606
-77.3436
-91.9407
-103.228
-110.906
-114.892
-115.284
-112.35
-106.467
-98.1027
-87.7881
-76.0911
-63.5927
-50.8627
-38.4361
-26.7867
-16.301
-7.2557
0.200231
6.05206
10.4098
13.4784
15.5117
16.765
17.4605
17.7722
17.8277
17.7175
17.5049
17.2337
16.9343
16.6266
16.3234
16.0325
15.7578
15.5009
15.2621
15.0403
14.8343
14.642
14.4594
14.2834
14.1362
-1555.75
-1272.22
-879.359
-426.297
105.442
620.071
1067.55
1412.9
1644.86
1781.82
1863.39
1929.62
2001.13
2075.01
2137.64
2181.03
2208.33
2228.68
2248.03
2261.01
2249.59
2192.1
2076.57
1904.74
1691.33
1459.07
1230.16
1020.3
836.408
678.131
541.768
423.601
321.26
233.456
159.241
97.6726
47.5937
7.74082
-23.0489
-45.9349
-61.9944
-72.1743
-77.3267
-78.2136
-75.52
-69.8783
-61.8934
-52.1602
-41.2716
-29.8144
-18.3544
-7.41281
2.56023
11.2117
18.3064
23.7397
27.5422
29.8695
30.9716
31.1441
30.6761
29.8116
28.7342
27.5698
26.3986
25.2686
24.2062
23.2239
22.3252
21.5082
20.7678
20.0972
19.4889
18.9355
18.4301
17.9662
17.5379
17.1385
16.7624
16.4219
-4817.55
-4875.52
-4949.75
-5000.3
-5035.41
-5041.26
-5032.68
-5023.02
-5017.17
-5010.54
-4987.34
-4924.37
-4801.24
-4608.84
-4348.87
-4029.91
-3664.53
-3269.66
-2866.24
-2478.71
-2129
-1825.58
-1560.9
-1321.71
-1101.02
-900.395
-724.527
-576.387
-455.329
-357.813
-279.192
-215.416
-163.703
-122.265
-89.5914
-65.3165
-48.3554
-37.4061
-31.209
-28.4511
-27.9195
-28.5592
-29.4511
-29.8307
-29.1188
-26.9347
-23.1021
-17.6497
-10.8037
-2.96446
5.34302
13.5484
21.1319
27.7026
33.0291
37.0227
39.6984
41.1431
41.5002
40.9654
39.7724
38.1612
36.3405
34.4663
32.6409
30.9237
29.3439
27.911
26.6219
25.4662
24.4296
23.4972
22.6542
21.8873
21.185
20.5376
19.9367
19.3744
18.8442
18.3498
-1535.39
-1641.8
-1741.64
-1788.93
-1824.01
-1846.95
-1873.92
-1910.22
-1957.12
-2016.41
-2086.45
-2163.66
-2243.65
-2321.43
-2390.09
-2442.2
-2464.09
-2427.08
-2295.07
-2064.27
-1789.01
-1539.23
-1341.77
-1180.08
-1031.66
-885.247
-738.179
-592.784
-454.803
-331.802
-228.765
-147.662
-87.1021
-44.8725
-18.5985
-4.46461
0.540849
-0.955651
-6.64788
-14.651
-23.4697
-31.9395
-39.1734
-44.5204
-47.5373
-47.9664
-45.7157
-40.8435
-33.5608
-24.2623
-13.5725
-2.34009
8.49588
18.141
26.1183
32.2852
36.7225
39.5987
41.1082
41.4735
40.952
39.8154
38.3134
36.6439
34.9454
33.3036
31.7642
30.3461
29.0509
27.8704
26.7921
25.8021
24.8877
24.0377
23.2427
22.4952
21.7892
21.119
20.4794
19.8692
-788.877
-338.493
283.642
947.223
1635.12
2239.46
2759.7
3209.06
3593.45
3913
4165.43
4346.94
4455.03
4491.59
4460.73
4366.68
4212.28
4001.23
3736.51
3419.32
3058.72
2679.42
2312
1977.64
1683.73
1426.95
1200.42
997.122
812.942
646.762
497.19
363.328
244.346
140.778
52.8594
-19.4736
-76.5485
-119.008
-147.854
-164.476
-170.596
-168.137
-159.053
-145.184
-128.169
-109.418
-90.125
-71.2948
-53.7506
-38.1087
-24.7217
-13.6122
-4.47769
3.09622
9.5568
15.2557
20.3272
24.7371
28.3313
31.0138
32.7924
33.7701
34.1011
33.9486
33.457
32.7431
31.8951
30.9759
30.0286
29.0807
28.1481
27.2395
26.3586
25.5067
24.6838
23.889
23.1215
22.3797
21.6616
20.965
8605.69
8428.88
8166.44
7773.08
7253.26
6680.53
6103.52
5550.92
5033.61
4549.4
4092.53
3660.17
3254.17
2879.96
2541.21
2238.8
1970.09
1729.99
1512.42
1310.97
1118.45
928.477
738.536
550.723
368.171
194.586
34.1113
-107.218
-222.985
-308.74
-363.508
-389.773
-392.4
-377.282
-350.352
-316.805
-280.626
-244.816
-211.86
-183.776
-161.738
-145.8
-134.957
-127.481
-121.358
-114.674
-105.92
-94.2056
-79.3839
-62.118
-43.7724
-25.4978
-8.71865
5.59485
17.0651
25.7151
31.6789
35.5984
37.9324
39.0266
39.1942
38.7672
37.9443
36.8896
35.725
34.5328
33.3633
32.2413
31.1748
30.1613
29.1939
28.2639
27.3642
26.4891
25.6354
24.8012
23.986
23.1895
22.4116
21.6495
4988.98
4903.79
4815.28
4717.15
4592.19
4450.73
4296.76
4137.56
3979.33
3822.32
3660.48
3488.49
3301.52
3096.27
2870.72
2622.75
2351.95
2063.76
1761.48
1435.27
1081.84
721.538
384.895
90.9718
-153.235
-346.563
-492.254
-596.483
-665.783
-705.561
-720.45
-714.513
-691.856
-655.615
-609.164
-556.006
-499.257
-441.547
-384.951
-330.862
-280.123
-232.402
-187.291
-145.458
-107.592
-74.2844
-45.9663
-22.8166
-4.71663
8.72048
18.0762
24.0473
27.3536
28.6609
28.5262
27.3772
25.5238
23.185
20.5194
17.6507
14.6857
11.7234
8.85674
6.17087
3.73915
1.61901
-0.151189
-1.55416
-2.59539
-3.30256
-3.71979
-3.89609
-3.8719
-3.67041
-3.29785
-2.75328
-2.04819
-1.21366
-0.29439
0.660484
1901.44
1750.8
1529.75
1198.81
743.159
208.464
-330.152
-810.424
-1211.34
-1539.52
-1806.37
-2022.87
-2200.45
-2345.44
-2453.84
-2514.9
-2518.58
-2460.52
-2346.97
-2190.16
-2000.55
-1785.38
-1553.93
-1320.87
-1102.65
-911.98
-755.897
-636.38
-551.319
-495.198
-459.905
-435.063
-410.056
-379.79
-344.854
-305.35
-259.825
-209.981
-159.97
-112.794
-69.1706
-29.5112
5.44398
35.9954
62.323
84.0027
100.544
111.706
117.643
118.588
115.03
108.24
99.3448
89.3358
79.0539
69.0849
59.7617
51.226
43.4983
36.5361
30.2751
24.6535
19.6238
15.1558
11.2344
7.8551
5.01694
2.7155
0.936081
-0.349563
-1.1816
-1.6057
-1.66424
-1.38929
-0.804507
0.0653511
1.1724
2.44023
3.76183
5.0507
-16076.1
-15379.8
-14497.6
-13524.1
-12411.5
-11191.1
-9840.15
-8400.42
-6973.61
-5658.8
-4501.99
-3498.62
-2628.63
-1882.93
-1263.85
-772.098
-399.867
-132.495
46.3894
152.153
202.517
222.006
236.233
252.927
255.75
225.871
162.764
79.4601
-10.3463
-95.8304
-169.288
-223.737
-255.516
-265.294
-257.442
-237.306
-209.057
-176.485
-143.188
-111.346
-82.0485
-55.7203
-32.3577
-11.7443
6.43409
22.7844
37.3981
50.1988
60.6031
68.4423
73.531
75.5101
74.6356
71.5576
66.9801
61.5112
55.6159
49.6157
43.7162
38.0396
32.6536
27.5933
22.8767
18.5149
14.5186
10.901
7.67907
4.87203
2.50047
0.584854
-0.855017
-1.80029
-2.23441
-2.14759
-1.54703
-0.470089
0.998324
2.72585
4.5396
6.28568
14159.1
13988.9
13780
13467.5
13025.9
12513.7
11949.4
11329.4
10643.1
9884.87
9065.74
8206.77
7324.01
6422.06
5504.83
4588.56
3696.35
2848.2
2059.19
1343.23
715.248
196.613
-181.245
-399.485
-481.582
-479.344
-434.725
-369.288
-297.149
-228.668
-168.953
-117.798
-74.0988
-38.1796
-11.2668
6.12423
15.5655
19.6416
20.9257
21.3568
22.1555
23.9968
26.8406
30.5375
34.89
39.2542
43.4263
47.2337
50.7793
53.8377
56.1226
57.3879
57.4959
56.439
54.3183
51.315
47.6402
43.5111
39.1243
34.6405
30.1792
25.8217
21.6205
17.6097
13.8156
10.2641
6.98591
4.01818
1.40481
-0.804633
-2.55701
-3.79892
-4.48231
-4.57299
-4.0629
-2.98408
-1.42125
0.486086
2.55741
4.60224
-4233.16
-4161.79
-4043.82
-3851.2
-3585.46
-3243.99
-2826.86
-2343.86
-1822.15
-1304.87
-837.207
-452.602
-165.672
31.432
168.621
280.492
386.092
484.592
563.325
609.93
617.927
589.997
545.654
517.366
521.295
538.962
538.573
505.234
446.312
376.299
306.797
244.454
193.683
157.114
133.773
118.796
106.201
92.4255
77.4003
61.9556
47.3212
34.2773
23.3252
15.0208
9.57055
6.82421
6.47146
8.09786
11.2061
15.2377
19.618
23.8097
27.3659
29.9672
31.4552
31.8222
31.1823
29.7249
27.6639
25.1964
22.4795
19.6252
16.709
13.7831
10.8895
8.06914
5.36701
2.83432
0.528486
-1.48805
-3.14987
-4.39192
-5.15473
-5.3926
-5.0848
-4.24772
-2.9438
-1.28349
0.576723
2.44269
-4898.48
-4822.42
-4736.37
-4636.05
-4529.37
-4376.22
-4145.4
-3838.05
-3495.96
-3182.13
-2946.78
-2806.97
-2748.92
-2739.93
-2741.63
-2723.35
-2666.6
-2566.15
-2422.28
-2237.09
-2016.24
-1770.51
-1516
-1271.58
-1053.77
-871.241
-723.072
-603.782
-508.291
-433.044
-374.992
-330.475
-294.703
-262.968
-231.94
-200.703
-170.34
-142.478
-118.205
-97.9248
-81.6508
-68.6559
-58.1067
-49.5771
-42.5353
-36.2665
-30.1923
-23.9413
-17.3608
-10.5133
-3.64649
2.87285
8.64866
13.3501
16.7837
18.9223
19.8862
19.8887
19.1712
17.9505
16.3933
14.6162
12.6977
10.6944
8.65256
6.616
4.62959
2.74086
1.0002
-0.539722
-1.82505
-2.80262
-3.4236
-3.65016
-3.46597
-2.88845
-1.97757
-0.836718
0.397871
1.58656
6811.98
6652.59
6423.48
6092.97
5604.92
5052.49
4500.89
3978.2
3469.52
2946.02
2395.37
1827.99
1268.5
745.256
283.428
-98.0449
-391.64
-600.104
-732.016
-797.917
-809.288
-778.443
-717.719
-638.327
-549.486
-458.123
-369.032
-285.444
-209.685
-143.518
-88.0445
-43.5067
-9.26557
15.77
32.6696
42.8331
47.3825
47.7779
44.9676
39.749
33.0766
25.5278
17.8005
10.5403
4.30525
-0.449084
-3.42374
-4.53006
-3.90964
-1.91102
0.977696
4.22764
7.36943
10.0595
12.0973
13.4092
14.0203
14.0246
13.5508
12.7298
11.6727
10.4639
9.16497
7.82235
6.47396
5.1538
3.8944
2.72788
1.68613
0.800273
0.0996499
-0.389839
-0.648474
-0.666937
-0.451803
-0.0307548
0.544647
1.20021
1.84676
2.37255
4524.31
4369.16
4198.16
4018.07
3735.77
3399.84
3006.85
2570.21
2141.05
1778.07
1510.96
1330.71
1209.83
1124.34
1060.32
1011.86
975.492
946.951
921.252
894.295
863.556
827.913
787.283
742.334
694.132
643.844
592.535
541.045
490.294
440.785
392.862
346.804
302.898
261.538
223.31
188.282
156.525
127.629
101.594
78.4923
58.3334
41.1137
26.8311
15.4596
6.92939
1.10617
-2.23132
-3.411
-2.87542
-1.16839
1.11409
3.41335
5.31354
6.61149
7.30893
7.53492
7.45039
7.18406
6.81309
6.37377
5.88132
5.34564
4.77899
4.19752
3.6202
3.06723
2.55902
2.11524
1.75409
1.49134
1.33928
1.30508
1.3885
1.57903
1.85345
2.17567
2.5006
2.78322
2.99043
3.08166
-7177.29
-6223.98
-5069.07
-4118.14
-3367.41
-2858.64
-2499.79
-2224.11
-1978.42
-1730.35
-1471.32
-1199.99
-917.3
-629.031
-340.895
-55.8719
220.133
472.476
680.947
829.525
913.603
939.905
921.311
871.439
801.681
720.607
634.491
548.023
464.406
386.02
314.385
250.332
194.218
146.084
105.724
72.692
46.3357
25.8497
10.3653
-0.980305
-8.98728
-14.3456
-17.6162
-19.2383
-19.5559
-18.8525
-17.3821
-15.3869
-13.0998
-10.7336
-8.46602
-6.42574
-4.68486
-3.2618
-2.13679
-1.27241
-0.628783
-0.169596
0.1373
0.320475
0.405517
0.415723
0.372957
0.29832
0.212317
0.134475
0.0825817
0.0717744
0.113677
0.215641
0.380153
0.604404
0.879983
1.1927
1.52282
1.84633
2.13787
2.37604
2.54695
2.62582
3542.59
3419.39
3268.82
3079.45
2834.34
2546.78
2228.52
1888.75
1534.39
1168.23
789.399
394.21
-21.045
-455.514
-895.69
-1304.65
-1627.26
-1816.27
-1857.33
-1772.2
-1602.78
-1391.38
-1170.02
-959.259
-771.042
-611.364
-481.882
-381.156
-305.838
-251.618
-213.818
-187.804
-169.414
-155.325
-143.235
-131.811
-120.515
-109.342
-98.5481
-88.4339
-79.2253
-71.0013
-63.7068
-57.1892
-51.2497
-45.695
-40.3784
-35.2265
-30.2503
-25.5392
-21.2343
-17.4788
-14.3615
-11.8849
-9.97403
-8.51574
-7.39742
-6.52803
-5.84108
-5.28934
-4.83848
-4.46226
-4.13959
-3.85275
-3.58645
-3.32726
-3.0635
-2.78523
-2.48458
-2.15619
-1.79784
-1.41112
-1.00187
-0.580198
-0.160046
0.242105
0.609641
0.928761
1.18366
1.35824
398.333
326.256
230.696
127.134
24.5574
-50.8034
-102.647
-148.53
-211.531
-316.753
-488.945
-748.242
-1096.11
-1502.78
-1903.6
-2213.93
-2372.01
-2365.54
-2226.33
-2013.51
-1788.64
-1592.76
-1441.08
-1330.75
-1250.27
-1186.37
-1126.98
-1061.13
-979.881
-879.29
-762.127
-636.304
-511.666
-396.976
-298.417
-218.686
-157.365
-112.159
-80.0572
-58.0768
-43.5917
-34.4202
-28.8541
-25.5783
-23.6295
-22.3455
-21.3093
-20.2937
-19.2063
-18.0419
-16.8437
-15.6744
-14.5918
-13.6301
-12.7932
-12.0606
-11.4025
-10.7926
-10.2145
-9.65985
-9.12474
-8.60601
-8.10008
-7.60302
-7.11113
-6.62131
-6.1311
-5.63867
-5.14281
-4.64311
-4.14023
-3.63624
-3.13496
-2.64208
-2.16508
-1.71251
-1.29269
-0.914665
-0.59436
-0.317326
-14279.9
-13622.8
-12801
-11880.2
-10807.9
-9613.33
-8332.7
-7050.03
-5847.85
-4779.33
-3873.64
-3137.49
-2546.99
-2055.23
-1615.89
-1212.15
-851.705
-563.461
-360.884
-223.18
-118.36
-29.4735
43.6957
97.087
130.443
146.892
149.943
142.32
125.962
102.622
74.8043
45.6443
17.7498
-6.84221
-26.3323
-40.2475
-48.9763
-53.3819
-54.4989
-53.3179
-50.672
-47.203
-43.3741
-39.5014
-35.7902
-32.3683
-29.3109
-26.6554
-24.4085
-22.5495
-21.0338
-19.801
-18.7848
-17.9223
-17.161
-16.4614
-15.7972
-15.1531
-14.5204
-13.8947
-13.2725
-12.6502
-12.0245
-11.393
-10.7545
-10.1095
-9.45941
-8.80657
-8.15363
-7.50351
-6.85933
-6.22449
-5.60273
-4.99824
-4.41567
-3.85975
-3.33504
-2.84765
-2.40423
-1.98501
9069.14
8562.67
7788.1
6757.34
5497.4
4367.4
3481.76
2788.08
2223.33
1773.99
1431.45
1174.27
991.422
878.99
812.598
757.773
712.58
692.218
690.434
692.429
699.019
713.273
727.284
727.112
703.224
653.742
582.644
497.221
406.047
317.233
236.923
168.752
114.687
74.2889
45.1547
24.7212
10.5674
0.687761
-6.39498
-11.6632
-15.7016
-18.8345
-21.2415
-23.0325
-24.2882
-25.0789
-25.472
-25.5344
-25.3318
-24.927
-24.376
-23.7261
-23.014
-22.2668
-21.5034
-20.7366
-19.9748
-19.2228
-18.482
-17.7505
-17.024
-16.2971
-15.5645
-14.8228
-14.0707
-13.3086
-12.5388
-11.7642
-10.9886
-10.2158
-9.44961
-8.69393
-7.95257
-7.2292
-6.52724
-5.84984
-5.20003
-4.57991
-3.98854
-3.43009
14652.9
14448.1
14164
13714.8
13039.8
12223.4
11334.7
10414.6
9473.7
8513.37
7550.78
6625.57
5781.55
5043.92
4410.6
3864.9
3389.3
2975.16
2619.04
2311.35
2029.13
1751.79
1472.47
1196.87
936.908
703.466
503.247
338.304
207.002
105.017
26.9446
-32.2268
-76.5294
-107.924
-128.298
-139.056
-141.229
-137.207
-128.669
-117.357
-104.849
-92.3306
-80.6035
-70.1297
-61.1006
-53.5138
-47.2525
-42.1505
-38.0345
-34.7434
-32.1313
-30.0654
-28.425
-27.1025
-26.0058
-25.0597
-24.2054
-23.3995
-22.6114
-21.8207
-21.0148
-20.1874
-19.3356
-18.4606
-17.5652
-16.6537
-15.7311
-14.8028
-13.874
-12.9495
-12.034
-11.1314
-10.2452
-9.37861
-8.53406
-7.7139
-6.92001
-6.15072
-5.40255
-4.70438
-6666.29
-6192.14
-5558.96
-4789.8
-3819.22
-2708.46
-1507.28
-306.67
789.444
1708.47
2424.89
2940.69
3265.73
3417.73
3425.61
3325.07
3153.43
2942.18
2708.34
2457.23
2191.24
1914.92
1636.65
1367.23
1116.09
889.494
688.971
512.96
358.987
224.984
110.16
14.859
-60.9304
-117.873
-156.222
-177.617
-184.776
-180.629
-167.975
-149.383
-127.259
-103.903
-81.4917
-61.9091
-46.4433
-35.5522
-28.8779
-25.5326
-24.4657
-24.7392
-25.6463
-26.7157
-27.6667
-28.3545
-28.7241
-28.7754
-28.5382
-28.0557
-27.3747
-26.5391
-25.5877
-24.5532
-23.4618
-22.3345
-21.1876
-20.0335
-18.8816
-17.739
-16.6108
-15.5008
-14.412
-13.3465
-12.3059
-11.2914
-10.304
-9.34452
-8.41346
-7.5059
-6.61734
-5.79598
-3061.49
-3230.59
-3474.41
-3763.78
-4084.8
-4379.43
-4612.02
-4759.21
-4821.71
-4824.89
-4800.24
-4768.38
-4734.74
-4694.82
-4639.95
-4560.29
-4448.1
-4297.69
-4103.14
-3859.23
-3563.21
-3218.65
-2839.57
-2448.52
-2069.19
-1719.56
-1408.78
-1139.24
-909.29
-715.233
-552.548
-417.008
-304.779
-213.34
-141.397
-87.9994
-51.5693
-29.7716
-19.4604
-17.1208
-19.5126
-24.199
-29.6568
-35.0299
-39.7535
-43.6809
-46.553
-48.3286
-49.095
-49.016
-48.2864
-47.0925
-45.5898
-43.8973
-42.1003
-40.2572
-38.4064
-36.5721
-34.7694
-33.007
-31.2897
-29.6196
-27.9974
-26.4228
-24.8947
-23.4121
-21.9737
-20.5782
-19.2243
-17.9108
-16.6366
-15.4007
-14.2021
-13.0399
-11.9132
-10.8216
-9.76415
-8.73409
-7.72779
-6.80167
-9718.8
-9385.28
-8962.85
-8461.34
-7870.46
-7217.22
-6511.55
-5768.63
-5008.77
-4256.89
-3542.2
-2895.44
-2342.73
-1900.66
-1573.54
-1354.04
-1225.93
-1166.5
-1149.4
-1149.71
-1148.06
-1131.8
-1094.66
-1038.33
-969.654
-897.37
-829.417
-770.901
-723.287
-684.737
-651.342
-618.706
-583.344
-543.798
-500.219
-454.269
-408.28
-363.867
-321.858
-282.568
-246.272
-213.363
-184.273
-159.25
-138.242
-120.916
-106.77
-95.245
-85.8078
-77.9959
-71.432
-65.823
-60.9495
-56.6506
-52.8096
-49.3414
-46.1828
-43.2858
-40.6124
-38.132
-35.8193
-33.6529
-31.6145
-29.6887
-27.8622
-26.1237
-24.4637
-22.8741
-21.3481
-19.8799
-18.4649
-17.0992
-15.7795
-14.5031
-13.2682
-12.0732
-10.9166
-9.7915
-8.69638
-7.68738
7170.61
6933.27
6624.53
6227.08
5680.71
5066.32
4422.73
3781.5
3167.61
2598.69
2088.38
1647.25
1282.42
997.074
790.54
658.367
590.609
568.031
561.85
543.218
498.698
435.728
367.98
305.757
252.333
206.672
166.57
129.783
94.0232
57.8706
21.2094
-14.9086
-49.0632
-80.0362
-107.111
-129.943
-148.199
-161.528
-169.613
-172.49
-170.674
-164.998
-156.508
-146.254
-135.157
-123.948
-113.152
-103.094
-93.942
-85.7479
-78.4863
-72.0892
-66.4579
-61.4939
-57.0997
-53.1856
-49.6726
-46.4935
-43.5922
-40.9224
-38.4469
-36.1354
-33.9639
-31.9128
-29.9665
-28.1125
-26.3403
-24.6416
-23.0092
-21.4376
-19.9219
-18.4583
-17.0436
-15.6752
-14.3513
-13.0706
-11.8316
-10.6276
-9.45776
-8.38123
4805.08
5040.74
5353.44
5609.06
5794.01
5913.61
5996.87
6032.39
6000.57
5891.44
5703.12
5440.18
5112.06
4730.18
4305.63
3847.53
3362.44
2856.31
2340.94
1837.57
1372.47
970.914
645.882
396.123
211.051
77.9082
-14.9818
-77.4271
-116.986
-139.898
-150.893
-153.837
-151.819
-147.077
-141.146
-135.032
-129.266
-123.927
-118.894
-114.078
-109.406
-104.875
-100.505
-96.2977
-92.2296
-88.256
-84.3338
-80.4379
-76.5674
-72.741
-68.9884
-65.3407
-61.8244
-58.4583
-55.2534
-52.2136
-49.3369
-46.6167
-44.044
-41.6078
-39.2963
-37.098
-35.0017
-32.9973
-31.0754
-29.228
-27.4481
-25.7297
-24.0677
-22.4582
-20.8976
-19.3836
-17.914
-16.4875
-15.1035
-13.762
-12.4619
-11.1971
-9.97151
-8.85906
-669.533
-783.61
-941.163
-1137.3
-1413.17
-1710.83
-1971.34
-2145.76
-2212.43
-2179.29
-2073.48
-1927.53
-1767.64
-1608.49
-1455.88
-1312.15
-1178.91
-1055.37
-936.639
-817.696
-700.446
-592.141
-500.919
-429.439
-375.317
-334.69
-303.888
-279.612
-259.076
-240.191
-221.662
-202.969
-184.254
-166.1
-149.18
-133.988
-120.746
-109.46
-100.023
-92.2857
-86.0527
-81.08
-77.0918
-73.8167
-71.0187
-68.5159
-66.1826
-63.9419
-61.7532
-59.5994
-57.4774
-55.3904
-53.3423
-51.3361
-49.3726
-47.4491
-45.5622
-43.7075
-41.88
-40.0754
-38.2905
-36.5233
-34.7729
-33.0398
-31.3248
-29.6298
-27.9567
-26.3074
-24.6838
-23.0877
-21.5206
-19.9838
-18.4785
-17.0057
-15.5662
-14.1607
-12.7877
-11.4439
-10.1463
-8.96824
2.45459
3.70465
3.25253
2.13652
1.02895
-0.231703
-1.76571
-3.51095
-5.39896
-7.40122
-9.50559
-11.6937
-13.9341
-16.1861
-18.4088
-20.5665
-22.6293
-24.5775
-26.4087
-28.1317
-29.7389
-31.1738
-32.3306
-33.1058
-33.4595
-33.3805
-32.876
-31.9573
-30.6589
-29.0472
-27.2132
-25.2556
-23.2658
-21.3164
-19.4581
-17.7206
-16.118
-14.6537
-13.3249
-12.1256
-11.0484
-10.0855
-9.22926
-8.47208
-7.80694
-7.22723
-6.7269
-6.30058
-5.9436
-5.652
-5.42261
-5.25296
-5.14132
-5.0867
-5.08889
-5.14846
-5.26691
-5.44666
-5.6912
-6.00503
-6.39361
-6.86302
-7.41979
-8.07065
-8.82213
-9.67943
-10.6443
-11.7124
-12.8705
-14.0964
-15.3587
-16.6192
-17.8339
-18.9548
-19.9324
-20.7201
-21.2788
-21.5797
-21.6072
-21.3611
-20.8501
-20.093
-19.1168
-17.9554
-16.6491
-15.243
-13.7851
-12.3229
-10.8996
-9.55098
-8.30362
-7.17442
-6.17155
-5.29583
-4.54218
-3.90101
-3.35974
-2.9044
-2.52117
-2.19754
-1.923
-1.6893
-1.49029
-1.32164
-1.18038
-1.06452
-0.972724
-0.90402
-0.857725
-0.833369
-0.830675
-0.849572
-0.890214
-0.953022
-1.03872
-1.14839
-1.28348
-1.44584
-1.63777
-1.86201
-2.12168
-2.42024
-2.76132
-3.14864
-3.58583
-4.07623
-4.62269
-5.22729
-5.89111
-6.61396
-7.39424
-8.22881
-9.11298
-10.0406
-11.0041
-11.9945
-13.0019
-14.0149
-15.0211
-16.0074
-16.9595
-17.8625
-18.701
-19.4598
-20.1238
-20.6791
-21.1136
-21.4174
-21.5837
-21.6091
-21.495
-21.2431
-20.8592
-20.352
-19.7329
-19.015
-18.2131
-17.3426
-16.4192
-15.4587
-14.476
-13.4847
-12.4974
-11.5248
-10.5761
-9.65901
-8.77971
-7.94312
-7.15298
-6.41187
-5.72126
-5.08147
-4.4918
-3.95059
-3.4555
-3.00371
-2.59224
-2.21811
-1.87852
-1.57093
-1.29306
-1.04291
-0.818709
-0.618861
-0.441961
-0.286751
-0.152121
-0.0370606
0.059299
0.137813
0.199112
0.243994
0.272692
0.286249
0.283998
0.268338
0.235901
0.194076
0.129706
0.0662301