/*--------------------------------*- C++ -*----------------------------------*\
| =========                 |                                                 |
| \\      /  F ield         | OpenFOAM: The Open Source CFD Toolbox           |
|  \\    /   O peration     | Version:  2012                                  |
|   \\  /    A nd           | Website:  www.openfoam.com                      |
|    \\/     M anipulation  |                                                 |
\*---------------------------------------------------------------------------*/
FoamFile
{
    version     2.0;
    format      ascii;
    class       surfaceScalarField;
    location    "0.97";
    object      phi;
}
// * * * * * * * * * * * * * * * * * * * * * * * * * * * * * * * * * * * * * //

dimensions      [0 3 -1 0 0 0 0];
oriented        oriented;


internalField   nonuniform List<scalar> 
84340
(
0.000350779
-0.000239524
-0.000111255
0.000856023
-0.000401853
-0.000103392
0.00127956
-0.000476482
5.29504e-05
0.00161562
-0.000572515
0.000236454
0.00189407
-0.000683246
0.000404793
0.00211787
-0.000780858
0.000557053
0.0022892
-0.000846926
0.000675601
0.00242966
-0.000870185
0.00072973
0.00258275
-0.000845933
0.000692835
0.00280031
-0.000773503
0.000555948
0.00312802
-0.000660847
0.000333136
0.00358851
-0.000517782
5.72961e-05
0.00417558
-0.00035581
-0.000231264
0.00485834
-0.000186391
-0.000496368
0.00559006
-1.90425e-05
-0.000712673
0.00631662
0.00014085
-0.000867413
0.00698142
0.000292715
-0.000957521
0.00752824
0.000437217
-0.000984028
0.00791415
0.000569622
-0.000955537
0.00811391
0.000677092
-0.000876851
0.00811856
0.000742083
-0.00074673
0.00793194
0.000753059
-0.000566442
0.00756751
0.000719564
-0.000355133
0.00704597
0.000671423
-0.000149881
0.00640253
0.000628293
1.51434e-05
0.00567128
0.000603814
0.000127435
0.00490015
0.000575963
0.000195163
0.00412571
0.000539149
0.000235294
0.00337608
0.000487643
0.000261986
0.0026721
0.000419938
0.000284047
0.00202843
0.000338343
0.00030533
0.00145463
0.000247353
0.000326442
0.000956698
0.000152196
0.000345737
0.000539249
5.7336e-05
0.000360113
0.000205795
-3.41415e-05
0.000367595
-4.15804e-05
-0.000120839
0.000368214
-0.000204608
-0.000201211
0.000364239
-0.000291934
-0.000271874
0.0003592
-0.000319849
-0.000328643
0.000356558
-0.000308712
-0.000370169
0.000359032
-0.00027721
-0.000399985
0.000368484
-0.000238108
-0.000424879
0.000385777
-0.00019805
-0.000450676
0.000410617
-0.000159732
-0.000479857
0.00044154
-0.000124061
-0.000511982
0.000476311
-9.13899e-05
-0.000545191
0.000512521
-6.19315e-05
-0.000577559
0.000548101
-3.58012e-05
-0.00060772
0.00058159
-1.3011e-05
-0.000634956
0.000612166
6.50413e-06
-0.000659057
0.000639542
2.28463e-05
-0.00068015
0.000663808
3.61312e-05
-0.000698587
0.000685302
4.64977e-05
-0.000714872
0.000704505
5.41385e-05
-0.00072961
0.000721969
5.9339e-05
-0.000743462
0.000738262
6.25052e-05
-0.00075708
0.000753914
6.41645e-05
-0.000771038
0.000769379
6.4939e-05
-0.000785768
0.000784993
6.54919e-05
-0.000801509
0.000800956
6.64611e-05
-0.0008183
0.000817331
6.83945e-05
-0.000835997
0.000834064
7.17028e-05
-0.000854333
0.000851025
7.66389e-05
-0.000872986
0.00086805
8.33023e-05
-0.000891648
0.000884985
9.16653e-05
-0.000910076
0.000901713
0.00010161
-0.000928116
0.000918172
0.000112965
-0.000945702
0.000934347
0.000125537
-0.000962838
0.000950265
0.000139133
-0.000979574
0.000965978
0.000153566
-0.000995979
0.000981546
0.000168662
-0.00101213
0.00099703
0.000184252
-0.00102807
0.00101248
0.000200162
-0.00104387
0.00102796
0.000216194
-0.00105953
0.0010435
0.000232105
-0.0010751
0.00105919
0.000247564
-0.00109058
0.00107512
0.00026211
-0.00110603
0.00109149
0.000275179
-0.00112164
0.00110857
0.000286105
-0.00113787
0.00112694
-0.00115512
0.00114867
0.000292554
-0.000159949
-7.95749e-05
-0.000232985
-0.000328817
-8.79932e-05
-0.000621474
0.000216659
-0.000877167
0.000593394
-0.00105998
0.000969207
-0.00115667
0.00129525
-0.00117297
0.00155247
-0.00112741
0.0017479
-0.00104136
0.00190649
-0.000932092
0.00205705
-0.000811408
0.00222573
-0.00068646
0.00243098
-0.000561066
0.00268215
-0.000437556
0.00298136
-0.000318259
0.00332935
-0.00020714
0.00372142
-9.93563e-05
0.00415278
5.8649e-06
0.00461517
0.000107228
0.00508708
0.000205183
0.00553107
0.00029809
0.00590155
0.000382584
0.00616624
0.00045487
0.00632664
0.00051102
0.00640633
0.000548603
0.00644296
0.000567189
0.00644223
0.000576696
0.00640285
0.000578529
0.00631572
0.000574768
0.00616796
0.000567694
0.00594782
0.000558483
0.0056488
0.000546376
0.00527282
0.000528179
0.00482771
0.000502447
0.0043299
0.000463671
0.00380668
0.000402378
0.0032839
0.000321572
0.00278422
0.000227807
0.00232546
0.000130118
0.00192194
3.33507e-05
0.00157372
-5.17696e-05
0.00128335
-0.000134513
0.00104722
-0.000214541
0.000858559
-0.000291197
0.000709411
-0.000362834
0.000592088
-0.000427869
0.000499899
-0.00048537
0.000427325
-0.000535146
0.00036992
-0.000577552
0.000324123
-0.00061326
0.000287074
-0.000643101
0.000256489
-0.000668002
0.000230581
-0.000688964
0.000208017
-0.000707046
0.000187887
-0.000723332
0.000169669
-0.000738861
0.000153177
-0.000754546
0.000138492
-0.000771082
0.000125863
-0.000788881
0.000115614
-0.00080805
0.000108038
-0.000828421
0.000103334
-0.00084963
0.000101569
-0.000871221
0.000102669
-0.000892749
0.000106447
-0.000913855
0.000112639
-0.000934308
0.000120944
-0.000954006
0.000131056
-0.00097295
0.000142693
-0.000991211
0.000155608
-0.00100889
0.000169595
-0.00102611
0.000184489
-0.00104297
0.000200166
-0.00105954
0.00021654
-0.00107591
0.000233564
-0.00109212
0.000251233
-0.00110825
0.000269589
-0.00112439
0.000288691
-0.00114074
0.000308501
-0.00115768
-0.0011759
0.000329289
-3.88827e-05
-4.06922e-05
-0.000130237
-0.000237462
-0.000161303
-0.000590408
-0.000109982
-0.000928488
-5.13459e-05
-0.00111862
-3.58943e-05
-0.00117212
-8.56015e-05
-0.00112326
-0.000195528
-0.00101748
-0.000343209
-0.000893679
-0.000499789
-0.000775511
-0.000637022
-0.000674176
-0.00074015
-0.000583332
-0.000807668
-0.000493548
-0.000847304
-0.00039792
-0.000872241
-0.000293322
-0.00089992
-0.000179461
-0.000940702
-5.85746e-05
-0.00100004
6.52064e-05
-0.00107856
0.000185745
-0.00116824
0.000294859
-0.00125507
0.000384923
-0.00132426
0.000451774
-0.00136402
0.000494631
-0.00136614
0.000513142
-0.00132573
0.000508188
-0.00124257
0.000484032
-0.00111366
0.000447784
-0.000943162
0.000408032
-0.000742019
0.000373625
-0.000525086
0.000350761
-0.000307899
0.000341295
-0.000104156
0.000342632
7.74263e-05
0.000346596
0.000234275
0.000345598
0.00035884
0.000339106
0.000442568
0.00031865
0.000483736
0.000280404
0.000487157
0.000224386
0.000463451
0.000153823
0.000420235
7.65672e-05
0.000383517
-1.50514e-05
0.000352013
-0.000103009
0.000326399
-0.000188928
0.00030379
-0.000268588
0.000282148
-0.000341193
0.000260397
-0.000406118
0.000238402
-0.000463375
0.000216609
-0.000513353
0.000195651
-0.000556594
0.000176094
-0.000593702
0.000158317
-0.000625324
0.000142496
-0.00065218
0.000128632
-0.0006751
0.000116617
-0.000695032
0.000106301
-0.000713017
9.75548e-05
-0.000730115
9.03095e-05
-0.000747301
8.45769e-05
-0.00076535
8.04389e-05
-0.000784743
7.80181e-05
-0.00080563
7.74387e-05
-0.000827842
7.87889e-05
-0.00085098
8.20969e-05
-0.000874529
8.7323e-05
-0.000897975
9.43667e-05
-0.000920899
0.000103083
-0.000943025
0.000113304
-0.000964226
0.00012485
-0.000984496
0.000137551
-0.00100391
0.00015125
-0.00102259
0.000165806
-0.00104067
0.000181096
-0.00105826
0.000197013
-0.00107546
0.000213464
-0.00109236
0.000230371
-0.00110903
0.000247665
-0.00112554
0.000265293
-0.00114202
0.000283204
-0.00115865
0.000301368
-0.00117585
-0.00119438
0.000319847
-0.000335563
0.000294871
-0.00105656
0.00048354
-0.00207137
0.000424402
-0.00330708
0.000307213
-0.00463238
0.000206689
-0.0059273
0.000122795
-0.00708822
3.76597e-05
-0.00804132
-6.4381e-05
-0.00874852
-0.000186479
-0.00920134
-0.000322687
-0.00941194
-0.000463576
-0.00939484
-0.000600437
-0.00917109
-0.000717296
-0.00876564
-0.000803369
-0.00821015
-0.000848811
-0.00754134
-0.000848275
-0.00679879
-0.000801122
-0.00602421
-0.000709376
-0.00525379
-0.000584671
-0.00451924
-0.0004397
-0.00384497
-0.000289347
-0.00324717
-0.000146019
-0.00273771
-1.48266e-05
-0.00232616
0.000101593
-0.00201441
0.000196429
-0.00179105
0.000260673
-0.00163613
0.000292868
-0.00152972
0.000301618
-0.00145679
0.000300696
-0.00140664
0.000300614
-0.00136959
0.000304245
-0.00132896
0.000302005
-0.0012747
0.000292337
-0.00120017
0.000271069
-0.00109958
0.000238516
-0.000977633
0.000196698
-0.00084286
0.000145631
-0.000706807
8.83339e-05
-0.00057851
2.55256e-05
-0.000461388
-4.05549e-05
-0.000367438
-0.000109001
-0.000293147
-0.000177301
-0.0002382
-0.000243875
-0.000199264
-0.000307524
-0.000173008
-0.000367449
-0.000156
-0.000423126
-0.000145148
-0.000474227
-0.000137927
-0.000520573
-0.000132406
-0.000562115
-0.000127185
-0.000598923
-0.000121314
-0.000631195
-0.000114211
-0.000659284
-0.00010559
-0.000683721
-9.5396e-05
-0.000705225
-8.37413e-05
-0.000724671
-7.08455e-05
-0.000743011
-5.69853e-05
-0.000761161
-4.24506e-05
-0.000779885
-2.75086e-05
-0.000799686
-1.23787e-05
-0.00082076
2.78329e-06
-0.000843004
1.78895e-05
-0.000866086
3.29148e-05
-0.000889554
4.78841e-05
-0.000912944
6.2856e-05
-0.000935871
7.79068e-05
-0.000958076
9.31158e-05
-0.000979435
0.000108555
-0.000999935
0.000124284
-0.00101964
0.00014035
-0.00103866
0.000156786
-0.0010571
0.000173617
-0.00107509
0.000190863
-0.00109271
0.000208542
-0.00111004
0.000226668
-0.00112716
0.000245255
-0.00114413
0.000264299
-0.00116106
0.000283778
-0.00117813
0.000303655
-0.00119572
-0.00121461
0.00032388
0.00048817
-0.0001933
0.00107381
-0.000102105
0.00126787
0.000230345
0.00103506
0.000540026
0.000507599
0.000734147
-0.000179151
0.000809546
-0.000913336
0.000771844
-0.00162614
0.00064842
-0.00229431
0.000481692
-0.00293367
0.000316672
-0.00358188
0.000184634
-0.00427561
9.32934e-05
-0.00502815
3.52506e-05
-0.00582996
-1.56602e-06
-0.00665501
-2.37585e-05
-0.0074664
-3.68806e-05
-0.00822022
-4.73083e-05
-0.00887098
-5.86143e-05
-0.00937899
-7.66543e-05
-0.00971052
-0.000108169
-0.00985053
-0.000149345
-0.00980006
-0.000196482
-0.00957403
-0.000240861
-0.0091894
-0.000283038
-0.00866196
-0.000331009
-0.00800621
-0.000395077
-0.00724689
-0.000466454
-0.00641689
-0.000528377
-0.00556171
-0.00055449
-0.00473684
-0.000524249
-0.00399282
-0.000439775
-0.00336388
-0.000326934
-0.00285322
-0.000218326
-0.00244698
-0.000135167
-0.00212583
-8.26343e-05
-0.00187418
-5.49562e-05
-0.00167474
-5.38094e-05
-0.0015102
-7.62023e-05
-0.00137005
-0.000114632
-0.00124727
-0.000163325
-0.00113827
-0.000218004
-0.00104031
-0.000275263
-0.000951669
-0.000332515
-0.00087133
-0.000387864
-0.000798742
-0.000440036
-0.000733529
-0.000488339
-0.000675187
-0.000532569
-0.000622906
-0.000572855
-0.000575549
-0.000609472
-0.000531778
-0.000642694
-0.000490245
-0.000672727
-0.000449786
-0.000699743
-0.000409539
-0.000723968
-0.000369
-0.000745764
-0.000328014
-0.000765658
-0.000286725
-0.000784299
-0.000245516
-0.000802371
-0.000204918
-0.000820482
-0.000165528
-0.000839076
-0.000127911
-0.000858376
-9.2524e-05
-0.00087839
-5.96587e-05
-0.000898951
-2.94149e-05
-0.000919798
-1.71114e-06
-0.000940648
2.36796e-05
-0.000961262
4.70801e-05
-0.000981477
6.88567e-05
-0.00100121
8.93772e-05
-0.00102046
0.00010898
-0.00103924
0.000127957
-0.00105764
0.00014655
-0.0010757
0.000164952
-0.00109349
0.000183314
-0.00111107
0.000201752
-0.00112848
0.000220357
-0.00114576
0.000239197
-0.00116297
0.000258322
-0.00118019
0.000277753
-0.00119756
0.000297461
-0.00121543
-0.00123446
0.000317311
-0.000255362
6.20621e-05
-0.000613991
0.000256525
-0.000972201
0.000588554
-0.00134436
0.000912185
-0.0017248
0.00111459
-0.00210343
0.00118817
-0.00247024
0.00113866
-0.0028063
0.000984479
-0.00308995
0.000765336
-0.00330388
0.000530606
-0.00343395
0.000314704
-0.00347798
0.00013732
-0.00344154
-1.18773e-06
-0.00333547
-0.000107637
-0.00317078
-0.000188449
-0.00296295
-0.000244714
-0.00273322
-0.000277032
-0.00250251
-0.00028933
-0.00229369
-0.000285475
-0.00212654
-0.000275318
-0.00200745
-0.000268429
-0.00193263
-0.000271305
-0.00188671
-0.000286784
-0.00184633
-0.000323416
-0.00179677
-0.000380571
-0.00172645
-0.00046539
-0.00163636
-0.00055655
-0.00153284
-0.000631896
-0.00143004
-0.000657294
-0.00135163
-0.000602651
-0.00132441
-0.000467002
-0.00135455
-0.00029679
-0.00141666
-0.000156214
-0.00147582
-7.60093e-05
-0.00150303
-5.54199e-05
-0.00149153
-6.64599e-05
-0.00144721
-9.8134e-05
-0.00138137
-0.000142037
-0.00130529
-0.000190716
-0.0012243
-0.000244308
-0.0011419
-0.000300406
-0.00106064
-0.000356522
-0.000982675
-0.000410483
-0.000909849
-0.000460689
-0.000843613
-0.000506272
-0.000784778
-0.000547174
-0.000733307
-0.00058404
-0.000688253
-0.000617909
-0.000647923
-0.000649802
-0.000610243
-0.000680374
-0.000573187
-0.000709783
-0.000535128
-0.000737802
-0.000495033
-0.000764063
-0.000452486
-0.000788312
-0.000407604
-0.000810539
-0.000360918
-0.000830985
-0.000313231
-0.000850057
-0.0002655
-0.000868213
-0.000218715
-0.000885862
-0.000173784
-0.000903307
-0.000131446
-0.000920728
-9.21965e-05
-0.0009382
-5.62696e-05
-0.000955725
-2.36514e-05
-0.000973266
5.88483e-06
-0.000990799
3.27012e-05
-0.00100829
5.72324e-05
-0.00102574
7.99297e-05
-0.00104315
0.00010122
-0.00106053
0.00012148
-0.0010779
0.000141031
-0.00109525
0.000160133
-0.00111259
0.000178995
-0.00112993
0.000197781
-0.00114726
0.000216618
-0.0011646
0.000235602
-0.00118196
0.000254799
-0.00119938
0.00027424
-0.001217
0.000293908
-0.0012351
-0.00125426
0.000313714
-9.81759e-05
0.000160238
-8.50559e-05
0.000243405
0.00018252
0.000320978
0.000659722
0.000434983
0.00123535
0.000538961
0.00180618
0.00061734
0.00228687
0.000657978
0.0026275
0.000643844
0.00282844
0.000564399
0.00293831
0.000420738
0.00302506
0.000227947
0.00314707
1.53174e-05
0.00332465
-0.000178767
0.00353735
-0.000320344
0.00374444
-0.000395538
0.00391675
-0.000417024
0.00405165
-0.000411931
0.00416443
-0.000402108
0.00427399
-0.000395031
0.00438642
-0.00038775
0.0044927
-0.000374713
0.00457468
-0.00035328
0.00461258
-0.000324681
0.00458111
-0.000291956
0.00445849
-0.000257945
0.00421687
-0.000223768
0.00384633
-0.000186017
0.00335083
-0.000136388
0.00276002
-6.64905e-05
0.00213024
2.71334e-05
0.00152497
0.000138262
0.000989945
0.000238238
0.000547643
0.000286088
0.000205396
0.000266238
-4.88816e-05
0.000198857
-0.000226499
0.000111158
-0.000347326
2.26923e-05
-0.000435902
-5.34597e-05
-0.000495029
-0.00013159
-0.000530798
-0.000208539
-0.000548669
-0.000282536
-0.00055308
-0.000352111
-0.000547973
-0.00041559
-0.00053707
-0.000471591
-0.000523763
-0.000519579
-0.000510708
-0.000560229
-0.000499378
-0.00059537
-0.000489824
-0.000627463
-0.000480842
-0.000658784
-0.000470496
-0.00069072
-0.000456805
-0.000723474
-0.000438305
-0.000756302
-0.000414322
-0.000788046
-0.000384958
-0.000817676
-0.000350911
-0.000844586
-0.00031325
-0.000868646
-0.00027322
-0.000890087
-0.000232095
-0.000909338
-0.000191064
-0.000926893
-0.000151149
-0.000943223
-0.000113145
-0.000958733
-7.75886e-05
-0.000973756
-4.47559e-05
-0.000988558
-1.4677e-05
-0.00100335
1.27862e-05
-0.00101826
3.79118e-05
-0.00103342
6.10507e-05
-0.00104888
8.25767e-05
-0.00106468
0.000102853
-0.00108081
0.000122208
-0.00109725
0.000140927
-0.00111397
0.000159245
-0.00113091
0.000177353
-0.00114804
0.000195403
-0.00116531
0.000213514
-0.00118271
0.000231779
-0.00120022
0.000250266
-0.00121787
0.000269011
-0.00123575
0.000288003
-0.00125409
-0.00127339
0.000307133
0.000432894
-0.000272655
0.0010865
-0.000410204
0.0017572
-0.000349717
0.00241203
-0.000219851
0.00299683
-4.58358e-05
0.00348106
0.000133107
0.00388769
0.000251354
0.00427348
0.000258048
0.00468518
0.000152697
0.00512505
-1.91251e-05
0.00555275
-0.000199756
0.0059101
-0.00034203
0.00614275
-0.000411418
0.00621249
-0.000390084
0.0061049
-0.000287946
0.00582494
-0.000137072
0.00540163
1.13807e-05
0.00486997
0.000129557
0.00426224
0.000212697
0.00360624
0.000268251
0.00292524
0.000306284
0.00223799
0.000333969
0.00155853
0.000354785
0.000897244
0.000369325
0.000263378
0.00037592
-0.000331485
0.000371096
-0.000869757
0.000352254
-0.00132791
0.000321763
-0.00168178
0.000287382
-0.00191045
0.000255802
-0.00199669
0.000224507
-0.00194184
0.000183386
-0.00178222
0.000126463
-0.00157688
6.09042e-05
-0.00135844
-1.95872e-05
-0.00114483
-0.000102451
-0.00094947
-0.000172666
-0.000767781
-0.000235149
-0.000606938
-0.000292433
-0.000469707
-0.000345769
-0.000356952
-0.000395292
-0.00026857
-0.000440494
-0.00020359
-0.00048057
-0.000160282
-0.000514899
-0.000136221
-0.00054364
-0.000128247
-0.000568204
-0.000132394
-0.000591224
-0.000144082
-0.000615775
-0.000158632
-0.000644234
-0.000171979
-0.000677373
-0.000181231
-0.000714223
-0.000184849
-0.000752684
-0.000182447
-0.000790448
-0.000174427
-0.000825696
-0.000161611
-0.000857401
-0.000144987
-0.00088527
-0.000125555
-0.000909518
-0.000104255
-0.000930638
-8.192e-05
-0.000949228
-5.92484e-05
-0.000965894
-3.67877e-05
-0.000981193
-1.49267e-05
-0.000995617
6.09756e-06
-0.00100958
2.61769e-05
-0.00102342
4.53206e-05
-0.00103741
6.36106e-05
-0.00105171
8.11784e-05
-0.00106645
9.81816e-05
-0.00108168
0.000114782
-0.00109741
0.000131135
-0.0011136
0.000147377
-0.00113021
0.000163623
-0.00114716
0.000179968
-0.00116438
0.000196489
-0.00118183
0.000213246
-0.00119947
0.000230285
-0.00121726
0.000247639
-0.00123522
0.000265321
-0.00125343
0.000283307
-0.00127208
-0.00129157
0.000301484
-0.000362881
9.02261e-05
-0.000909724
0.000136638
-0.00133589
7.64476e-05
-0.00163772
8.19786e-05
-0.00188018
0.000196627
-0.00210431
0.000357233
-0.00233395
0.000480998
-0.00258478
0.000508874
-0.00287482
0.000442739
-0.00321419
0.000320249
-0.00360554
0.000191586
-0.00403036
8.27932e-05
-0.00443887
-2.90487e-06
-0.00475722
-7.17363e-05
-0.00491415
-0.000131013
-0.00486448
-0.000186741
-0.00461274
-0.000240365
-0.00419521
-0.000287974
-0.0036591
-0.00032341
-0.00305398
-0.00033687
-0.00241632
-0.000331374
-0.00177634
-0.000306014
-0.00115351
-0.00026804
-0.000568022
-0.000216165
-3.70001e-05
-0.000155102
0.00042525
-9.11535e-05
0.000808498
-3.09938e-05
0.00110977
2.04878e-05
0.00133651
6.06457e-05
0.00150401
8.8302e-05
0.00162621
0.000102305
0.00170831
0.000101292
0.00174554
8.92328e-05
0.00174948
5.69612e-05
0.00171857
1.13226e-05
0.00165681
-4.06928e-05
0.00157822
-9.40764e-05
0.00148891
-0.000145838
0.00139037
-0.000193889
0.00128161
-0.000237018
0.00116127
-0.000274943
0.00102924
-0.000308466
0.000887838
-0.00033917
0.000742089
-0.000369151
0.000598936
-0.000400486
0.00046557
-0.000434838
0.000347684
-0.000473338
0.000248397
-0.000516489
0.00016814
-0.000563976
0.000105334
-0.000614567
5.74065e-05
-0.000666295
2.17061e-05
-0.000716984
-3.97921e-06
-0.000764763
-2.12978e-05
-0.000808378
-3.14736e-05
-0.000847226
-3.55086e-05
-0.000881235
-3.43298e-05
-0.000910697
-2.885e-05
-0.000936118
-1.99599e-05
-0.000958118
-8.51546e-06
-0.000977338
4.72186e-06
-0.00099443
1.9107e-05
-0.00101
3.41261e-05
-0.0010246
4.93992e-05
-0.0010387
6.46717e-05
-0.00105268
7.97987e-05
-0.00106684
9.47229e-05
-0.00108137
0.000109453
-0.00109641
0.00012404
-0.001112
0.000138558
-0.00112812
0.000153089
-0.00114474
0.000167713
-0.00116178
0.000182499
-0.00117917
0.00019751
-0.00119684
0.000212795
-0.00121475
0.000228396
-0.00123286
0.000244346
-0.00125117
0.000260658
-0.00126974
0.000277313
-0.00128873
-0.00130846
0.0002942
-1.9092e-05
0.000109318
9.43815e-05
2.31652e-05
0.000387804
-0.000216975
0.00085735
-0.000387568
0.00147248
-0.000418502
0.00218368
-0.000353971
0.00291275
-0.000248065
0.00356796
-0.000146341
0.00408755
-7.6853e-05
0.00445684
-4.90374e-05
0.00470669
-5.82682e-05
0.00488481
-9.53264e-05
0.00503389
-0.000151981
0.00518278
-0.000220629
0.00534413
-0.000292357
0.00551298
-0.000355594
0.00566926
-0.000396647
0.00578622
-0.000404936
0.00584048
-0.000377667
0.00582576
-0.000322154
0.00574685
-0.000252462
0.00562321
-0.000182374
0.00547057
-0.000115395
0.00529768
-4.32746e-05
0.0051123
3.02771e-05
0.00491284
0.000108306
0.00468955
0.000192297
0.00443914
0.000270898
0.00415586
0.000343923
0.00383782
0.000406338
0.00348998
0.000450145
0.00312463
0.000466651
0.00276343
0.00045043
0.00241692
0.000403471
0.00209372
0.000334524
0.001798
0.00025502
0.00153037
0.000173558
0.0012819
0.000102637
0.00104837
3.96397e-05
0.000825975
-1.46255e-05
0.000611739
-6.07072e-05
0.000411141
-0.000107869
0.000229212
-0.000157242
7.12866e-05
-0.000211225
-5.80776e-05
-0.000271122
-0.000156325
-0.000336591
-0.00022372
-0.000405943
-0.000263362
-0.000476846
-0.00028036
-0.000546977
-0.000280532
-0.000614396
-0.000269202
-0.000677624
-0.000250536
-0.00073565
-0.000227419
-0.00078788
-0.000201707
-0.000834089
-0.00017458
-0.000874353
-0.000146825
-0.00090899
-0.000119018
-0.000938504
-9.16097e-05
-0.000963526
-6.49764e-05
-0.000984752
-3.93922e-05
-0.00100292
-1.50747e-05
-0.00101875
7.82719e-06
-0.0010329
2.92382e-05
-0.00104601
4.91577e-05
-0.00105862
6.76559e-05
-0.00107118
8.48651e-05
-0.00108405
0.000100963
-0.00109747
0.000116154
-0.0011116
0.00013065
-0.00112649
0.000144657
-0.00114213
0.000158358
-0.00115844
0.000171916
-0.00117534
0.000185463
-0.00119272
0.00019911
-0.00121049
0.000212944
-0.00122858
0.000227034
-0.00124695
0.000241435
-0.00126558
0.00025618
-0.00128449
0.000271264
-0.00130381
-0.00132379
0.000286596
0.000389098
-0.00027978
0.000932658
-0.000520395
0.00134733
-0.00063165
0.00166723
-0.000707463
0.00196988
-0.00072115
0.00228826
-0.000672354
0.00262008
-0.000579888
0.0029388
-0.000465056
0.00321777
-0.000355827
0.00343422
-0.000265486
0.00357097
-0.000195021
0.00361487
-0.000139222
0.00355434
-9.14526e-05
0.00337859
-4.48772e-05
0.0030772
9.03124e-06
0.00264318
7.84236e-05
0.00208557
0.000160962
0.00143639
0.000244246
0.000748001
0.000310722
9.89397e-05
0.000326907
-0.000419028
0.000265505
-0.000744751
0.000143348
-0.000890279
3.01334e-05
-0.000927387
-6.16679e-06
-0.000937
3.98907e-05
-0.000956607
0.000127913
-0.000988494
0.000224184
-0.00103524
0.000317644
-0.00109772
0.000406397
-0.00117288
0.0004815
-0.00123362
0.00051089
-0.00127786
0.000510893
-0.00129761
0.000470176
-0.00129089
0.000396746
-0.0012634
0.000307041
-0.00122486
0.000216481
-0.00118576
0.000134458
-0.001147
6.38721e-05
-0.0011106
3.24378e-06
-0.00107642
-4.88057e-05
-0.00103368
-0.000103452
-0.000982752
-0.000158794
-0.000925226
-0.000214768
-0.000862356
-0.000274095
-0.00079654
-0.000336938
-0.000730524
-0.000402608
-0.000666517
-0.00046995
-0.000605756
-0.000537607
-0.000548543
-0.000604191
-0.00049456
-0.000668379
-0.000443211
-0.000728973
-0.000393904
-0.000784956
-0.000346235
-0.00083555
-0.000300056
-0.000880268
-0.000255449
-0.00091896
-0.000212639
-0.0009518
-0.000171893
-0.00097925
-0.00013344
-0.00100198
-9.7425e-05
-0.00102077
-6.3928e-05
-0.00103642
-3.29601e-05
-0.00104972
-4.48994e-06
-0.00106137
2.15471e-05
-0.00107205
4.52524e-05
-0.00108232
6.67705e-05
-0.00109269
8.62911e-05
-0.00110357
0.000104043
-0.00111522
0.000120284
-0.00112784
0.000135279
-0.00114149
0.000149292
-0.00115614
0.000162571
-0.00117172
0.000175343
-0.00118811
0.000187807
-0.00120518
0.000200134
-0.00122282
0.000212469
-0.00124092
0.000224934
-0.00125942
0.000237622
-0.00127826
0.000250604
-0.00129747
0.000263903
-0.00131711
-0.00133735
0.000277461
-0.000468479
0.000188699
-0.00118976
0.000200885
-0.00193891
0.000117503
-0.00276404
0.000117663
-0.00367651
0.000191323
-0.00464534
0.000296473
-0.00560776
0.000382534
-0.00649104
0.000418223
-0.00724148
0.000394616
-0.00784263
0.000335667
-0.00830737
0.00026972
-0.0086612
0.000214605
-0.00892696
0.000174305
-0.00911784
0.000146001
-0.00923379
0.000124984
-0.00925284
9.74749e-05
-0.00916324
7.13626e-05
-0.00893744
1.84437e-05
-0.00854583
-8.08843e-05
-0.00798037
-0.000238555
-0.00726516
-0.000449705
-0.00646075
-0.000661056
-0.00565121
-0.000779411
-0.00491125
-0.000746129
-0.00427724
-0.000594119
-0.00374691
-0.000402415
-0.00330298
-0.000219748
-0.00291841
-6.69215e-05
-0.00258297
7.09517e-05
-0.00228321
0.000181745
-0.00202833
0.00025601
-0.00180818
0.00029074
-0.00162641
0.000288409
-0.0014889
0.000259239
-0.00139692
0.000215059
-0.00134511
0.000164665
-0.00132313
0.000112486
-0.00131886
5.95948e-05
-0.00132101
5.39973e-06
-0.00132035
-4.94727e-05
-0.00131232
-0.000111478
-0.00129556
-0.000175557
-0.00126687
-0.000243454
-0.00122625
-0.000314718
-0.00117461
-0.00038858
-0.0011132
-0.000464017
-0.00104333
-0.000539813
-0.00096633
-0.000614611
-0.00088355
-0.000686971
-0.000796489
-0.00075544
-0.000706819
-0.000818642
-0.000616388
-0.000875388
-0.000527152
-0.000924785
-0.000441067
-0.000966354
-0.000359926
-0.0010001
-0.000285182
-0.00102654
-0.000217799
-0.00104663
-0.000158167
-0.00106161
-0.000106136
-0.0010728
-6.11415e-05
-0.00108141
-2.2389e-05
-0.00108847
1.09756e-05
-0.00109474
3.97525e-05
-0.00110083
6.46405e-05
-0.00110721
8.6239e-05
-0.00111429
0.000105069
-0.0011224
0.000121595
-0.00113175
0.000136236
-0.00114248
0.000149372
-0.00115463
0.000161344
-0.00116811
0.000172459
-0.00118283
0.000182983
-0.00119863
0.000193149
-0.00121535
0.000203155
-0.00123282
0.00021317
-0.00125093
0.00022333
-0.00126958
0.000233746
-0.00128868
0.000244498
-0.00130822
0.000255618
-0.00132823
-0.0013488
0.000267069
0.000364632
-0.000175934
0.000865726
-0.000300208
0.00120993
-0.000226699
0.0013843
-5.67089e-05
0.00146615
0.000109474
0.00156325
0.000199367
0.00178206
0.000163727
0.00217289
2.73965e-05
0.00267246
-0.000104953
0.00316307
-0.000154943
0.00355573
-0.000122949
0.00382026
-4.99258e-05
0.00396245
3.21155e-05
0.00399958
0.000108878
0.00395024
0.00017432
0.00382478
0.00022293
0.00364721
0.000248933
0.0034154
0.000250258
0.0031058
0.00022872
0.00267582
0.000191424
0.00207176
0.000154352
0.00127792
0.000132779
0.000360655
0.000137858
-0.00055225
0.000166776
-0.00134759
0.000201216
-0.00197154
0.000221541
-0.00241264
0.000221355
-0.00268752
0.000207956
-0.00280942
0.000192852
-0.0028087
0.000181024
-0.00272241
0.000169714
-0.0025864
0.000154731
-0.00243227
0.000134286
-0.0022817
0.000108667
-0.00214547
7.88234e-05
-0.00202598
4.51831e-05
-0.00192089
7.39063e-06
-0.00182582
-3.54755e-05
-0.00173423
-8.61846e-05
-0.00164706
-0.00013665
-0.00156257
-0.000195965
-0.00147677
-0.000261354
-0.00138834
-0.000331886
-0.00129645
-0.000406604
-0.00120068
-0.000484352
-0.00110093
-0.000563766
-0.000997455
-0.00064329
-0.000890846
-0.00072122
-0.000782062
-0.000795755
-0.000672424
-0.000865078
-0.0005636
-0.000927466
-0.000457566
-0.000981422
-0.000356511
-0.00102584
-0.000262688
-0.00106018
-0.000178186
-0.0010846
-0.000104641
-0.00110009
-4.29429e-05
-0.00110833
6.95714e-06
-0.00111151
4.60401e-05
-0.00111188
7.59778e-05
-0.00111135
9.87443e-05
-0.00111123
0.000116227
-0.00111222
0.000129979
-0.00111458
0.000141148
-0.00111838
0.000150523
-0.00112367
0.000158631
-0.0011305
0.000165833
-0.00113895
0.000172399
-0.00114905
0.000178534
-0.00116076
0.00018441
-0.00117399
0.000190177
-0.0011886
0.000195966
-0.00120442
0.000201899
-0.00122128
0.000208085
-0.00123901
0.000214618
-0.00125747
0.000221579
-0.00127654
0.000229033
-0.00129613
0.00023702
-0.00131621
0.000245546
-0.00133676
-0.00135782
0.000254565
1.59569e-05
-0.000191891
-0.000145419
-0.000138833
-0.000553668
0.00018155
-0.00114098
0.000530605
-0.00183225
0.000800743
-0.00257912
0.000946236
-0.00335921
0.000943819
-0.00417546
0.000843646
-0.00501527
0.000734856
-0.00582672
0.000656511
-0.00652621
0.000576534
-0.00704244
0.000466313
-0.00734647
0.000336138
-0.007449
0.000211414
-0.00737866
0.000103978
-0.00716468
8.95321e-06
-0.0068247
-9.1053e-05
-0.00637286
-0.00020158
-0.00583429
-0.00030985
-0.00526346
-0.000379405
-0.00473822
-0.000370891
-0.00432813
-0.000277311
-0.00405743
-0.000132836
-0.00389485
4.1978e-06
-0.00378029
8.66481e-05
-0.00366588
0.00010713
-0.0035276
8.30806e-05
-0.00335945
3.98042e-05
-0.00316366
-2.94225e-06
-0.00294748
-3.51556e-05
-0.00272236
-5.54035e-05
-0.00250073
-6.68985e-05
-0.00229168
-7.47593e-05
-0.00210006
-8.29557e-05
-0.00192574
-9.54949e-05
-0.00176799
-0.000112568
-0.00162525
-0.000135355
-0.00149834
-0.000162384
-0.00138329
-0.000201229
-0.001271
-0.000248943
-0.00116173
-0.00030524
-0.00105386
-0.00036922
-0.000946018
-0.000439729
-0.000837265
-0.000515358
-0.000727166
-0.000594451
-0.000615776
-0.000675155
-0.000503607
-0.00075546
-0.000391573
-0.000833254
-0.000280946
-0.000906381
-0.000173285
-0.000972739
-7.03861e-05
-0.00103036
2.57541e-05
-0.00107756
0.000112979
-0.00111306
0.000189049
-0.00113625
0.000251815
-0.00114737
0.000299546
-0.00114782
0.00033138
-0.00114017
0.000347782
-0.00112791
0.000350705
-0.0011148
0.000343298
-0.00110394
0.00032921
-0.00109715
0.000311823
-0.00109483
0.000293728
-0.00109648
0.000276594
-0.00110125
0.000261314
-0.00110839
0.000248253
-0.00111744
0.000237479
-0.00112818
0.00022888
-0.00114045
0.000222286
-0.00115417
0.000217502
-0.00116921
0.000214341
-0.00118544
0.000212637
-0.00120272
0.000212249
-0.00122089
0.000213065
-0.00123983
0.000214995
-0.0012594
0.000217964
-0.00127951
0.000221907
-0.00130008
0.000226762
-0.00132106
0.000232448
-0.00134245
-0.00136424
0.000238869
-0.000475275
0.000283385
-0.00108488
0.000470776
-0.00144126
0.000537922
-0.00161082
0.000700167
-0.00177963
0.000969557
-0.00212852
0.00129512
-0.00279658
0.00161188
-0.00381009
0.00185716
-0.00505191
0.00197667
-0.006328
0.0019326
-0.00747161
0.00172015
-0.00839073
0.00138543
-0.00906107
0.00100648
-0.00950019
0.000650539
-0.00973187
0.000335656
-0.00977104
4.81168e-05
-0.00962628
-0.000235807
-0.00929902
-0.000528845
-0.00879052
-0.000818344
-0.00810733
-0.0010626
-0.00726779
-0.00121043
-0.00630887
-0.00123623
-0.00529555
-0.00114616
-0.00429778
-0.000993578
-0.00337091
-0.000840214
-0.00255165
-0.000712136
-0.00185737
-0.000611197
-0.00128894
-0.000528621
-0.000837688
-0.000454199
-0.000489144
-0.000383699
-0.000226565
-0.000317983
-3.32722e-05
-0.000260191
0.000105537
-0.000213568
0.000202334
-0.000179753
0.000268152
-0.000161313
0.000314236
-0.000158652
0.000349967
-0.000171087
0.000385891