/*--------------------------------*- C++ -*----------------------------------*\
| =========                 |                                                 |
| \\      /  F ield         | OpenFOAM: The Open Source CFD Toolbox           |
|  \\    /   O peration     | Version:  2012                                  |
|   \\  /    A nd           | Website:  www.openfoam.com                      |
|    \\/     M anipulation  |                                                 |
\*---------------------------------------------------------------------------*/
FoamFile
{
    version     2.0;
    format      ascii;
    class       volVectorField;
    location    "0.97";
    object      U;
}
// * * * * * * * * * * * * * * * * * * * * * * * * * * * * * * * * * * * * * //

dimensions      [0 1 -1 0 0 0 0];


internalField   nonuniform List<vector> 
42400
(
(1.77104 0.509958 -5.83285e-17)
(2.87988 1.94935 -8.55558e-17)
(6.18069 2.33222 8.74482e-17)
(10.4786 0.536264 0)
(14.7751 -1.57344 0)
(17.8256 -2.77924 6.96776e-20)
(18.9611 -2.43591 0)
(17.8174 -0.25748 -7.02155e-20)
(14.4574 3.87512 0)
(9.30833 9.90557 -6.12558e-20)
(3.08936 17.5478 -5.39813e-20)
(-3.36372 26.267 4.57967e-20)
(-9.28123 35.38 5.78345e-17)
(-14.0555 44.1539 -5.90077e-17)
(-17.3062 51.9281 2.11018e-20)
(-18.9443 58.2538 0)
(-19.1652 62.9523 0)
(-18.2501 65.9427 0)
(-16.2693 66.9566 0)
(-12.9743 65.4836 0)
(-8.00453 61.0341 0)
(-1.44454 53.6917 -3.18774e-20)
(5.71869 44.5526 7.70225e-18)
(11.9583 35.2842 -2.23014e-18)
(16.1416 27.1486 -5.75118e-18)
(18.094 20.5474 -1.17383e-20)
(18.3975 15.2549 -2.12357e-21)
(17.8294 10.8008 -1.36991e-20)
(16.8852 6.86735 0)
(15.8393 3.30387 0)
(14.8185 0.0851153 -4.95448e-18)
(13.8525 -2.75148 5.00301e-18)
(12.9044 -5.13842 -2.92179e-20)
(11.9033 -6.97944 4.12076e-18)
(10.8194 -8.22483 -4.14297e-18)
(9.68255 -8.88273 0)
(8.57427 -9.02904 0)
(7.58823 -8.79431 0)
(6.79137 -8.33155 0)
(6.21213 -7.78888 1.98104e-18)
(5.84973 -7.28826 -1.98769e-18)
(5.68755 -6.90933 1.6551e-18)
(5.69606 -6.67959 -1.21587e-19)
(5.83295 -6.58314 -2.98396e-18)
(6.04888 -6.58038 1.42864e-18)
(6.29669 -6.62769 -1.29271e-18)
(6.53896 -6.68968 2.56444e-18)
(6.75119 -6.74309 -1.22909e-18)
(6.92074 -6.77557 -5.25102e-20)
(7.04365 -6.78273 1.17451e-18)
(7.12154 -6.76525 -2.31211e-18)
(7.1592 -6.72678 -9.71394e-20)
(7.16311 -6.67252 1.22642e-18)
(7.14048 -6.60823 -1.20337e-19)
(7.09862 -6.53938 0)
(7.04443 -6.47051 0)
(6.98391 -6.40473 0)
(6.92178 -6.34349 1.11623e-19)
(6.86129 -6.28654 1.07768e-19)
(6.80412 -6.23232 0)
(6.75069 -6.17838 1.56988e-18)
(6.7004 -6.12207 -1.63749e-18)
(6.65217 -6.06104 -1.39428e-18)
(6.60478 -5.99363 1.36827e-18)
(6.55721 -5.91903 0)
(6.50877 -5.83724 0)
(6.45913 -5.74888 -1.04653e-18)
(6.40823 -5.65498 1.0231e-18)
(6.35619 -5.55668 1.14521e-19)
(6.30316 -5.45513 0)
(6.24929 -5.35137 0)
(6.19465 -5.24626 8.61609e-20)
(6.13922 -5.14056 7.75009e-20)
(6.08288 -5.03495 0)
(6.02542 -4.93015 6.14821e-20)
(5.96671 -4.82696 4.10055e-19)
(5.9069 -4.72627 -3.97781e-19)
(5.84615 -4.63016 -8.14053e-20)
(5.7815 -4.54684 -2.56313e-19)
(5.7134 -4.48418 -1.6695e-19)
(5.45743 -5.9406 0)
(11.0799 -11.8025 6.86014e-17)
(14.5465 -14.5009 -7.02913e-17)
(18.5949 -16.727 0)
(24.1128 -19.1775 0)
(29.5406 -21.4136 6.6447e-17)
(34.0317 -23.0362 -6.78738e-17)
(37.1576 -23.8746 6.99779e-20)
(38.8225 -23.8759 0)
(39.148 -23.0369 6.08628e-20)
(38.3641 -21.3787 5.35328e-20)
(36.7301 -18.9435 -5.13696e-17)
(34.4858 -15.7954 4.3588e-18)
(31.8135 -12.0072 4.96761e-17)
(28.8255 -7.6432 4.21985e-17)
(25.5748 -2.74726 -4.22555e-17)
(22.082 2.64487 0)
(18.3526 8.48912 5.96286e-19)
(14.4373 14.6953 0)
(10.438 21.0847 0)
(6.50431 27.3646 0)
(2.80175 33.1229 -1.43683e-17)
(-0.526126 37.9728 3.54202e-18)
(-3.37971 41.6852 1.15628e-17)
(-5.66122 44.2284 0)
(-7.24022 45.7216 -1.66212e-19)
(-8.05244 46.3251 2.05635e-21)
(-8.111 46.0391 1.32753e-20)
(-7.50712 44.8718 -2.58632e-18)
(-6.36127 42.8932 2.62073e-18)
(-4.84989 40.2148 -1.68929e-19)
(-3.16821 36.9441 -1.5221e-19)
(-1.4518 33.1888 -2.71008e-18)
(0.22026 29.0684 2.91113e-18)
(1.82919 24.6788 3.27861e-18)
(3.38492 20.1402 -3.43631e-18)
(4.85836 15.6462 0)
(6.12168 11.4569 9.68025e-20)
(7.01623 7.82837 0)
(7.49073 4.89664 1.41677e-19)
(7.63991 2.61538 -1.9128e-18)
(7.63464 0.82789 2.03308e-18)
(7.62547 -0.618711 8.31903e-21)
(7.67411 -1.82202 -1.86404e-20)
(7.77515 -2.82727 4.51426e-20)
(7.8957 -3.65272 -3.60299e-20)
(8.00409 -4.3114 4.27575e-20)
(8.08022 -4.81984 3.24719e-19)
(8.11546 -5.19803 -3.19009e-19)
(8.10902 -5.46724 0)
(8.06454 -5.64816 4.73321e-20)
(7.98808 -5.76005 1.18705e-19)
(7.8871 -5.8204 7.27105e-19)
(7.76979 -5.8447 -7.19486e-19)
(7.64454 -5.84625 -1.1328e-19)
(7.51923 -5.83577 1.65672e-18)
(7.40054 -5.82106 -1.86151e-18)
(7.2933 -5.80678 -1.11593e-19)
(7.2001 -5.7946 -1.07744e-19)
(7.12126 -5.78368 1.60617e-18)
(7.05517 -5.77145 -1.58093e-18)
(6.99894 -5.75463 9.38421e-20)
(6.94918 -5.73006 8.94282e-20)
(6.90264 -5.69538 0)
(6.85675 -5.64936 -1.06412e-18)
(6.80975 -5.59192 5.8719e-20)
(6.76072 -5.52385 1.25026e-18)
(6.70936 -5.44655 0)
(6.65581 -5.36165 -2.30131e-19)
(6.60038 -5.27076 1.05588e-19)
(6.54344 -5.17533 7.38765e-19)
(6.48532 -5.07658 -8.05795e-19)
(6.42628 -4.97544 -6.75404e-19)
(6.36655 -4.87264 6.50858e-19)
(6.3063 -4.76875 -1.23001e-19)
(6.24584 -4.66414 4.1301e-19)
(6.18588 -4.55904 -3.06433e-19)
(6.1273 -4.45442 8.14035e-20)
(6.06855 -4.35627 -3.2999e-19)
(6.01022 -4.27244 2.5805e-19)
(8.07526 -7.27637 -1.30283e-17)
(28.5446 -23.4355 7.39578e-20)
(50.0489 -42.6095 2.19388e-19)
(67.6165 -56.0589 6.64115e-20)
(75.917 -62.6224 0)
(76.0242 -62.5566 -5.353e-17)
(69.7141 -57.6171 1.11109e-16)
(59.4331 -49.8465 -5.76284e-17)
(47.4641 -40.9422 5.98959e-17)
(35.3853 -32.0428 -6.07952e-19)
(24.1336 -23.7707 -6.19022e-17)
(14.1918 -16.3972 -4.54053e-19)
(5.73131 -9.9988 -4.38615e-19)
(-1.2254 -4.61373 5.64524e-17)
(-6.70046 -0.301967 -5.75718e-17)
(-10.7623 2.89327 -7.72083e-19)
(-13.5441 5.00079 -4.64905e-17)
(-15.2445 6.1331 4.32458e-18)
(-16.0965 6.4649 4.3274e-17)
(-16.3093 6.19415 -8.69005e-20)
(-16.0309 5.51986 7.69007e-20)
(-15.3666 4.59207 6.30583e-20)
(-14.3526 3.51937 0)
(-12.9705 2.33007 -2.86876e-19)
(-11.2385 1.0668 1.88847e-17)
(-9.29094 -0.137044 -3.55352e-17)
(-7.34006 -1.06369 1.67959e-17)
(-5.63073 -1.52456 -1.25229e-17)
(-4.36858 -1.41481 1.26767e-17)
(-3.65231 -0.729748 9.28075e-18)
(-3.46513 0.42396 -1.70692e-17)
(-3.68582 1.85123 1.31492e-18)
(-4.11417 3.32542 6.75125e-18)
(-4.52386 4.63085 0)
(-4.72696 5.58411 0)
(-4.6138 6.04981 1.17155e-19)
(-4.14674 5.97533 0)
(-3.35003 5.40131 -6.88983e-20)
(-2.29146 4.43674 -2.09427e-18)
(-1.05981 3.21949 3.59882e-18)
(0.263146 1.89912 -1.72381e-18)
(1.60293 0.599418 0)
(2.87933 -0.60823 0)
(4.02133 -1.67873 -1.63631e-19)
(4.98805 -2.59558 1.46409e-19)
(5.76842 -3.35763 -3.52492e-20)
(6.37183 -3.97532 0)
(6.81918 -4.46388 0)
(7.13478 -4.83993 6.95949e-19)
(7.34208 -5.11948 -6.92544e-19)
(7.46222 -5.3176 -4.73383e-20)
(7.514 -5.44864 0)
(7.51443 -5.52648 -1.04699e-18)
(7.47914 -5.56458 9.11591e-19)
(7.42236 -5.57561 -1.76252e-18)
(7.35659 -5.57077 1.8443e-18)
(7.29194 -5.55908 -1.71723e-18)
(7.2355 -5.54671 3.5894e-18)
(7.19106 -5.53672 -3.48407e-18)
(7.15912 -5.52925 4.19251e-20)
(7.13754 -5.52221 1.6319e-18)
(7.12248 -5.51225 1.50298e-18)
(7.10956 -5.49578 -1.56585e-18)
(7.09474 -5.46988 0)
(7.07506 -5.43271 1.08621e-18)
(7.0488 -5.38369 -6.25717e-20)
(7.01543 -5.32332 -1.4061e-18)
(6.97526 -5.2528 0)
(6.92914 -5.17375 2.32031e-19)
(6.87808 -5.08783 7.13158e-19)
(6.82309 -4.9966 -7.02322e-19)
(6.76502 -4.90142 0)
(6.70457 -4.80339 0)
(6.64227 -4.70342 -6.94347e-20)
(6.57855 -4.6023 6.15197e-20)
(6.51388 -4.50068 3.02515e-19)
(6.44907 -4.39911 -4.90814e-19)
(6.3851 -4.29862 0)
(6.32081 -4.20436 6.92487e-20)
(6.2555 -4.12327 2.1428e-19)
(-9.15558 6.19436 -3.10192e-19)
(-14.1292 5.43406 -2.42308e-18)
(-4.67055 -5.37152 2.10818e-18)
(4.76491 -21.2541 6.79639e-18)
(9.51887 -32.6561 -7.29406e-18)
(9.99261 -41.0703 0)
(8.34972 -47.2676 3.19581e-17)
(6.70847 -52.3189 -3.21391e-17)
(6.45064 -57.0862 4.15908e-17)
(8.0833 -61.8021 -4.24597e-17)
(11.271 -66.1027 4.97161e-17)
(15.0499 -69.2602 -1.05262e-16)
(18.3284 -70.6218 1.11567e-16)
(20.3482 -69.843 -1.16901e-16)
(20.7063 -66.8287 1.19871e-16)
(19.2729 -61.6931 -6.10147e-17)
(16.1922 -54.7738 -5.67873e-17)
(11.8141 -46.6116 1.11214e-16)
(6.64706 -37.8991 -5.45094e-17)
(1.35805 -29.3269 8.63545e-20)
(-3.39026 -21.468 6.17123e-19)
(-7.25213 -14.7591 -3.49115e-17)
(-10.1974 -9.32301 3.47722e-17)
(-12.2793 -5.05812 3.05027e-20)
(-13.6021 -1.91313 0)
(-14.2957 0.150092 1.03914e-21)
(-14.442 1.29732 0)
(-14.1421 1.79344 9.82427e-18)
(-13.5704 1.87917 -2.28302e-18)
(-12.8964 1.74268 -8.1082e-18)
(-12.2148 1.50437 -4.96622e-18)
(-11.5233 1.23834 5.06463e-18)
(-10.7644 0.972892 -2.81717e-19)
(-9.87507 0.70879 -1.99813e-19)
(-8.8067 0.437186 -1.96662e-18)
(-7.54286 0.137519 2.12248e-18)
(-6.10586 -0.216332 0)
(-4.54936 -0.640809 9.52689e-19)
(-2.94391 -1.13134 -9.8576e-19)
(-1.36288 -1.66396 -3.34453e-20)
(0.119547 -2.22103 -1.40826e-19)
(1.45294 -2.78108 0)
(2.6187 -3.32401 0)
(3.61576 -3.83263 0)
(4.45374 -4.29673 -1.07356e-19)
(5.14784 -4.70862 1.00289e-18)
(5.71394 -5.06257 -9.65528e-19)
(6.16644 -5.355 0)
(6.51833 -5.58447 0)
(6.78169 -5.75195 1.12779e-18)
(6.96841 -5.86086 -1.03263e-18)
(7.09078 -5.91703 1.13951e-18)
(7.1617 -5.92841 -8.38086e-19)
(7.19452 -5.9046 1.58735e-19)
(7.20251 -5.85604 -9.32879e-19)
(7.19794 -5.79305 1.19801e-18)
(7.19103 -5.7247 -2.03019e-18)
(7.18905 -5.65791 1.8728e-18)
(7.1957 -5.59681 0)
(7.2112 -5.54266 -1.17144e-19)
(7.23291 -5.49432 -1.66815e-18)
(7.25648 -5.44901 1.73581e-19)
(7.27707 -5.40332 3.10834e-18)
(7.29046 -5.35404 -2.72465e-18)
(7.29375 -5.29881 1.17887e-18)
(7.28556 -5.23631 1.1759e-18)
(7.26584 -5.16619 -8.72375e-19)
(7.23554 -5.08889 -1.27772e-19)
(7.19611 -5.00527 -9.0181e-19)
(7.14917 -4.91642 8.79814e-19)
(7.09627 -4.82341 -1.90668e-19)
(7.03873 -4.72717 -7.44906e-19)
(6.97764 -4.62853 6.42399e-19)
(6.91388 -4.52814 0)
(6.84814 -4.42657 -4.5685e-19)
(6.7811 -4.32428 1.52002e-19)
(6.71368 -4.22162 8.17422e-19)
(6.64703 -4.11957 -3.32623e-19)
(6.58048 -4.02365 2.46569e-19)
(6.51501 -3.94134 -2.43717e-19)
(-2.1356 2.43177 5.02401e-17)
(-4.82517 12.8545 0)
(-11.6489 15.2793 0)
(-14.1081 19.6242 4.42272e-19)
(-17.8063 17.9731 0)
(-19.5498 14.9784 0)
(-19.2527 10.3534 0)
(-17.2956 4.66856 -2.23882e-19)
(-14.7801 -1.2059 0)
(-12.7155 -6.58224 -2.77015e-19)
(-11.4616 -11.2849 6.98928e-17)
(-10.8872 -15.6061 -1.3569e-16)
(-10.8326 -19.8645 6.63452e-17)
(-11.2605 -24.0998 0)
(-12.1825 -28.1996 -4.55452e-19)
(-13.5464 -32.0274 2.11908e-19)
(-15.1613 -35.3058 0)
(-16.8435 -37.8238 4.8904e-17)
(-18.6254 -39.7973 -9.81704e-17)
(-20.393 -41.2155 1.25957e-18)
(-21.6126 -41.3501 4.72182e-17)
(-22.2716 -40.0483 6.48187e-19)
(-23.0268 -38.235 0)
(-23.7952 -36.1814 -3.84264e-17)
(-23.7616 -33.4347 3.97043e-17)
(-22.5981 -30.2516 -3.204e-17)
(-20.7014 -27.2703 3.2739e-17)
(-18.3905 -24.3305 2.46153e-17)
(-16.099 -21.1393 -2.45853e-17)
(-14.2095 -17.7479 0)
(-12.7422 -14.4294 -1.48737e-17)
(-11.4781 -11.521 1.50093e-17)
(-10.2129 -9.25441 2.37144e-19)
(-8.87316 -7.66181 -9.04846e-18)
(-7.48407 -6.64283 9.32114e-18)
(-6.09953 -6.05715 7.07007e-20)
(-4.75219 -5.77851 -1.95017e-19)
(-3.44695 -5.70423 -5.17064e-18)
(-2.18229 -5.76045 5.19588e-18)
(-0.962618 -5.89715 3.87338e-18)
(0.200929 -6.08094 -3.03052e-19)
(1.29223 -6.28274 -3.84009e-18)
(2.29793 -6.48183 0)
(3.20724 -6.66316 2.01524e-19)
(4.01258 -6.81703 -2.17825e-18)
(4.71035 -6.93828 4.92556e-18)
(5.30157 -7.02493 -4.41524e-18)
(5.79147 -7.07681 1.9801e-18)
(6.18843 -7.09434 0)
(6.50263 -7.07801 1.24999e-19)
(6.74494 -7.02854 -1.62945e-18)
(6.92652 -6.94751 1.64589e-18)
(7.05863 -6.83803 3.80234e-20)
(7.1527 -6.70503 -1.35881e-18)
(7.21993 -6.55502 1.04633e-18)
(7.27071 -6.39544 -1.23242e-18)
(7.31367 -6.23364 -1.25333e-18)
(7.35493 -6.07595 2.41792e-18)
(7.39757 -5.92697 -2.03472e-18)
(7.44176 -5.78917 2.12166e-18)
(7.4853 -5.66298 0)
(7.52464 -5.54719 -1.03061e-19)
(7.556 -5.43963 -1.52225e-18)
(7.57623 -5.33775 1.31616e-18)
(7.58341 -5.23922 3.32267e-19)
(7.57696 -5.14216 0)
(7.55745 -5.0453 1.08328e-18)
(7.52623 -4.94791 -9.3202e-19)
(7.48507 -4.84967 -1.16223e-19)
(7.43576 -4.75054 -1.02463e-19)
(7.37998 -4.6506 1.86414e-19)
(7.31915 -4.55001 3.29494e-21)
(7.25446 -4.44895 -6.39518e-19)
(7.18683 -4.34761 5.51739e-19)
(7.11702 -4.24622 -5.52554e-20)
(7.04576 -4.14496 0)
(6.97396 -4.04393 -4.10527e-19)
(6.90261 -3.94381 3.12308e-19)
(6.831 -3.8496 0)
(6.76009 -3.7672 -1.86144e-19)
(0.0962702 -1.5304 1.33221e-19)
(-13.9103 6.48328 2.1362e-17)
(-41.9757 21.7941 -2.05544e-17)
(-67.204 36.1071 4.01998e-17)
(-81.5514 42.7428 -1.99632e-17)
(-85.7742 42.9757 -3.07022e-19)
(-81.4576 37.8356 -1.21023e-17)
(-70.8295 28.9896 1.23775e-17)
(-57.1026 18.6607 2.10621e-19)
(-43.8232 9.07786 4.55129e-19)
(-33.3908 1.67528 1.07557e-18)
(-26.3028 -3.22649 -2.41513e-18)
(-21.8631 -6.00671 1.62355e-18)
(-19.1856 -7.21212 -5.2199e-18)
(-17.609 -7.33984 1.16767e-17)
(-16.667 -6.78623 -6.00271e-18)
(-16.0072 -5.8829 0)
(-15.3179 -4.94047 0)
(-14.3001 -4.28801 6.6628e-18)
(-12.7044 -4.22187 9.01314e-20)
(-10.4258 -4.85664 -6.11252e-18)
(-7.59411 -6.09315 5.85817e-18)
(-4.45329 -7.76345 -1.19428e-17)
(-1.09453 -9.70607 5.72263e-18)
(2.58237 -11.8228 6.0448e-18)
(6.72178 -13.9959 -1.22059e-19)
(10.9758 -16.1041 -6.72187e-18)
(14.6103 -17.7623 1.41494e-19)
(16.6158 -18.4528 -1.1836e-19)
(16.2788 -17.7679 1.99299e-19)
(13.7195 -15.8308 0)
(9.88701 -13.3549 5.28643e-18)
(5.97267 -11.0616 -1.11393e-17)
(2.76363 -9.26367 5.83823e-18)
(0.551753 -7.98549 0)
(-0.66448 -7.15682 -6.36631e-18)
(-1.04533 -6.69526 6.39068e-18)
(-0.810468 -6.50262 0)
(-0.175788 -6.49935 0)
(0.683396 -6.61294 -4.79832e-18)
(1.64032 -6.78133 4.96253e-18)
(2.6063 -6.96062 9.54416e-21)
(3.52122 -7.12315 0)
(4.3472 -7.25411 3.29706e-18)
(5.06456 -7.34866 -4.79892e-19)
(5.66862 -7.40891 -3.36852e-18)
(6.16607 -7.44042 -1.70324e-19)
(6.57045 -7.44871 3.03645e-19)
(6.89747 -7.43676 0)
(7.1613 -7.40409 -2.24391e-18)
(7.37285 -7.34778 4.08011e-18)
(7.53999 -7.26449 -2.06776e-18)
(7.66892 -7.15247 -2.03317e-19)
(7.76561 -7.01285 -1.75577e-18)
(7.83649 -6.84963 2.74772e-19)
(7.8882 -6.669 2.78501e-18)
(7.92684 -6.47815 -1.01387e-18)
(7.95713 -6.28409 0)
(7.98186 -6.09281 0)
(8.00188 -5.90872 1.27974e-19)
(8.01648 -5.73456 1.17625e-19)
(8.02408 -5.5715 0)
(8.02296 -5.41946 1.44316e-18)
(8.01182 -5.27756 -1.42216e-18)
(7.99016 -5.14452 -1.45539e-18)
(7.9582 -5.01885 -5.8844e-20)
(7.9168 -4.89914 1.00765e-18)
(7.86716 -4.78415 -9.58388e-19)
(7.81064 -4.67285 9.36056e-19)
(7.74854 -4.56439 5.51785e-21)
(7.68199 -4.4581 5.93212e-19)
(7.61197 -4.35349 -5.85575e-19)
(7.53924 -4.25017 -4.599e-19)
(7.46444 -4.14788 5.75355e-19)
(7.38809 -4.04649 -3.45951e-19)
(7.31074 -3.94592 3.89506e-19)
(7.23312 -3.84607 -2.90759e-19)
(7.15607 -3.74746 5.24644e-19)
(7.079 -3.65495 -3.61145e-20)
(7.00369 -3.57308 -3.7342e-20)
(-5.33437 2.69231 -1.56469e-17)
(-11.245 5.17911 -1.72478e-19)
(-16.6283 9.94614 2.32135e-17)
(-21.9655 14.721 -4.63239e-17)
(-24.7304 19.644 2.32663e-17)
(-24.8948 23.109 -2.10948e-17)
(-22.6613 24.839 1.22753e-18)
(-18.4452 24.7998 2.10019e-17)
(-12.7879 23.0843 -1.88856e-17)
(-6.23942 20.1189 1.90886e-17)
(0.641946 16.5304 -1.74972e-17)
(7.44191 12.9482 1.78758e-17)
(14.0013 9.76941 -1.53733e-17)
(20.279 7.07225 1.55485e-17)
(26.1012 4.76097 -7.73623e-20)
(31.1062 2.81205 -5.69585e-20)
(34.8785 1.37812 -1.29627e-17)
(37.1787 0.634395 1.31788e-17)
(38.0989 0.604279 -1.06671e-20)
(37.9756 1.19015 1.94709e-20)
(37.1599 2.20645 7.15303e-18)
(35.9715 3.42526 -7.13121e-18)
(34.6653 4.52321 0)
(33.3559 5.17562 -1.36755e-19)
(32.052 5.35687 0)
(30.6384 5.23091 0)
(28.7614 4.90202 -1.58823e-19)
(25.862 4.36593 -1.06649e-17)
(21.4543 3.59599 1.09741e-17)
(15.5799 3.12595 6.52549e-18)
(8.92852 3.72912 -6.829e-18)
(2.71513 4.74347 1.53621e-19)
(-1.61499 4.75398 -1.40376e-19)
(-3.41976 3.60925 0)
(-3.32824 2.02658 -1.31797e-19)
(-2.35512 0.49003 0)
(-1.13039 -0.869891 0)
(0.112312 -2.0524 -1.25332e-19)
(1.31663 -3.07673 0)
(2.47172 -3.9487 0)
(3.55724 -4.67924 3.07399e-18)
(4.54471 -5.27763 -2.84843e-18)
(5.40755 -5.75006 0)
(6.12784 -6.10551 0)
(6.7016 -6.35918 0)
(7.14091 -6.53252 -1.77909e-19)
(7.47131 -6.64972 1.70271e-19)
(7.72492 -6.73226 2.28013e-18)
(7.93161 -6.79399 -2.42934e-18)
(8.11201 -6.83908 2.15492e-18)
(8.27516 -6.86375 -2.39918e-18)
(8.42077 -6.86053 2.39161e-19)
(8.54421 -6.82283 1.11392e-19)
(8.64108 -6.74783 0)
(8.70973 -6.63727 0)
(8.75161 -6.49653 -1.21069e-18)
(8.77014 -6.33309 -7.15778e-20)
(8.76945 -6.15496 1.26227e-18)
(8.75334 -5.96959 -1.08128e-18)
(8.7248 -5.78326 1.0624e-18)
(8.686 -5.60075 1.69716e-18)
(8.63849 -5.42533 -1.27157e-19)
(8.58351 -5.25891 -3.04235e-18)
(8.52206 -5.10244 1.48117e-18)
(8.45515 -4.95591 7.75784e-20)
(8.38389 -4.81858 1.48853e-19)
(8.30917 -4.68955 1.00755e-18)
(8.23181 -4.56766 -1.88712e-18)
(8.15247 -4.45174 8.81123e-19)
(8.07164 -4.34065 9.69486e-20)
(7.98967 -4.2334 6.28597e-19)
(7.9068 -4.12916 -6.79978e-19)
(7.8232 -4.02725 0)
(7.73904 -3.92716 -5.79845e-20)
(7.65446 -3.82856 0)
(7.56971 -3.73119 2.97375e-19)
(7.48526 -3.63478 -4.11906e-20)
(7.40166 -3.53977 -2.39691e-19)
(7.31822 -3.45064 1.22685e-19)
(7.23708 -3.3701 -5.87098e-21)
(7.49767 -1.70194 -2.768e-17)
(15.4663 -3.57557 4.16178e-17)
(16.7914 -0.00404843 1.65365e-20)
(14.239 4.72812 4.01682e-17)
(10.9283 9.91553 -4.10117e-17)
(7.37947 14.7641 3.9204e-17)
(4.92769 18.6163 -7.80249e-17)
(5.03982 20.8134 3.85929e-17)
(8.66429 21.0395 -3.35008e-17)
(15.8018 19.4492 3.40107e-17)
(25.3548 16.675 0)
(35.0153 13.7228 1.36723e-19)
(41.7373 11.7846 -1.86819e-19)
(43.1031 11.7359 0)
(38.7329 13.5553 0)
(30.6105 16.3211 0)
(21.7158 18.7728 0)
(14.1405 19.9963 1.21533e-19)
(8.42028 19.8064 0)
(4.1153 18.5672 -9.61079e-19)
(0.612092 16.7637 9.02511e-19)
(-2.49561 14.7411 1.95789e-18)
(-5.39128 12.6636 -2.08074e-18)
(-8.09138 10.5684 -3.68169e-18)
(-10.4795 8.43843 3.96712e-18)
(-12.3394 6.24302 -5.98754e-18)
(-13.4937 3.99394 6.2345e-18)
(-13.9928 1.79186 -7.52513e-18)
(-14.1013 -0.164821 -1.81786e-19)
(-13.971 -1.6564 7.80544e-18)
(-13.4124 -2.6442 0)
(-12.1012 -3.33074 1.55539e-19)
(-9.96834 -3.8853 1.4782e-19)
(-7.3332 -4.328 0)
(-4.63944 -4.64583 1.31976e-19)
(-2.17939 -4.83819 0)
(-0.0548019 -4.93148 0)
(1.75184 -4.95785 5.23045e-18)
(3.29951 -4.94647 -9.80569e-18)
(4.63346 -4.93674 4.80489e-18)
(5.7776 -4.95024 4.04317e-18)
(6.73672 -4.98826 -4.15142e-18)
(7.50474 -5.04236 -8.81828e-20)
(8.0781 -5.1018 0)
(8.46731 -5.15982 3.18861e-18)
(8.70278 -5.21721 -2.84955e-18)
(8.8324 -5.28104 0)
(8.91089 -5.35939 0)
(8.98475 -5.45531 -2.14462e-18)
(9.0803 -5.5633 2.38284e-18)
(9.20058 -5.67029 2.21639e-18)
(9.33157 -5.76027 -2.07997e-18)
(9.45303 -5.81959 -1.8128e-18)
(9.5478 -5.8403 3.26069e-18)
(9.60631 -5.82075 -1.55871e-18)
(9.62662 -5.76431 -3.38265e-19)
(9.61196 -5.67728 0)
(9.56815 -5.56708 1.37759e-19)
(9.50163 -5.44092 -9.04205e-19)
(9.41833 -5.30517 1.83056e-18)
(9.32334 -5.16506 -9.25596e-19)
(9.22078 -5.02461 0)
(9.11395 -4.88668 -9.46984e-20)
(9.00537 -4.75315 0)
(8.89687 -4.62505 -7.75709e-20)
(8.78969 -4.50273 -6.24117e-20)
(8.68458 -4.38608 -1.11039e-19)
(8.58185 -4.27463 -8.10525e-19)
(8.48146 -4.16772 7.0516e-19)
(8.38321 -4.06462 -7.56342e-20)
(8.28673 -3.96461 -5.4781e-19)
(8.19165 -3.86705 6.57823e-19)
(8.09761 -3.77139 -4.06261e-19)
(8.00434 -3.67723 3.95064e-19)
(7.91167 -3.58429 -3.22146e-19)
(7.81958 -3.49238 2.52476e-19)
(7.72832 -3.40124 1.91606e-19)
(7.63821 -3.31141 -1.85725e-19)
(7.5486 -3.22714 3.83487e-20)
(7.46206 -3.14929 -2.96905e-20)
(1.5059 -1.14292 -2.65773e-17)
(-4.05798 -3.33614 -3.73596e-17)
(-10.9495 0.169901 7.31074e-17)
(-22.6863 1.36837 -6.78384e-17)
(-35.2396 6.13207 3.26347e-17)
(-46.6114 10.5255 -5.90856e-20)
(-52.0063 12.5036 -1.77688e-17)
(-49.0826 10.4144 3.17184e-17)
(-39.8281 4.65878 -3.84388e-18)
(-28.8542 -2.4815 -9.89104e-18)
(-20.1062 -8.8607 2.64227e-19)
(-15.0875 -13.6668 -1.981e-18)
(-13.2637 -16.886 2.01648e-18)
(-13.2943 -18.656 -8.53429e-18)
(-13.8908 -19.2904 8.71728e-18)
(-14.1595 -19.133 1.21536e-17)
(-13.7789 -18.2794 -1.23942e-17)
(-12.9062 -16.7006 -1.23781e-19)
(-11.8603 -14.4832 0)
(-10.8642 -11.8553 -9.75046e-18)
(-9.97085 -9.00675 9.91968e-18)
(-9.15314 -6.08657 -2.59121e-20)
(-8.36055 -3.23053 5.02061e-18)
(-7.54031 -0.563971 -5.0593e-18)
(-6.65199 1.80321 -1.11134e-19)
(-5.67231 3.79057 0)
(-4.60576 5.35267 1.42972e-20)
(-3.48538 6.47851 -7.57047e-20)
(-2.34916 7.1968 -2.81825e-18)
(-1.22069 7.57917 2.84878e-18)
(-0.0949173 7.71049 2.75655e-18)
(1.04057 7.62822 -2.91532e-18)
(2.18666 7.33216 -1.02147e-19)
(3.31606 6.84033 -2.57511e-18)
(4.38053 6.19226 4.94527e-18)
(5.34136 5.43067 -2.41461e-18)
(6.19025 4.61472 -2.11231e-18)
(6.93154 3.79686 2.17373e-18)
(7.56628 2.99744 -5.82272e-20)
(8.08751 2.21748 -5.17876e-20)
(8.48328 1.4561 9.79005e-20)
(8.74269 0.71423 -1.95935e-18)
(8.86171 -0.0014449 1.03966e-19)
(8.85136 -0.678854 1.94915e-18)
(8.74451 -1.30482 -2.06244e-18)
(8.59597 -1.87181 1.90333e-18)
(8.47235 -2.38216 0)
(8.4323 -2.84576 1.88411e-18)
(8.50636 -3.27249 -1.90071e-18)
(8.68803 -3.66531 1.53585e-18)
(8.94102 -4.01895 -1.75902e-19)
(9.217 -4.32383 -6.59353e-20)
(9.473 -4.57116 -6.92254e-20)
(9.68086 -4.75634 -7.15223e-20)
(9.8282 -4.87999 -1.33144e-18)
(9.9144 -4.94698 9.05578e-20)
(9.94566 -4.9648 0)
(9.93109 -4.94212 -1.13892e-18)
(9.88034 -4.88764 8.61115e-19)
(9.8023 -4.80948 0)
(9.70481 -4.71487 -8.55123e-19)
(9.5944 -4.60988 6.66985e-19)
(9.47635 -4.49935 0)
(9.35476 -4.38698 -6.66703e-20)
(9.23263 -4.2754 0)
(9.112 -4.1663 -8.22027e-19)
(8.99412 -4.06059 1.71147e-18)
(8.87955 -3.95859 -7.63483e-19)
(8.76838 -3.8602 8.64882e-20)
(8.66035 -3.76504 7.56337e-20)
(8.55502 -3.67263 -4.42857e-19)
(8.45188 -3.58244 3.74854e-19)
(8.35042 -3.494 -3.52486e-20)
(8.25024 -3.40694 -2.86066e-20)
(8.15107 -3.32097 5.63737e-20)
(8.05282 -3.23588 2.75214e-20)
(7.95562 -3.15142 1.36402e-19)
(7.85964 -3.06816 -3.18767e-20)
(7.76429 -2.99002 -9.00073e-20)
(7.6724 -2.91594 -2.40518e-21)
(-6.90496 1.69543 0)
(-4.6389 4.01121 2.35066e-19)
(7.66567 -3.41978 -2.94442e-20)
(17.7792 -3.65564 2.7706e-17)
(17.2931 -1.36549 -5.8144e-17)
(12.0006 4.36208 6.17081e-17)
(5.52713 11.1255 -3.18625e-17)
(0.298846 17.2066 0)
(-2.56999 21.618 -3.38241e-19)
(-3.14807 24.1771 2.98615e-17)
(-2.10753 25.2581 -3.07006e-17)
(-0.0796223 25.3705 -2.67928e-17)
(2.57369 24.9367 5.25014e-17)
(5.67482 24.2438 -2.15079e-18)
(9.08797 23.4498 -2.43609e-18)
(12.6667 22.6375 -2.11407e-17)
(16.2414 21.8372 -2.17441e-19)
(19.5511 21.023 1.4795e-17)
(22.2875 20.1924 -1.48508e-17)
(24.1946 19.3502 -1.38341e-20)
(25.1406 18.5511 -1.42899e-19)
(25.104 17.8866 -2.1754e-19)
(24.1293 17.4503 6.54128e-18)
(22.2874 17.2765 -1.52153e-18)
(19.7541 17.3309 -5.23715e-18)
(16.7993 17.5114 -8.84641e-20)
(13.7514 17.6667 2.33912e-18)
(10.8385 17.653 -3.88123e-18)
(8.19787 17.3907 2.52268e-18)
(5.90072 16.8292 -9.71582e-19)
(4.01058 15.937 0)
(2.59926 14.7165 -1.07183e-20)
(1.73188 13.223 2.15364e-19)
(1.41845 11.5541 -2.25369e-19)
(1.56594 9.81058 6.02546e-19)
(2.01625 8.09098 -7.52721e-19)
(2.59361 6.47637 -4.90266e-20)
(3.15123 5.00344 0)
(3.59586 3.67685 2.50385e-20)
(3.88886 2.48506 -1.22278e-18)
(4.04622 1.40755 1.35446e-18)
(4.1273 0.422758 -6.87644e-20)
(4.22153 -0.483818 6.57899e-20)
(4.41507 -1.32516 0)
(4.76063 -2.10351 0)
(5.26367 -2.80796 1.45907e-18)
(5.88895 -3.42205 -1.68068e-18)
(6.58025 -3.93326 -1.05122e-19)
(7.2798 -4.3386 -1.5135e-18)
(7.94031 -4.64414 3.07015e-18)
(8.52937 -4.86139 -1.37157e-18)
(9.02908 -5.0035 0)
(9.43323 -5.08284 1.3615e-18)
(9.7436 -5.11002 -1.27126e-18)
(9.96681 -5.09399 0)
(10.112 -5.04256 1.11683e-18)
(10.1894 -4.96286 -1.03291e-18)
(10.2097 -4.86154 8.81276e-19)
(10.1835 -4.74442 -7.74502e-19)
(10.1209 -4.61698 0)
(10.0309 -4.48423 1.68297e-19)
(9.92154 -4.35011 8.31723e-20)
(9.79959 -4.2178 -5.19419e-19)
(9.67067 -4.08968 1.16814e-19)
(9.53907 -3.96732 4.5056e-19)
(9.40795 -3.85155 0)
(9.27935 -3.74256 4.59806e-20)
(9.15444 -3.64004 0)
(9.0336 -3.54335 0)
(8.9167 -3.45162 -3.78162e-19)
(8.80329 -3.36396 3.68694e-19)
(8.69276 -3.27949 2.2991e-19)
(8.5845 -3.19747 -1.01013e-20)
(8.47798 -3.11728 -1.69518e-19)
(8.37284 -3.03849 -1.37774e-19)
(8.2689 -2.96073 1.11783e-19)
(8.16623 -2.88368 -1.25104e-20)
(8.06489 -2.80786 -1.62229e-20)
(7.96434 -2.73682 6.5071e-21)
(7.86755 -2.66773 1.17031e-20)
(9.23951 -3.40363 4.94643e-17)
(28.4662 -4.42535 -3.65224e-17)
(41.6907 -10.9115 -2.96617e-17)
(52.1436 -10.5169 3.04087e-17)
(55.0899 -11.2174 -2.27282e-20)
(53.4968 -9.18767 -4.76406e-20)
(49.4302 -5.89471 0)
(44.74 -2.39892 8.2663e-18)
(40.7011 0.639165 -8.47943e-18)
(37.9601 2.86542 0)
(36.5711 4.21007 1.09096e-18)
(36.2156 4.73146 -4.50446e-18)
(36.4347 4.54822 -2.16652e-18)
(36.6598 3.8054 1.23361e-17)
(36.185 2.68448 -7.22509e-18)
(34.2509 1.44373 -2.30751e-19)
(30.1726 0.317156 3.49239e-19)
(23.7486 -0.479629 0)
(15.4693 -0.866966 -9.7208e-18)
(6.46284 -0.894785 9.70236e-18)
(-1.88866 -0.619738 3.11478e-19)
(-8.52284 -0.062845 -6.08513e-18)
(-13.0663 0.69409 6.58896e-18)
(-15.8328 1.48019 -3.63878e-18)
(-17.4031 2.10021 3.73079e-18)
(-18.3415 2.47495 9.02277e-20)
(-19.041 2.68607 -6.78035e-19)
(-19.7119 2.81535 7.47115e-19)
(-20.3672 2.87064 -6.72326e-19)
(-20.8227 2.77872 -5.3298e-19)
(-20.7732 2.47867 1.01598e-18)
(-19.9034 1.91029 1.63869e-18)
(-18.1007 1.0727 -1.73982e-18)
(-15.5557 0.0768682 0)
(-12.6767 -0.922318 7.08546e-20)
(-9.87452 -1.81038 7.46916e-20)
(-7.41187 -2.54415 0)
(-5.36816 -3.12551 3.75203e-18)
(-3.69746 -3.57551 -3.84882e-18)
(-2.30627 -3.9306 -7.44769e-20)
(-1.08641 -4.20642 0)
(0.0508232 -4.41428 6.9038e-20)
(1.15864 -4.57815 2.61272e-18)
(2.26029 -4.71652 -2.6043e-18)
(3.35532 -4.83813 0)
(4.4274 -4.94811 -1.84528e-18)
(5.45399 -5.04871 2.12755e-18)
(6.41376 -5.13906 0)
(7.28983 -5.21555 0)
(8.07016 -5.27295 -9.45094e-20)
(8.74693 -5.30574 -8.93817e-20)
(9.31596 -5.30944 0)
(9.77663 -5.28156 1.08781e-18)
(10.1319 -5.22208 -1.15627e-18)
(10.388 -5.13335 -9.78308e-19)
(10.5541 -5.01957 1.31465e-19)
(10.6415 -4.88595 1.6834e-18)
(10.6622 -4.73806 -1.51761e-18)
(10.6286 -4.58116 -2.80212e-20)
(10.5525 -4.41996 5.71967e-19)
(10.4446 -4.25848 -7.6096e-20)
(10.3145 -4.10004 0)
(10.1703 -3.94736 0)
(10.0186 -3.80248 3.35234e-19)
(9.865 -3.66674 -3.58404e-19)
(9.71323 -3.54082 0)
(9.56591 -3.42473 1.99786e-20)
(9.42439 -3.31796 0)
(9.2891 -3.2196 1.36029e-19)
(9.15975 -3.1285 -1.32742e-19)
(9.03562 -3.04341 1.21968e-20)
(8.91585 -2.96314 1.43079e-19)
(8.79953 -2.88661 -1.13928e-19)
(8.68591 -2.81291 -1.21598e-21)
(8.57442 -2.74131 0)
(8.46471 -2.67122 0)
(8.3567 -2.60214 0)
(8.25028 -2.53447 7.61168e-20)
(8.14495 -2.47123 2.44889e-20)
(8.0435 -2.40813 -1.82054e-19)
(-2.75956 -0.093609 -2.02256e-17)
(-7.24161 -3.51584 -2.70229e-17)
(-9.92839 -3.97631 2.76375e-17)
(-13.2023 -9.21571 -2.04196e-17)
(-15.3148 -12.7334 2.07546e-17)
(-17.7811 -16.6622 -1.26289e-19)
(-20.8746 -20.4213 -1.25893e-19)
(-24.1434 -23.784 0)
(-26.9992 -26.759 3.35672e-20)
(-29.1632 -29.2655 0)
(-30.696 -31.2699 -9.72948e-20)
(-31.8353 -32.7825 -1.46222e-17)
(-32.7624 -33.8865 1.48011e-17)
(-33.5386 -34.5875 2.01123e-17)
(-34.1528 -34.9151 -2.03128e-17)
(-34.3599 -34.9158 2.45134e-17)
(-33.6593 -34.7704 -2.55167e-17)
(-31.1873 -34.6474 0)
(-25.8827 -34.7676 0)
(-16.6511 -35.4382 0)
(-3.27066 -36.5868 -2.81038e-17)
(11.642 -37.3695 5.49243e-17)
(22.7855 -36.6363 -3.30881e-18)
(26.2647 -33.8708 -4.48068e-17)
(22.976 -29.5957 2.13485e-17)
(16.6517 -24.8 0)
(10.0678 -20.2321 3.10819e-19)
(4.16249 -16.1879 0)
(-0.936509 -12.6541 -8.02521e-18)
(-5.00204 -9.68166 7.89408e-18)
(-7.66981 -7.39081 -6.9305e-20)
(-8.77307 -5.83301 0)
(-8.54918 -4.92848 3.42925e-18)
(-7.4876 -4.52077 -6.21325e-18)
(-6.08521 -4.44749 2.84598e-18)
(-4.68263 -4.5741 -1.91676e-18)
(-3.43217 -4.80691 3.59686e-18)
(-2.3494 -5.08569 -1.67711e-18)
(-1.38399 -5.37264 0)
(-0.473388 -5.6445 0)
(0.432924 -5.8909 0)
(1.3661 -6.11077 1.12461e-18)
(2.33628 -6.29878 -3.33839e-18)
(3.33861 -6.4489 2.13652e-18)
(4.35793 -6.55907 0)
(5.37378 -6.62823 -1.87674e-18)
(6.36391 -6.65513 1.81049e-18)
(7.30631 -6.6384 1.59942e-18)
(8.18068 -6.57725 -2.05052e-19)
(8.96929 -6.47203 -1.03084e-19)
(9.65784 -6.32478 -1.0294e-19)
(10.236 -6.13945 -1.25827e-18)
(10.6981 -5.92193 0)
(11.0435 -5.67977 0)
(11.2768 -5.42167 -7.85012e-19)
(11.4071 -5.15667 8.16491e-19)
(11.4477 -4.89319 0)
(11.4139 -4.63816 0)
(11.3214 -4.39646 2.57943e-20)
(11.1855 -4.17087 6.53277e-20)
(11.0192 -3.96246 0)
(10.8338 -3.77124 0)
(10.6383 -3.5967 -2.10607e-20)
(10.4399 -3.43817 -1.57836e-20)
(10.2442 -3.29488 1.82109e-19)
(10.0554 -3.16591 -2.66411e-19)
(9.87573 -3.05017 8.37996e-21)
(9.70651 -2.94632 1.43634e-19)
(9.54777 -2.85282 -9.21334e-20)
(9.39877 -2.76809 4.96577e-20)
(9.25833 -2.69053 -2.46005e-20)
(9.12505 -2.61865 2.98061e-21)
(8.99756 -2.55114 -6.43445e-20)
(8.87469 -2.48688 -4.19415e-20)
(8.75547 -2.42498 1.92461e-19)
(8.63926 -2.36468 -1.2568e-19)
(8.52565 -2.30538 0)
(8.41431 -2.24742 -3.5759e-20)
(8.30464 -2.19328 0)
(8.19902 -2.1377 1.71739e-19)
(6.92464 -0.631023 0)
(22.9907 -3.23284 1.33152e-19)
(35.3915 -5.17451 -1.30687e-19)
(36.6441 -3.88756 -5.04258e-17)
(27.7332 -0.422685 9.88219e-17)
(14.3287 4.33906 -4.82736e-17)
(2.50275 8.72562 1.2683e-19)
(-3.83334 12.0257 0)
(-4.60425 14.3155 0)
(-2.43158 16.018 0)
(-0.022881 17.4589 9.91145e-20)
(1.26133 18.6759 -3.76383e-21)
(1.29569 19.451 0)
(0.546339 19.7636 6.53261e-20)
(-0.443616 19.773 -7.51536e-20)
(-1.21048 19.4654 5.93175e-19)
(-1.38793 18.7091 -1.79381e-19)
(-0.701717 17.4662 -6.59923e-20)
(0.804622 15.6692 0)
(2.66062 13.2814 5.22184e-20)
(4.00851 10.3468 -2.55541e-19)
(3.74252 7.01299 4.89999e-18)
(1.17198 3.57552 7.22829e-19)
(-3.20963 0.376232 -5.47193e-18)
(-7.82273 -2.41228 -3.95969e-19)
(-11.1577 -4.78095 6.16369e-20)
(-12.7439 -6.73375 -7.14782e-18)
(-13.0329 -8.20926 6.67242e-18)
(-12.7457 -9.08073 1.28963e-19)
(-12.269 -9.35929 2.0782e-19)
(-11.5938 -9.22617 1.79209e-19)
(-10.6424 -8.886 -4.93834e-18)
(-9.44801 -8.49551 4.98574e-18)