/*--------------------------------*- C++ -*----------------------------------*\
| =========                 |                                                 |
| \\      /  F ield         | OpenFOAM: The Open Source CFD Toolbox           |
|  \\    /   O peration     | Version:  2012                                  |
|   \\  /    A nd           | Website:  www.openfoam.com                      |
|    \\/     M anipulation  |                                                 |
\*---------------------------------------------------------------------------*/
FoamFile
{
    version     2.0;
    format      ascii;
    class       volScalarField;
    location    "0.76";
    object      p;
}
// * * * * * * * * * * * * * * * * * * * * * * * * * * * * * * * * * * * * * //

dimensions      [0 2 -2 0 0 0 0];


internalField   nonuniform List<scalar> 
42400
(
-8646.03
-8404.7
-8082.86
-7707.58
-7256.04
-6781.63
-6289.02
-5777.3
-5253.99
-4735.61
-4234.33
-3749.42
-3268.43
-2777.98
-2276.03
-1775.54
-1298.55
-867.541
-498.182
-196.446
39.0975
213.686
334.328
409.116
446.376
454.11
439.767
409.828
369.702
323.85
276.131
230.088
188.38
152.169
121.272
94.6865
71.1869
49.7134
29.5273
10.6781
-6.90518
-23.3032
-38.1012
-51.1754
-62.3942
-71.5367
-78.3763
-82.7538
-84.6836
-84.3649
-82.0983
-78.214
-73.1594
-67.2799
-60.7951
-53.9324
-46.8847
-39.3886
-31.6652
-24.1161
-16.9823
-10.1638
-4.10341
1.07646
5.40996
9.04851
12.2085
15.0891
17.7719
20.2232
22.3439
24.0354
25.248
25.9916
26.3181
26.2961
25.991
25.4539
24.7181
23.7858
-5523.67
-5177.17
-4710.98
-4233.82
-3773.03
-3434.32
-3195.61
-2985.55
-2744.81
-2464.24
-2177.19
-1921.38
-1714.08
-1553.74
-1430.16
-1330.98
-1244.96
-1163.62
-1081.57
-996.355
-908.004
-818.36
-730.144
-646.085
-568.309
-498.07
-435.893
-381.777
-335.523
-296.588
-264.534
-238.7
-218.359
-202.78
-191.245
-183.08
-177.661
-174.398
-172.733
-172.112
-171.863
-171.316
-170.404
-168.809
-166.271
-162.643
-157.776
-151.542
-144.126
-135.8
-126.744
-117.051
-106.719
-95.6041
-83.4187
-69.8452
-54.7764
-38.5108
-21.7995
-5.74516
8.55459
20.1591
29.0567
35.1367
38.5115
39.6457
39.0701
37.7679
36.2593
34.8248
33.5519
32.4065
31.3248
30.2622
29.1998
28.1333
27.0631
25.9881
24.9092
23.8311
13252.2
13048.5
12799.8
12426.4
11835.8
11032.5
10005.5
8765.21
7395.81
6066.74
4934.4
4033.73
3297.89
2656.03
2079.67
1566.58
1120
744.78
445.127
219.819
59.2456
-50.2882
-122.429
-168.442
-196.738
-213.188
-221.596
-224.236
-222.455
-217.261
-209.691
-200.888
-191.982
-183.926
-177.389
-172.733
-170.049
-169.209
-169.926
-171.813
-174.422
-177.271
-179.876
-181.77
-182.563
-181.827
-179.129
-174.289
-167.128
-157.956
-146.768
-133.569
-118.49
-101.77
-83.7424
-64.843
-45.6372
-26.8044
-9.08478
6.80162
20.2866
31.0447
39.0115
44.311
47.2022
48.057
47.5638
45.9558
43.7621
41.3835
39.0313
36.7914
34.6875
32.7232
30.8976
29.2068
27.6423
26.1924
24.8501
23.5961
-4419.62
-4232.81
-3953.11
-3570.07
-3086.47
-2554.94
-2018.25
-1511.62
-1059.33
-676.958
-378.963
-181.522
-91.954
-98.7916
-178.608
-307.483
-461.655
-611.55
-723.892
-773.83
-755.815
-682.306
-577.388
-466.057
-365.254
-281.139
-212.514
-155.831
-108.551
-69.8287
-39.7806
-18.6087
-6.00712
-1.04968
-2.40308
-8.6054
-18.2641
-30.1518
-43.2339
-56.6625
-69.7579
-81.9811
-92.8989
-102.15
-109.441
-114.528
-117.198
-117.365
-115.299
-111.061
-104.599
-95.9865
-85.4115
-73.1509
-59.5641
-45.0844
-30.2019
-15.4382
-1.31597
11.6735
23.1025
32.6337
40.0375
45.2465
48.3402
49.5455
49.2076
47.7717
45.6301
43.1034
40.4327
37.7814
35.25
32.8922
30.7301
28.7654
26.9877
25.3814
23.933
22.595
-5141.8
-5238.74
-5366.24
-5481.18
-5572.94
-5622.61
-5630.24
-5595.8
-5516.22
-5388.02
-5211.37
-4993.95
-4747.81
-4482.54
-4200.39
-3898.35
-3572.95
-3219.82
-2831.13
-2398.59
-1922.12
-1424.08
-947.854
-542.355
-235.397
-23.8297
112.604
194.177
235.72
248.484
241.769
222.992
197.574
169.193
140.203
112.021
85.4379
60.8499
38.4269
18.2243
0.248955
-15.506
-29.0453
-40.3691
-49.4791
-56.3806
-61.0794
-63.6135
-64.0863
-62.494
-58.9026
-53.575
-46.7183
-38.5909
-29.4854
-19.7324
-9.69093
0.26522
9.76707
18.4727
26.091
32.4014
37.2659
40.6496
42.6185
43.3442
43.0324
41.892
40.2633
38.3114
36.2006
34.0493
31.9366
29.9151
28.0185
26.2641
24.6572
23.1958
21.8741
20.633
3586.46
3725.12
3920.11
4131.95
4368.11
4573.88
4731.83
4839.76
4904.09
4934.49
4937.65
4914.89
4861.87
4771.41
4638.09
4461.17
4243.7
3988.19
3692.75
3351.86
2962.3
2529.48
2071.46
1622.17
1222.21
902.245
670.019
511.465
403.313
326.028
267.919
222.846
187.304
158.601
134.681
114.041
95.6499
78.8608
63.3363
48.9513
35.7067
23.6635
12.901
3.49423
-4.4971
-11.0303
-16.0844
-19.6609
-21.7503
-22.3744
-21.7632
-19.9347
-17.0186
-13.1624
-8.55565
-3.41469
2.03401
7.55943
12.9326
17.9382
22.3896
26.1429
29.1123
31.2622
32.6124
33.2315
33.2185
32.6874
31.7616
30.5542
29.1668
27.6854
26.1818
24.7079
23.2996
21.9796
20.7591
19.6426
18.625
17.6395
4685.85
4578.1
4432.08
4243.14
4017.23
3800.42
3609.92
3442.54
3283.07
3116.07
2934.62
2740.22
2539.28
2338
2141.17
1950.54
1764.2
1579.34
1395.36
1214.79
1040.12
872.652
713.704
567.971
446.549
360.837
309.505
277.858
251.823
226.005
200.162
174.838
149.897
125.546
102.279
80.6845
61.2736
44.3679
30.2193
18.6676
9.41949
2.1387
-3.50767
-7.8189
-11.0435
-13.3726
-14.9428
-15.8437
-16.1293
-15.8317
-14.9791
-13.5955
-11.7121
-9.37231
-6.63791
-3.5888
-0.330161
3.01687
6.32689
9.47915
12.3642
14.8922
16.9994
18.6507
19.8398
20.587
20.934
20.9383
20.6664
20.187
19.5651
18.8588
18.1163
17.3732
16.6557
15.9772
15.3448
14.7611
14.2146
13.64
-13656
-13236.1
-12688.7
-12050.9
-11317
-10518
-9651.26
-8732.59
-7799.94
-6897.85
-6060.23
-5304.21
-4634.72
-4050.22
-3546.05
-3114.02
-2741.33
-2411.43
-2106.04
-1811.23
-1518.2
-1228.89
-953.065
-704.415
-495.366
-333.354
-220.192
-152.342
-121.359
-116.934
-130.352
-154.374
-181.057
-202.045
-210.231
-201.815
-177.973
-146.593
-116.04
-90.875
-71.7844
-57.6297
-47.1044
-39.2635
-33.476
-29.2818
-26.3016
-24.2031
-22.6939
-21.5235
-20.4841
-19.4139
-18.1974
-16.7637
-15.083
-13.1621
-11.0377
-8.7694
-6.43127
-4.10329
-1.86342
0.219212
2.08956
3.71009
5.06211
6.14524
6.97512
7.58004
7.99675
8.26626
8.42974
8.52501
8.58334
8.62836
8.67419
8.72591
8.78206
8.83579
8.86396
8.81236
7232.27
7067.64
6839.97
6481.1
5921.96
5208.09
4427.19
3674.79
2999.96
2396.8
1839.49
1317.34
839.413
415.034
41.2142
-287.949
-570.435
-799.174
-969.357
-1080.44
-1137.01
-1147.28
-1120.46
-1067.69
-1001.35
-931.878
-863.812
-793.809
-714.105
-620.347
-516.7
-413.41
-320.347
-242.86
-181.441
-133.74
-97.5464
-70.6769
-52.6741
-42.4198
-37.655
-35.3654
-33.7132
-32.2012
-30.9969
-30.3463
-30.2881
-30.6607
-31.2217
-31.7483
-32.0799
-32.1164
-31.8036
-31.12
-30.0696
-28.6769
-26.9838
-25.0461
-22.9299
-20.7071
-18.4501
-16.2265
-14.0951
-12.1019
-10.2781
-8.63966
-7.1881
-5.91227
-4.7914
-3.7985
-2.90371
-2.07782
-1.29544
-0.537341
0.207446
0.940772
1.65584
2.33703
2.95301
3.46249
9035.04
8941
8812.69
8604.76
8277.08
7869.18
7409.78
6915.77
6389.11
5830.48
5273.49
4788.75
4423.96
4144.53
3877.34
3590.19
3290.37
2985.08
2674.61
2361.19
2050.53
1751.07
1470.45
1215.08
990.91
801.52
647.255
525.212
430.287
356.316
296.932
246.355
200.079
155.203
111.767
71.5171
37.5696
11.8698
-6.15055
-18.4655
-26.5631
-31.7666
-34.6846
-36.0553
-36.7687
-37.559
-38.6622
-40.0637
-41.6349
-43.2154
-44.6564
-45.8205
-46.5883
-46.8712
-46.6199
-45.8265
-44.5203
-42.7606
-40.6281
-38.2157
-35.6208
-32.9372
-30.2495
-27.6285
-25.1282
-22.7851
-20.618
-18.63
-16.8113
-15.142
-13.5964
-12.1463
-10.7647
-9.42858
-8.12223
-6.83905
-5.58337
-4.37164
-3.2338
-2.19639
-5367.99
-4777.32
-3957.75
-3042.22
-2055.92
-1128.3
-273.32
500.152
1170.25
1720.42
2155.27
2494.22
2748.52
2915.71
2995.92
3000.87
2948.59
2853.63
2726.23
2573.35
2399.38
2207.65
2002.17
1788.7
1573.66
1364.37
1167.48
987.522
826.15
682.425
554.28
439.202
336.298
246.233
170.225
108.974
62.0279
27.7366
3.70305
-12.4876
-22.9014
-29.3735
-33.8094
-37.6074
-41.5725
-45.8323
-50.2848
-54.6401
-58.6199
-62.0309
-64.7406
-66.6713
-67.7922
-68.111
-67.6629
-66.5038
-64.7079
-62.3657
-59.5804
-56.4632
-53.1274
-49.6817
-46.2243
-42.8386
-39.5892
-36.5204
-33.657
-31.0056
-28.5574
-26.2919
-24.1811
-22.1929
-20.2954
-18.4605
-16.6668
-14.9026
-13.1685
-11.4782
-9.85852
-8.31386
1464.38
1212.83
901.638
565.842
176.257
-227.027
-642.586
-1060.79
-1466.89
-1849.8
-2200.62
-2512.15
-2780.5
-3005.76
-3188.36
-3324.54
-3407.18
-3427.02
-3377.28
-3256.25
-3068.08
-2823.96
-2541.43
-2241.94
-1945.58
-1666.24
-1410.41
-1179.24
-972.346
-790.692
-636.986
-513.47
-419.068
-348.788
-295.903
-254.513
-220.741
-192.52
-168.905
-149.428
-133.725
-121.384
-111.963
-105.037
-100.213
-97.1047
-95.3122
-94.447
-94.1527
-94.1183
-94.0892
-93.8583
-93.2671
-92.2023
-90.5945
-88.4198
-85.6976
-82.4849
-78.8679
-74.9515
-70.8488
-66.6712
-62.5186
-58.4738
-54.5992
-50.9356
-47.503
-44.3032
-41.3232
-38.539
-35.9192
-33.4284
-31.031
-28.6946
-26.3935
-24.1129
-21.8516
-19.6226
-17.4571
-15.339
-5421.06
-5256.58
-5047.55
-4819.11
-4568.49
-4327.05
-4104.5
-3910.17
-3754.54
-3646.5
-3589.95
-3579.34
-3595.86
-3607.65
-3581.59
-3501.82
-3375.91
-3224.02
-3061.83
-2896.91
-2731.18
-2565.18
-2400.05
-2237
-2076.75
-1919.35
-1762.87
-1603.4
-1435.35
-1255.18
-1068.07
-887.567
-728.378
-597.757
-494.098
-411.865
-345.883
-292.69
-250.142
-216.698
-190.985
-171.674
-157.492
-147.294
-140.1
-135.107
-131.669
-129.271
-127.5
-126.026
-124.593
-122.978
-121.022
-118.612
-115.688
-112.239
-108.302
-103.948
-99.2777
-94.404
-89.4408
-84.4926
-79.6466
-74.9695
-70.5062
-66.282
-62.3052
-58.5699
-55.0598
-51.7504
-48.611
-45.6067
-42.7007
-39.8569
-37.044
-34.2397
-31.4352
-28.6371
-25.8729
-23.1301
-1426.56
-1254.73
-1044.49
-900.981
-819.246
-821.255
-852.842
-862.391
-824.43
-733.888
-598.185
-438.072
-282.323
-157.193
-75.752
-33.317
-17.621
-21.1161
-42.2068
-77.0476
-118.806
-161.343
-200.296
-233.334
-260.908
-283.805
-302.205
-315.372
-322.81
-325.977
-327.942
-330.906
-334.318
-335.599
-332.294
-323.525
-310.034
-293.449
-275.541
-257.781
-241.198
-226.392
-213.615
-202.867
-193.979
-186.678
-180.645
-175.538
-171.03
-166.909
-162.847
-158.658
-154.205
-149.399
-144.21
-138.655
-132.796
-126.722
-120.537
-114.346
-108.239
-102.29
-96.5523
-91.0613
-85.8373
-80.8891
-76.2169
-71.8131
-67.6642
-63.7502
-60.0453
-56.5169
-53.127
-49.8337
-46.5947
-43.372
-40.1375
-36.8787
-33.5982
-30.3204
6191.51
6148.04
6142.62
6147.21
6110.5
5997.67
5802.93
5533.71
5194.69
4779.09
4278.97
3701.06
3082.02
2487.88
1975.66
1557.49
1214.37
928.264
690.896
497.31
340.956
215.406
114.254
31.6807
-36.3761
-92.842
-139.592
-177.719
-208.077
-231.803
-250.184
-264.189
-274.294
-280.719
-283.719
-283.723
-281.321
-277.173
-271.909
-266.059
-260.008
-253.998
-248.143
-242.46
-236.921
-231.474
-226.051
-220.573
-214.956
-209.03
-202.775
-196.12
-189.031
-181.519
-173.643
-165.506
-157.234
-148.964
-140.817
-132.89
-125.249
-117.932
-110.96
-104.343
-98.0847
-92.1841
-86.6364
-81.4326
-76.5597
-71.9994
-67.7272
-63.7106
-59.908
-56.2693
-52.7385
-49.2578
-45.7755
-42.2526
-38.6668
-35.0824
3766.22
3546.04
3247.65
2840.4
2285.83
1647.09
974.321
323.543
-236.603
-627.433
-796.315
-769.553
-653.825
-553.009
-496.152
-460.409
-425.09
-387.028
-350.816
-320.459
-296.596
-278.199
-263.781
-252.137
-242.634
-235.028
-229.329
-225.698
-224.275
-225.03
-227.668
-231.626
-236.189
-240.672
-244.588
-247.748
-250.246
-252.364
-254.393
-256.469
-258.547
-260.448
-261.928
-262.756
-262.714
-261.639
-259.5
-256.158
-251.523
-245.595
-238.414
-230.07
-220.711
-210.544
-199.819
-188.811
-177.788
-166.983
-156.565
-146.638
-137.248
-128.404
-120.096
-112.306
-105.011
-98.1911
-91.8244
-85.8926
-80.3774
-75.2585
-70.5101
-66.0984
-61.9783
-58.0938
-54.3796
-50.7675
-47.194
-43.6085
-39.9898
-36.4012
-13908.1
-13335.1
-12609
-11760.6
-10712.8
-9514.33
-8217.31
-6913.11
-5692.28
-4612.37
-3686.71
-2899.34
-2231.67
-1672.24
-1209.45
-827.555
-512.506
-258.972
-68.7174
54.7334
111.188
105.862
49.5769
-42.3179
-152.142
-262.62
-359.749
-434.757
-484.366
-510.573
-518.277
-512.939
-499.215
-480.498
-459.351
-437.921
-417.473
-398.715
-381.934
-367.293
-354.802
-344.255
-335.27
-327.327
-319.918
-312.684
-305.208
-297.241
-288.552
-278.941
-268.292
-256.586
-243.921
-230.511
-216.665
-202.74
-189.089
-175.997
-163.651
-152.136
-141.456
-131.564
-122.391
-113.867
-105.931
-98.5387
-91.6596
-85.2711
-79.3533
-73.8844
-68.8379
-64.1792
-59.8644
-55.8396
-52.0437
-48.4147
-44.897
-41.4498
-38.0615
-34.7553
6480.4
6373.47
6158.59
5767.65
5202.79
4519.63
3774.38
3020.41
2303.26
1654.33
1089.32
608.079
199.802
-152.489
-465.019
-748.27
-1004.93
-1229.45
-1413.09
-1548.94
-1634.48
-1671.24
-1663.44
-1617.26
-1540.31
-1440.84
-1327.25
-1207.65
-1089.73
-979.195
-879.573
-792.22
-716.786
-652.138
-596.808
-548.99
-507.701
-472.311
-442.375
-417.588
-397.55
-381.62
-368.906
-358.437
-349.283
-340.591
-331.701
-322.118
-311.462
-299.47
-286.021
-271.164
-255.136
-238.346
-221.33
-204.654
-188.809
-174.12
-160.712
-148.548
-137.494
-127.381
-118.057
-109.409
-101.364
-93.8809
-86.9334
-80.5012
-74.562
-69.0892
-64.0515
-59.4126
-55.1309
-51.1613
-47.4555
-43.9688
-40.664
-37.5167
-34.5177
-31.6508
-2484.68
-2088.67
-1536.52
-928.979
-251.586
364.658
873.035
1249.28
1489.6
1607.11
1624.02
1566.06
1458.39
1324.28
1182.59
1045.65
919.257
804.669
701.055
607.369
523.3
445.237
370.863
294.446
209.231
111.076
-0.130287
-120.308
-240.885
-351.572
-444.198
-514.288
-560.865
-585.5
-591.373
-582.412
-562.311
-534.684
-503.112
-470.822
-440.378
-413.457
-390.761
-372.144
-357.101
-344.186
-332.277
-320.384
-307.684
-293.631
-277.991
-260.853
-242.606
-223.881
-205.434
-187.984
-172.053
-157.865
-145.357
-134.28
-124.325
-115.224
-106.795
-98.9373
-91.6052
-84.781
-78.4518
-72.5995
-67.1981
-62.2154
-57.6158
-53.363
-49.422
-45.7605
-42.3494
-39.1638
-36.1828
-33.3891
-30.7669
-28.2907
-2361.72
-2571.37
-2832.92
-3095.33
-3344.76
-3534.13
-3646.41
-3674.08
-3618.43
-3486.06
-3286.6
-3032.58
-2739.48
-2425.61
-2111.42
-1817.43
-1559.58
-1341.94
-1152.67
-967.994
-763.264
-525.949
-264.5
-2.92901
231.804
419.242
548.822
619.48
636.933
611.191
553.887
476.301
388.118
296.817
207.674
124.12
48.2145
-18.9414
-76.9116
-125.735
-165.797
-197.716
-222.18
-239.579
-250.946
-257.372
-259.2
-256.792
-250.562
-240.976
-228.607
-214.169
-198.521
-182.602
-167.308
-153.314
-140.949
-130.193
-120.785
-112.38
-104.681
-97.4976
-90.7435
-84.3939
-78.4492
-72.9079
-67.7569
-62.9724
-58.5237
-54.3787
-50.5076
-46.8843
-43.4881
-40.3026
-37.315
-34.5142
-31.8893
-29.4281
-27.1151
-24.9385
1729.21
1996.71
2361.05
2820.7
3467.5
4273.48
5092.75
5836.02
6490.11
7043.12
7464.12
7721.3
7807.87
7747.03
7571.16
7297.56
6934.37
6499.77
6021.6
5524.99
5026.24
4536.61
4063.95
3612.28
3180.62
2769.7
2380.12
2012.74
1670.84
1359.32
1082.67
843.067
640.009
471.841
337
233.299
158.44
109.39
82.4964
73.5418
77.6254
89.1362
102.286
112.321
117.417
117.944
115.327
111.041
106.108
101.124
96.3886
92.0128
87.9954
84.2846
80.8156
77.5273
74.3682
71.2983
68.2888
65.3201
62.3803
59.4627
56.5639
53.6825
50.8182
47.9716
45.1441
42.3383
39.5576
36.8073
34.0946
31.4299
28.8265
26.3019
23.8776
21.5786
19.4319
17.4585
15.6917
14.1625
9896.79
9641.47
9356.09
9011.05
8468.21
7783.27
6956.29
6007.83
4992.26
3999.62
3132.49
2435.64
1870.54
1390.78
1007.46
746.594
598.37
535.538
531.79
564.606
614.062
665.681
711.168
746.999
772.328
787.33
792.009
786.365
771.326
748.753
720.671
688.716
654.582
619.058
582.552
546.059
510.427
475.413
440.813
406.689
373.162
340.509
309.251
280.13
253.787
230.548
210.313
192.728
177.344
163.748
151.621
140.715
130.84
121.846
113.615
106.055
99.0892
92.6551
86.6966
81.1631
76.0073
71.1848
66.6542
62.3769
58.3181
54.4469
50.7372
47.1673
43.7208
40.3864
37.1586
34.0376
31.03
28.149
25.4136
22.848
20.479
18.3286
16.4266
14.798
-3654.87
-3538.88
-3380.25
-3170.86
-2928.8
-2677.77
-2443.25
-2249.22
-2114.09
-2035.03
-1980.35
-1914.35
-1833.14
-1759.02
-1694.1
-1604.37
-1453.46
-1235.78
-970.676
-687.562
-413.233
-168.101
35.1028
191.335
302.412
376.365
424.807
458.314
483.521
503.049
516.843
523.929
523.929
517.631
506.565
491.847
474.309
455.116
434.82
413.497
391.172
368.017
343.969
319.503
295.29
271.955
249.942
229.494
210.698
193.543
177.961
163.849
151.088
139.551
129.109
119.64
111.026
103.166
95.9665
89.3455
83.2313
77.5603
72.2761
67.3285
62.6732
58.2713
54.0896
50.1002
46.281
42.6163
39.0967
35.7198
32.4903
29.4201
26.5272
23.8351
21.3697
19.1538
17.2114
15.5529
-10421.4
-10077.6
-9606.97
-9006.62
-8292.24
-7526.63
-6755.96
-6020.81
-5337.58
-4690.7
-4053.86
-3421.94
-2823.76
-2302.9
-1876.22
-1509.06
-1153.52
-805.874
-490.546
-211.929
38.8003
255.416
427.502
557.712
654.93
722.59
759.285
765.534
746.456
710.087
665.313
619.616
576.904
539.533
506.594
476.886
449.15
422.588
396.872
371.901
347.861
324.799
303.11
282.796
263.751
245.86
229.029
213.194
198.315
184.367
171.327
159.176
147.889
137.437
127.78
118.875
110.669
103.106
96.1268
89.6723
83.6849
78.1097
72.8962
67.9984
63.3755
58.9918
54.8172
50.8274
47.0035
43.3328
39.8091
36.4327
33.2103
30.155
27.2854
24.6236
22.194
20.0184
18.1159
16.4821
13724
13478.2
13145
12651.6
11932.6
11050.1
9996.22
8734.77
7276.86
5764.67
4425.66
3392.38
2627.82
2028.31
1525.02
1090.6
715.58
398.362
140.505
-54.7958
-190.349
-279.11
-335.924
-371.668
-390.701
-392.47
-375.792
-341.728
-294.014
-237.909
-178.862
-121.43
-68.5954
-21.7912
18.0784
50.9515
77.3557
98.0751
114.083
126.356
135.503
142.013
146.254
148.505
149.01
148.008
145.732
142.406
138.245
133.456
128.227
122.727
117.1
111.461
105.9
100.479
95.2368
90.1949
85.3585
80.7227
76.276
72.0034
67.8891
63.9167
60.0722
56.3438
52.7222
49.201
45.7778
42.4536
39.2337
36.1275
33.1488
30.3148
27.6461
25.1644
22.8916
20.8462
19.0424
17.4658
-2691.77
-2248.93
-1646.99
-964.155
-165.554
598.385
1203.13
1538.07
1583.89
1435.26
1232.15
1066.07
943.871
832.183
699.146
528.725
320.145
84.4468
-158.724
-386.435
-579.776
-726.69
-820.975
-858.948
-842.533
-782.041
-692.405
-585.605
-473.863
-365.029
-264.456
-175.953
-101.577
-41.6398
4.86808
39.7435
65.0766
82.7958
94.5538
101.735
105.579
107.103
107.082
106.088
104.515
102.615
100.526
98.3202
96.0311
93.6698
91.2481
88.7761
86.2648
83.7244
81.1636
78.5876
75.9979
73.3929
70.7683
68.1191
65.4408
62.7302
59.9867
57.2125
54.4126
51.5944
48.7679
45.945
43.1392
40.3656
37.6408
34.9824
32.4095
29.9422
27.6005
25.4044
23.3712
21.5148
19.8444
18.3426
-9884.16
-9850.82
-9838.88
-9794.82
-9672.77
-9434.52
-9099.51
-8728.82
-8377.67
-8050.52
-7701.6
-7277.31
-6756.52
-6156.05
-5509.18
-4846.86
-4190.95
-3554.41
-2941.9
-2352.48
-1788.62
-1265.12
-805.607
-430.698
-148.39
45.8086
166.687
232.389
258.325
256.531
236.671
207.015
174.451
143.602
116.87
95.0885
78.145
65.5493
56.6662
50.808
47.2948
45.5518
45.053
45.3668
46.161
47.1905
48.3403
49.5521
50.6785
51.6872
52.5687
53.3162
53.9248
54.3883
54.6988
54.8455
54.8165
54.599
54.1817
53.5554
52.715
51.6606
50.3982
48.9403
47.3059
45.5187
43.6062
41.5979
39.5235
37.4119
35.29
33.1828
31.1128
29.1002
27.1627
25.3155
23.5702
21.9346
20.4127
18.99
4669.54
4564.61
4392.44
4123.07
3721.62
3253.51
2762.38
2282.68
1833.76
1426.57
1074.44
793.575
595.684
478.398
424.038
408.448
410.798
417.529
421.536
419.439
408.109
383.47
342.745
286.406
218.351
144.612
71.5201
5.21179
-49.7597
-91.1514
-118.32
-131.354
-130.963
-119.079
-99.3478
-76.4201
-54.613
-36.7529
-23.8321
-15.4258
-10.3507
-7.1444
-4.77181
-2.55456
-0.0819224
2.78265
5.95908
9.29541
12.7528
16.2187
19.5996
22.8321
25.872
28.6874
31.2541
33.5516
35.5618
37.2677
38.654
39.7081
40.4213
40.7919
40.8266
40.5428
39.9684
39.1403
38.1016
36.8968
35.5681
34.1522
32.6793
31.173
29.6519
28.1307
26.621
25.1319
23.6699
22.2383
20.8393
19.4648
7124.57
7108.97
7140.97
7206.3
7272.26
7307.13
7281.46
7179.51
6998.13
6734.14
6377.3
5915.45
5351.37
4709.02
4027.6
3346.3
2693.51
2086.39
1535.79
1048.86
629.483
277.863
-8.76559
-236.376
-412.042
-542.265
-632.601
-687.897
-712.736
-711.708
-689.587
-651.372
-601.962
-545.236
-484.764
-423.592
-363.934
-307.23
-254.515
-206.734
-164.786
-129.362
-100.397
-77.298
-59.1955
-45.0778
-33.9735
-25.0589
-17.6878
-11.3856
-5.82381
-0.7899
3.84141
8.13231
12.1053
15.764
19.1041
22.1214
24.808
27.1498
29.1286
30.7241
31.9211
32.7171
33.1277
33.1888
32.9526
32.4793
31.8277
31.0469
30.1731
29.229
28.2274
27.174
26.0713
24.9208
23.7242
22.4841
21.206
19.8953
-2260.24
-2475.48
-2736.28
-2996.52
-3297.25
-3600.84
-3877.03
-4072.81
-4146.44
-4093.77
-3928.77
-3660.25
-3294.02
-2856.91
-2399.93
-1973.69
-1606.14
-1294.28
-1014.87
-744.484
-476.603
-223.997
-10.1062
146.159
239.147
274.796
265.236
225.236
169.338
109.237
52.4332
2.63371
-38.7015
-71.483
-95.3947
-110.87
-118.812
-120.379
-116.994
-110.245
-101.612
-92.2732
-83.0008
-74.1743
-65.896
-58.126
-50.7823
-43.7908
-37.1016
-30.6797
-24.5223
-18.652
-13.093
-7.87327
-3.01359
1.4878
5.65155
9.55005
13.1408
16.3475
19.1584
21.566
23.5641
25.1593
26.3742
27.249
27.8359
28.1885
28.3503
28.3484
28.1946
27.8908
27.436
26.8311
26.0809
25.1936
24.1808
23.0568
21.8402
20.5542
-8996.01
-8398.64
-7608.42
-6776.45
-5933.85
-5210.71
-4610.34
-4129.43
-3787.86
-3605.28
-3570.79
-3636.4
-3730.35
-3788.4
-3778.5
-3698.19
-3555.52
-3358.17
-3113.25
-2827.58
-2508.86
-2171.28
-1837.03
-1528.63
-1260.76
-1037.42
-852.981
-698.203
-566.336
-454.482
-361.542
-286.279
-226.554
-179.866
-144.108
-117.006
-96.7037
-81.6175
-70.4824
-62.3312
-56.4118
-52.1094
-48.8929
-46.3039
-43.9668
-41.5996
-39.0098
-36.0778
-32.746
-29.0259
-24.9696
-20.6473
-16.1374
-11.5287
-6.96543
-2.65143
1.45391
5.21157
8.58919
11.6137
14.2675
16.5541
18.5021
20.1548
21.5649
22.7858
23.8619
24.8177
25.652
26.3408
26.847
27.135
27.1808
26.9769
26.5306
25.8601
24.9903
23.9497
22.7714
21.496
6761.38
6591.93
6321.32
5920.29
5406.98
4859.01
4327.01
3832.89
3377.89
2960.29
2580.66
2237.71
1929.98
1663.44
1447.45
1276.82
1132.33
999.527
872.002
746.512
623.285
505.863
398.116
303.663
225.367
164.039
118.121
84.4692
58.6719
36.4001
15.2004
-5.08578
-23.3741
-38.5255
-49.9119
-57.48
-61.599
-62.8832
-62.028
-59.6963
-56.4477
-52.7073
-48.771
-44.8196
-40.9455
-37.1754
-33.4978
-29.8853
-26.3129
-22.77
-19.26
-15.7973
-12.4084
-9.11652
-5.77113
-2.3105
1.03003
4.21162
7.20098
9.9501
12.4267
14.6277
16.5807
18.3345
19.9457
21.4627
22.9125
24.2913
25.5645
26.6755
27.5611
28.168
28.4637
28.4397
28.1075
27.4927
26.6289
25.5539
24.3101
22.9527
5280.05
5331.83
5390.27
5410.91
5437.16
5448.07
5426.13
5345.72
5190.87
4966.19
4693.29
4402.16
4119.87
3861.41
3628.01
3413
3208.14
3004.17
2790.7
2557.51
2296.29
2003.5
1683.67
1350.92
1026.18
729.802
474.773
264.988
98.1662
-30.8959
-127.187
-195.077
-238.482
-261.164
-266.994
-259.877
-243.484
-221.019
-195.115
-167.85
-140.84
-115.223
-91.8387
-71.1837
-53.4722
-38.6798
-26.5887
-16.8594
-9.10904
-2.96428
1.90868
5.79705
8.94279
11.4911
13.4205
14.9884
16.345
17.5334
18.5878
19.539
20.4157
21.2518
22.0891
22.9729
23.9418
25.0138
26.1763
27.3823
28.5568
29.6105
30.4573
31.0286
31.2821
31.202
30.7949
30.083
29.0987
27.8794
26.4689
24.941
-8139.08
-7877.67
-7560.24
-7227.03
-6855.76
-6502.76
-6178.61
-5889.66
-5638.19
-5414.26
-5195.29
-4956.91
-4681.89
-4366.59
-4022.72
-3671.49
-3334.26
-3026.34
-2754.43
-2518.38
-2313.55
-2133.96
-1974.24
-1829.69
-1695.64
-1567.19
-1440.94
-1316.57
-1195.23
-1078.23
-966.331
-859.172
-756.108
-656.882
-561.871
-471.907
-387.868
-310.471
-240.313
-177.96
-123.935
-78.5907
-41.941
-13.5716
7.35171
21.9959
31.8341
38.1379
41.8104
43.5814
44.0292
43.6185
42.4743
40.8725
39.1232
37.3176
35.5975
34.0539
32.7381
31.6791
30.8933
30.3895
30.1699
30.2277
30.5436
31.0812
31.7843
32.5789
33.3764
34.0868
34.6272
34.9312
34.9536
34.6713
34.0802
33.1926
32.0402
30.644
29.0388
27.3194
-2272.96
-2376.12
-2473.99
-2532.96
-2583.23
-2644.3
-2724.75
-2806.31
-2871.07
-2913.85
-2929.22
-2904.76
-2828.23
-2696.75
-2521.14
-2319.26
-2108.48
-1901.77
-1707.34
-1528.01
-1361.79
-1204.16
-1051.01
-901.455
-758.58
-627.735
-514.273
-421.554
-348.48
-291.503
-246.618
-210.068
-177.266
-142.642
-101.862
-54.2887
-2.81806
48.6852
96.5096
137.528
169.73
192.525
207.29
214.977
216.33
212.054
202.774
189.458
173.411
155.932
138.181
121.055
105.404
91.618
79.7642
69.7532
61.4381
54.6497
49.2098
44.9448
41.6944
39.3147
37.6771
36.664
36.1621
36.0636
36.2591
36.6376
37.0905
37.5159
37.8247
37.9452
37.8256
37.4342
36.7579
35.7974
34.5595
33.0828
31.3916
29.5657
-250.276
378.948
1189.17
1910.35
2524.1
2970.66
3342.38
3703.96
4065.43
4401.55
4675.44
4859.31
4947.17
4951.71
4896.33
4804.52
4690.89
4556.82
4394.13
4193
3948.02
3661.65
3344.32
3011.74
2679.33
2359.05
2058.96
1783.41
1532.89
1306.43
1102.57
919.897
757.707
616.312
496.092
397.086
318.779
259.922
216.993
186.558
165.059
150.57
140.976
134.816
130.648
127.02
122.773
117.305
110.589
102.975
94.9372
86.8909
79.1431
71.8912
65.2513
59.2871
54.0325
49.5011
45.69
42.5815
40.1443
38.3355
37.1049
36.3929
36.0719
36.1081
36.4079
36.8719
37.4008
37.8994
38.2829
38.4817
38.4443
38.1393
37.5531
36.6876
35.5568
34.1841
32.6041
30.8037
13425.4
13258
13070.7
12777.3
12265.2
11539.3
10578.6
9406.36
8122.02
6862.48
5733.47
4767.96
3943.11
3217.57
2555.51
1933.83
1340.71
772.226
233.578
-256.927
-664.761
-951.685
-1099.35
-1120.8
-1049.98
-927.238
-784.607
-642.526
-511.806
-396.968
-299.003
-217.153
-150.001
-95.832
-52.5127
-17.6043
11.0509
34.0556
52.4231
66.1883
76.2141
82.9765
86.9191
88.5538
88.3566
86.708
83.8968
80.1607
75.7228
70.8072
65.6348
60.4128
55.3241
50.5211
46.1209
42.2053
38.8228
35.9963
33.7286
32.006
30.8012
30.0648
29.7475
29.805
30.2355
30.9237
31.7965
32.7714
33.7592
34.6709
35.4255
35.9576
36.2216
36.1933
35.8679
35.2559
34.3781
33.2607
31.9529
30.3454
-9103.74
-9086.92
-9076.15
-9047.03
-9046.19
-9063.21
-9091.39
-9094.04
-9008.67
-8771.7
-8351.2
-7765.04
-7071.33
-6336.81
-5612.35
-4927.81
-4299.83
-3738.54
-3248.13
-2824.43
-2456.61
-2130.25
-1831.23
-1551.35
-1290.76
-1051.27
-836.548
-650.544
-496.168
-374.747
-284.351
-219.106
-171.645
-136.072
-108.73
-87.7884
-71.4651
-58.2249
-46.5691
-35.8379
-25.957
-17.0363
-9.21286
-2.59976
2.76911
6.92998
9.97325
12.0294
13.2561
13.8266
13.9204
13.7075
13.3426
12.9598
12.6643
12.5252
12.5751
12.823
13.2637
13.9062
14.7391
15.7719
16.9994
18.4019
19.9629
21.652
23.4238
25.2161
26.9513
28.5458
29.9149
30.9949
31.7446
32.149
32.2152
31.966
31.4318
30.6483
29.6429
28.3402
-6288.4
-6074.33
-5783.44
-5414.54
-4961.12
-4454.09
-3903.98
-3318.79
-2714.06
-2128.32
-1627.75
-1277.72
-1096.35
-1039.68
-1036.64
-1035.89
-1018.48
-983.709
-935.584
-876.88
-808.615
-730.343
-642.37
-547.665
-451.599
-362.343
-288.498
-234.132
-197.749
-174.396
-158.669
-146.523
-135.389
-123.839
-111.596
-98.6131
-85.5181
-72.5471
-60.4276
-49.3902
-39.5655
-31.177
-24.3313
-19.1551
-15.5509
-13.2534
-11.9541
-11.374
-11.3009
-11.5727
-12.0494
-12.576
-12.9687
-13.0374
-12.6653
-11.8018
-10.5059
-8.88018
-7.04535
-4.80921
-2.2652
0.436729
3.19588
5.95761
8.70158
11.4251
14.1239
16.7759
19.326
21.6937
23.7874
25.527
26.862
27.778
28.2917
28.4395
28.2664
27.8175
27.1185
26.216
11642.8
11516.5
11308.2
10967
10522.7
10039.9
9549.69
9049.61
8515.72
7920.47
7248.56
6511.19
5745.5
4997.16
4296.94
3652.47
3056.31
2499.07
1977.92
1498.59
1071.31
705.313
406.11
174.905
7.90722
-103.184
-169.221
-201.653
-211.475
-207.418
-196.345
-182.339
-166.938
-150.694
-133.641
-115.852
-97.889
-81.1324
-66.8151
-55.8176
-48.3545
-44.4705
-43.7526
-45.6021
-49.3149
-54.2557
-59.8706
-65.6785
-71.2483
-76.166
-79.9841
-82.2905
-82.7864
-81.3774
-77.837
-71.6874
-62.8601
-52.6107
-41.9901
-32.0274
-23.1782
-15.5756
-9.18898
-3.86425
0.617762
4.49974
8.00501
11.2911
14.4174
17.344
19.9698
22.1868
23.924
25.1645
25.9369
26.2974
26.312
26.0446
25.5609
24.9308
11.7034
9.69453
9.11043
8.92554
8.86911
8.73616
8.46735
8.04913
7.49328
6.81976
6.05103
5.21063
4.32305
3.41154
2.49923
1.61015
0.763868
-0.0168611
-0.704433
-1.26687
-1.67628
-1.92441
-2.03404
-2.05447
-2.04213
-2.04043
-2.07117
-2.13851
-2.23949
-2.37321
-2.54353
-2.75573
-3.01237
-3.31295
-3.65759
-4.05142
-4.50631
-5.03906
-5.6682
-6.41126
-7.2821
-8.28739
-9.42274
-10.6699
-11.9965
-13.359
-14.708
-15.9932
-17.1685
-18.1949
-19.0424
-19.6904
-20.1269
-20.3463
-20.3503
-20.1505
-19.7627
-19.2065
-18.5043
-17.6808
-16.7615
-15.7728
-14.7416
-13.6949
-12.6589
-11.6581
-10.7125
-9.83708
-9.04033
-8.32522
-7.69016
-7.1306
-6.64055
-6.21365
-5.84387
-5.52582
-5.25477
-5.02661
-4.83776
-4.68511
-4.56596
-4.478
-4.41919
-4.38782
-4.38251
-4.40219
-4.44613
-4.51378
-4.60453
-4.7175
-4.8512
-5.00347
-5.17159
-5.35261
-5.54382
-5.74306
-5.94861
-6.15881
-6.37149
-6.58345
-6.79014
-6.98564
-7.16298
-7.3147
-7.43348
-7.51267
-7.54682
-7.53217
-7.46848
-7.35542
-7.19594
-6.99456
-6.75708
-6.49023
-6.20126
-5.89748
-5.58585
-5.27279
-4.96393
-4.66397
-4.37659
-4.10441
-3.84913
-3.61168
-3.39242
-3.19118
-3.00738
-2.84017
-2.68855
-2.5515
-2.42801
-2.31708
-2.21773
-2.12902
-2.05009
-1.98019
-1.91864
-1.86481
-1.81806
-1.77777
-1.74334
-1.7142
-1.68981
-1.66965
-1.65319
-1.63986
-1.6291
-1.62036
-1.61312
-1.60688
-1.60112
-1.59529
-1.58885
-1.58131
-1.57232
-1.56165
-1.54917
-1.53478
-1.51847
-1.50035
-1.48074
-1.46014
-1.43919
-1.41861
-1.39912
-1.3814
-1.36608
-1.35362
-1.34427
-1.33801
-1.3345
-1.33311
-1.33296
-1.33299
-1.332
-1.32874
-1.32201
-1.31072
-1.29396
-1.27108
-1.24169
-1.2057
-1.16326
-1.11474
-1.06066
-1.00167
-0.938452
-0.871817
-0.802451
-0.731276
-0.658765
-0.586014
-0.512915
-0.441236
-0.369497
-0.301587
-0.232243
-0.171363
-0.102644
-0.051723
12.2077
10.1096
9.80248
9.50501
9.44396
9.39013
9.23414
8.92542
8.45187
7.82577
7.07189
6.21922
5.29636
4.33063
3.34782
2.37221
1.4287
0.549452
-0.223725
-0.843345
-1.27154
-1.50152
-1.56874
-1.53947
-1.4833
-1.44934
-1.45918
-1.51467
-1.61117
-1.74693
-1.92454
-2.14689
-2.41359
-2.72162
-3.06934
-3.46053
-3.90546
-4.41904
-5.01828
-5.71995
-6.53786
-7.47933
-8.54139
-9.708
-10.9494
-12.2248
-13.4872
-14.6891
-15.7877
-16.7474
-17.5416
-18.1525
-18.5702
-18.7905
-18.8148