/*--------------------------------*- C++ -*----------------------------------*\
| =========                 |                                                 |
| \\      /  F ield         | OpenFOAM: The Open Source CFD Toolbox           |
|  \\    /   O peration     | Version:  2012                                  |
|   \\  /    A nd           | Website:  www.openfoam.com                      |
|    \\/     M anipulation  |                                                 |
\*---------------------------------------------------------------------------*/
FoamFile
{
    version     2.0;
    format      ascii;
    class       volScalarField;
    location    "0.2";
    object      p;
}
// * * * * * * * * * * * * * * * * * * * * * * * * * * * * * * * * * * * * * //

dimensions      [0 2 -2 0 0 0 0];


internalField   nonuniform List<scalar> 
42400
(
-10280.1
-9878.06
-9341.19
-8754.88
-8087.87
-7451.31
-6878.52
-6375.91
-5921.97
-5480.77
-5020.03
-4524.65
-3999.4
-3461.23
-2929.22
-2420.23
-1948.96
-1527.49
-1162.98
-856.286
-603.213
-397.361
-232.533
-104
-7.12744
63.597
113.3
146.481
167.038
178.236
182.538
180.933
173.756
161.057
142.933
119.992
94.2685
68.5543
46.1127
28.844
17.4586
10.6009
5.974
1.82738
-2.49719
-6.87222
-10.9149
-14.3208
-17.0634
-19.2065
-20.8466
-22.0887
-23.0242
-23.7303
-24.2669
-24.6785
-24.9973
-25.2459
-25.4403
-25.5908
-25.7046
-25.7853
-25.8349
-25.8533
-25.839
-25.7892
-25.7001
-25.5668
-25.3834
-25.1427
-24.8354
-24.4491
-23.9681
-23.373
-22.6415
-21.7513
-20.6837
-19.4268
-17.969
-16.3749
11404.1
11214.4
11022.4
10797.8
10506.2
10145.2
9693.55
9136.52
8475.79
7728.52
6929.29
6124.78
5360.04
4662.47
4036.67
3471.99
2954.38
2473.39
2024.51
1608.99
1231.47
897.489
610.784
372.34
181.002
34.181
-71.9138
-142.257
-182.803
-199.963
-200.044
-188.444
-169.796
-147.52
-123.981
-100.522
-78.0524
-56.7374
-36.8783
-18.5848
-2.72062
9.77379
18.3884
23.2065
25.0098
24.7672
23.1857
20.8845
18.2726
15.5608
12.8559
10.2106
7.65439
5.20823
2.88918
0.711492
-1.31424
-3.18198
-4.89045
-6.44268
-7.84526
-9.10736
-10.2397
-11.2536
-12.1603
-12.9698
-13.6904
-14.3282
-14.8861
-15.3632
-15.7543
-16.0492
-16.233
-16.2865
-16.1901
-15.9278
-15.4927
-14.891
-14.1478
-13.3012
-577.14
-531.936
-416.039
-204.709
109.095
464.965
784.343
1002.07
1097.31
1085.68
1001.01
882.616
766.278
677.225
623.943
599.613
591.431
590.779
596.422
607.863
620.883
626.334
615.988
586.98
541.122
482.595
416.348
347.267
279.678
217.037
161.94
116.213
80.8972
56.2149
41.6231
36.0498
38.0776
46.0531
58.0798
71.9615
85.2989
95.6475
101.282
101.853
98.0949
91.4299
83.4597
74.9912
66.5394
58.5261
51.0977
44.3093
38.168
32.6493
27.7128
23.3111
19.3951
15.9158
12.8253
10.0773
7.62785
5.43557
3.4623
1.67381
0.0404766
-1.46213
-2.85272
-4.14397
-5.3422
-6.44732
-7.45289
-8.34666
-9.11199
-9.73034
-10.1851
-10.4664
-10.5747
-10.5235
-10.3415
-10.0583
-14474.9
-13915.3
-13238.2
-12526.8
-11720.5
-10813.3
-9830.23
-8835.79
-7872.46
-6954.08
-6089.62
-5300.83
-4619.81
-4073.79
-3672.3
-3404.34
-3237.49
-3121.81
-3009.52
-2875.48
-2716.84
-2536.08
-2333.39
-2110.11
-1871.54
-1625.55
-1381.47
-1148.15
-933.498
-742.982
-579.605
-443.976
-334.593
-248.314
-181.061
-128.446
-86.3856
-51.4405
-21.0277
6.24632
30.4361
50.5176
65.2197
73.9865
77.3821
76.7337
73.4919
69.0485
64.1592
59.1138
54.1088
49.2494
44.6009
40.213
36.1194
32.3346
28.8556
25.6665
22.7434
20.0579
17.5802
15.2801
13.1289
11.1008
9.17411
7.33256
5.56586
3.87016
2.24803
0.708138
-0.735564
-2.06525
-3.26159
-4.30695
-5.18907
-5.90416
-6.45854
-6.86808
-7.15444
-7.34672
9721.11
9276.68
8551.29
7514.29
6198.99
4903.11
3759.46
2787.19
1972.97
1313.19
808.901
453.088
226.388
101.024
48.8354
46.9821
80.5004
138.927
212.072
290.394
366.272
434.933
493.629
540.634
574.797
595.763
604.758
603.223
592.972
575.113
550.663
519.972
483.52
442.317
397.84
351.864
306.238
262.583
222.417
186.943
156.844
132.193
112.58
97.2211
85.2699
76.1506
69.6236
64.832
61.1186
58.0158
55.1417
52.2422
49.2083
46.0367
42.7942
39.5539
36.3811
33.3237
30.4095
27.6488
25.0368
22.5596
20.1985
17.9338
15.7485
13.6303
11.5736
9.5795
7.65599
5.81668
4.07913
2.46242
0.984446
-0.341033
-1.50659
-2.51234
-3.36568
-4.07972
-4.67042
-5.16165
7301.66
7393.61
7611.62
7969.71
8386.33
8752.45
8979.08
9032.62
8915.97
8648.52
8262.78
7798.11
7290.38
6765.22
6236.91
5712.8
5198.37
4700.17
4225.52
3779.04
3362.03
2974.09
2615.15
2284.47
1979.99
1698.14
1435.11
1188.56
958.614
747.875
559.755
397.408
262.422
154.55
73.5277
18.1786
-14.1129
-27.2875
-26.2977
-16.2376
-1.52103
14.5427
29.7675
42.9065
53.4468
61.0575
65.4854
67.3051
66.9837
64.7843
61.4426
57.4661
53.2605
49.1146
45.1896
41.5512
38.2071
35.1356
32.3022
29.668
27.1944
24.8456
22.5901
20.4029
18.2664
16.1711
14.1157
12.1065
10.1562
8.28148
6.50079
4.83195
3.2898
1.88454
0.620892
-0.502032
-1.48996
-2.3521
-3.10089
-3.75723
-1870.07
-1997.13
-2184.95
-2384
-2584.86
-2699.3
-2743.16
-2747.97
-2724.33
-2669.93
-2579.9
-2456.94
-2312.82
-2164.96
-2033.02
-1934.67
-1880
-1868.89
-1891.18
-1929.2
-1963.13
-1975.38
-1953.08
-1888.79
-1779.97
-1628.34
-1439.07
-1221.21
-989.692
-764.945
-566.521
-405.68
-283.533
-193.722
-128.285
-80.0128
-43.4485
-15.0094
7.49217
25.1881
38.674
48.3762
54.7516
58.3529
59.7949
59.6865
58.5384
56.6943
54.3952
51.9308
49.1779
46.2256
43.2083
40.2466
37.4258
34.7898
32.3484
30.0884
27.9836
26.0023
24.1126
22.2848
20.4943
18.723
16.9596
15.2006
13.45
11.7177
10.0185
8.36948
6.78795
5.2896
3.88694
2.5886
1.39905
0.318914
-0.654383
-1.52598
-2.30598
-3.00654
-14716.5
-14156.8
-13462.5
-12708.6
-11904.9
-11106.1
-10315.3
-9528.18
-8729.9
-7902.25
-7028.5
-6103.75
-5141.58
-4175.89
-3256.54
-2435.08
-1750.57
-1220.04
-837.395
-577.953
-411.506
-311.744
-259.068
-239.454
-242.038
-257.38
-277.128
-294.666
-305.672
-307.815
-299.945
-281.778
-254.261
-219.591
-180.784
-141.067
-103.269
-69.4574
-40.8425
-17.8784
-0.433173
12.0297
20.2802
25.1759
27.5549
28.1667
27.6303
26.4376
24.9339
23.3551
21.8433
20.4864
19.3324
18.397
17.6688
17.1142
16.6849
16.3257
15.9818
15.6051
15.157
14.6107
13.9507
13.1723
12.2798
11.2853
10.2063
9.06472
7.88386
6.68719
5.49647
4.3307
3.20543
2.13266
1.12092
0.175778
-0.699668
-1.50488
-2.24478
-2.92337
9681.9
9518.82
9289.43
8924.04
8342.65
7648.99
6932.56
6226.53
5522.92
4825.73
4167.2
3582.7
3087.4
2674.99
2329.84
2035.48
1779.02
1552.71
1354.07
1181.73
1032.08
899.629
779.729
670.441
572.041
485.293
410.108
345.195
288.584
238.443
193.668
153.962
119.414
90.1051
65.8981
46.353
30.7808
18.3629
8.29224
-0.113921
-7.35664
-13.7466
-19.424
-24.3967
-28.5921
-31.9011
-34.2184
-35.5089
-35.6796
-34.7416
-32.7841
-29.9611
-26.4738
-22.5491
-18.4164
-14.2882
-10.3454
-6.72932
-3.53795
-0.828321
1.37804
3.08822
4.33032
5.14678
5.58841
5.70954
5.5648
5.20652
4.68298
4.0373
3.30691
2.52355
1.7135
0.89808
0.0941618
-0.685216
-1.43024
-2.13466
-2.79842
-3.42076
12855.1
12541.4
12107.9
11486.9
10559.8
9540.99
8593.69
7783.91
7063.69
6367.67
5689.92
5061
4502.74
4018.26
3598.86
3229.62
2894.22
2582.23
2291.64
2025.81
1788.37
1580.36
1399.75
1241.61
1100.46
971.927
853.367
743.51
641.925
548.427
462.418
383.993
312.939
248.872
191.277
139.574
93.196
51.661
14.6239
-18.1334
-46.7418
-71.2854
-91.8184
-108.366
-120.938
-129.559
-134.281
-135.206
-132.629
-126.928
-118.601
-108.241
-96.4939
-84.0173
-71.4291
-59.2666
-47.9554
-37.7915
-28.9407
-21.4533
-15.2902
-10.3528
-6.51079
-3.61956
-1.53448
-0.117722
0.756778
1.2007
1.31029
1.16661
0.836643
0.374829
-0.175269
-0.779262
-1.41039
-2.04811
-2.67688
-3.28614
-3.87246
-4.4324
-6415.65
-6104.63
-5725.94
-5306.4
-4842.44
-4312.24
-3683.9
-2965.19
-2207.24
-1474.89
-817.02
-258.098
195.825
550.403
816.816
1006.42
1129.63
1196.6
1218.62
1207.95
1175.3
1127.67
1067.56
995.473
911.785
818.565
719.789
620.131
523.95
434.69
354.534
283.748
221.857
167.321
118.315
73.1488
30.3879
-10.5012
-49.473
-86.2534
-120.482
-151.756
-179.587
-203.306
-222.058
-235.248
-243.186
-245.594
-242.046
-232.698
-218.161
-199.384
-177.566
-154.037
-130.139
-107.088
-85.8652
-67.1355
-51.2195
-38.1337
-27.6765
-19.5347
-13.3606
-8.81623
-5.59146
-3.411
-2.03797
-1.27469
-0.96097
-0.970375
-1.20532
-1.59193
-2.07514
-2.61454
-3.1809
-3.75331
-4.31704
-4.86297
-5.38901
-5.89217
-1779.97
-1794.21
-1828.03
-1869.39
-1912.67
-1937
-1934.35
-1905.35
-1858.6
-1805.82
-1755.89
-1713.82
-1682.17
-1661.54
-1649.55
-1641.12
-1631.65
-1618.36
-1599.95
-1574.24
-1537.68
-1487.34
-1420.88
-1335.97
-1231.66
-1108.94
-971.607
-825.973
-679.845
-541.636
-419.096
-317.964
-240.548
-185.983
-152.162
-137.409
-140.267
-158.47
-188.517
-226.167
-267.114
-307.437
-343.841
-373.738
-395.146
-406.434
-406.102
-395.635
-376.213
-348.802
-314.872
-276.318
-235.286
-193.974
-154.45
-118.488
-87.4065
-61.9145
-42.0529
-27.2943
-16.7888
-9.62462
-4.98624
-2.20173
-0.735709
-0.171529
-0.195119
-0.579355
-1.16736
-1.85581
-2.57987
-3.30099
-3.9976
-4.6587
-5.27955
-5.85897
-6.39764
-6.89836
-7.3673
-7.80679
-1327.7
-1287.84
-1247.95
-1208.54
-1165.35
-1116.9
-1062.32
-1001.71
-935.715
-865.37
-792.365
-720.35
-655.486
-605.143
-575.152
-567.21
-578.622
-604.182
-638.428
-677.009
-716.124
-752.441
-783.399
-807.81
-825.004
-835.428
-839.48
-837.884
-831.304
-820.171
-804.581
-784.18
-758.23
-726.079
-688.033
-645.781
-601.807
-558.293
-516.701
-478.063
-442.958
-411.142
-381.697
-353.615
-325.992
-298.055
-269.385
-238.598
-206.789
-174.909
-143.192
-111.837
-81.3842
-52.6487
-26.5037
-3.91425
14.0578
26.5297
33.2368
34.776
32.4443
27.7879
22.1658
16.5305
11.4213
7.06578
3.49624
0.641843
-1.6102
-3.37922
-4.77327
-5.88221
-6.77693
-7.51142
-8.1259
-8.64988
-9.10479
-9.50736
-9.87231
-10.2073
-3927.22
-3815
-3672.42
-3503.54
-3314.18
-3112.65
-2900.73
-2677.86
-2439.72
-2178.94
-1891.29
-1583
-1272.43
-984.503
-741.73
-557.013
-431.311
-356.22
-319.465
-309.397
-316.724
-334.378
-356.991
-380.703
-402.932
-421.516
-435.431
-444.082
-447.201
-444.437
-435.937
-421.663
-402.031
-377.263
-347.889
-314.86
-279.355
-242.623
-205.878
-170.206
-136.476
-105.318
-77.1453
-52.183
-30.4546
-11.9531
3.10145
14.6417
23.4733
29.7933
33.9033
35.8817
35.7997
34.2976
31.8356
28.8888
25.8066
22.679
19.4132
15.904
12.1615
8.33237
4.63134
1.25262
-1.68247
-4.13144
-6.11138
-7.67432
-8.88732
-9.81916
-10.5327
-11.0814
-11.5084
-11.8473
-12.1234
-12.3557
-12.5575
-12.7395
-12.9111
-13.075
6112.95
5884.35
5611.74
5278.64
4809.66
4229.07
3543.8
2778.19
1979.5
1214.49
553.895
44.9918
-306.07
-525.705
-649.377
-703.962
-705.309
-665.53
-596.746
-512.476
-425.195
-343.258
-271.981
-213.807
-168.955
-136.288
-114.001
-100.057
-92.5329
-89.9431
-90.6661
-93.2912
-96.0701
-97.9148
-98.2303
-96.2729
-91.9838
-85.6702
-77.7247
-68.6651
-59.0831
-49.5954
-40.7486
-32.9858
-26.6117
-21.7836
-18.5137
-16.6569
-15.8265
-15.5289
-15.6935
-16.0085
-15.9866
-15.6793
-14.9875
-13.9814
-12.9342
-12.1766
-11.9358
-12.2593
-13.0374
-14.0787
-15.1851
-16.1919
-17.0007
-17.5685
-17.8987
-18.024
-17.9918
-17.8516
-17.6478
-17.4161
-17.1824
-16.9641
-16.7713
-16.6091
-16.4791
-16.3812
-16.3148
-16.2738
-179.156
150.012
610.72
1104.87
1622.24
2077.94
2469.66
2798.14
3055.79
3233.25
3324.41
3327.06
3244.42
3086.34
2868.57
2609.92
2328.57
2039.89
1754.81
1481.71
1227.42
995.986
789.459
608.147
451.668
319.666
211.341
125.108
58.71
9.37476
-25.9221
-50.1963
-66.1788
-76.0854
-81.5223
-83.9943
-84.2861
-82.9546
-80.4573
-77.2287
-73.574
-69.7838
-66.1169
-62.7855
-59.9487
-57.6964
-56.039
-54.9146
-54.228
-53.8991
-53.9046
-54.2214
-54.7343
-55.235
-55.5115
-55.4121
-54.849
-53.8161
-52.3594
-50.5416
-48.4269
-46.08
-43.5692
-40.9686
-38.3559
-35.8069
-33.3878
-31.1506
-29.1304
-27.3457
-25.7997
-24.4835
-23.3794
-22.4647
-21.7149
-21.1056
-20.6144
-20.222
-19.9116
-19.6643
-845.567
-686.714
-481.295
-286.546
-106.748
20.147
107.474
171.464
219.994
255.48
278.933
291.726
296.164
295.2
291.63
287.313
282.65
275.368
260.491
231.832
184.986
121.66
49.3473
-22.3818
-85.5869
-136.653
-174.998
-201.184
-216.36
-222.065
-220.049
-212.118
-200.015
-185.306
-169.336
-153.262
-138.007
-124.304
-112.674
-102.944
-95.3235
-89.693
-85.8476
-83.5844
-82.7086
-83.0347
-84.3722
-86.51
-89.2111
-92.2154
-95.2429
-98.0283
-100.428
-102.143
-102.959
-102.726
-101.349
-98.7957
-95.1079
-90.4001
-84.8544
-78.7071
-72.2312
-65.7097
-59.3987
-53.507
-48.1776
-43.4861
-39.4505
-36.0466
-33.2231
-30.9131
-29.0433
-27.5408
-26.3386
-25.3782
-24.6105
-23.9956
-23.5005
-23.0948
624.895
401.757
102.132
-257.448
-738.648
-1263.39
-1781.31
-2242.69
-2617.29
-2900.41
-3102.83
-3237.82
-3312.58
-3329.04
-3288.68
-3195.22
-3054.69
-2874.38
-2663.33
-2431.8
-2189.43
-1945.32
-1706.72
-1478.65
-1264.87
-1068.1
-890.678
-734.435
-600.41
-488.007
-395.193
-319.16
-256.793
-205.232
-162.303
-126.717
-97.9322
-75.7508
-59.961
-50.3215
-45.9706
-46.4211
-50.2549
-56.688
-64.9731
-74.482
-84.6621
-95.043
-105.227
-114.864
-123.627
-131.232
-137.525
-142.15
-144.872
-145.504
-143.93
-140.136
-134.233
-126.467
-117.217
-106.969
-96.2732
-85.6794
-75.6714
-66.6084
-58.6955
-51.9917
-46.4464
-41.9456
-38.3478
-35.5058
-33.2784
-31.5379
-30.175
-29.1005
-28.2442
-27.5523
-26.9828
-26.5014
-5546.07
-5392.72
-5208.56
-4989.59
-4735.95
-4443.81
-4111.91
-3744.44
-3349
-2934.96
-2514.09
-2100.31
-1707.59
-1348.25
-1032.62
-767.418
-553.86
-388.316
-263.824
-171.896
-105.177
-57.948
-25.8943
-5.46823
6.19667
11.4433
12.3427
10.3865
6.99378
3.22723
-0.251087
-3.01286
-5.01773
-6.55228
-8.16394
-10.5586
-14.3372
-19.7567
-26.6935
-34.8111
-43.6079
-52.3785
-61.5097
-70.8871
-80.487
-90.353
-100.46
-110.722
-120.97
-130.959
-140.364
-148.787
-155.644
-160.764
-163.736
-164.219
-162.034
-157.149
-149.704
-140.023
-128.606
-116.098
-103.228
-90.7198
-79.1958
-69.0837
-60.5756
-53.6504
-48.1464
-43.8435
-40.519
-37.9706
-36.0225
-34.5258
-33.3602
-32.4326
-31.6744
-31.0357
-30.4803
-29.9814
4417.27
4316.88
4185.69
4021.96
3800.04
3558.3
3314.57
3081
2864.03
2662.92
2471.74
2284.07
2096.81
1909.9
1725.04
1543.9
1367.49
1197.18
1034.86
882.506
741.283
611.743
493.953
387.675
292.608
208.591
135.599
73.594
22.3925
-18.3871
-49.3332
-71.3229
-85.4668
-92.9693
-94.985
-92.6763
-87.4087
-80.7489
-74.222
-69.0046
-65.7839
-64.8417
-65.971
-68.9798
-73.7224
-79.9457
-87.3486
-95.5368
-104.072
-112.744
-121.163
-128.849
-135.313
-140.123
-142.963
-143.585
-141.823
-137.647
-131.192
-122.766
-112.836
-102.004
-90.9482
-80.3454
-70.7676
-62.5903
-55.9453
-50.7485
-46.7849
-43.8006
-41.5619
-39.8755
-38.5878
-37.5787
-36.7566
-36.0553
-35.4293
-34.849
-34.2949
-33.7548
8355.3
8183.79
7958.06
7634.53
7187.2
6642.64
6019.47
5341.36
4636.63
3933.22
3254.93
2614.18
2011.66
1444.9
915.899
432.394
5.55105
-352.363
-629.862
-820.522
-927.876
-961.435
-929.561
-840.19
-711.613
-572.464
-446.136
-340.178
-254.831
-187.805
-136.046
-95.8719
-64.2694
-39.3184
-19.6964
-4.20736
8.27451
18.6458
27.2896
34.6084
40.8496
46.3606
51.3999
55.9591
59.921
63.1499
65.5487
67.0866
67.8008
67.7825
67.1427
65.9959
64.5918
62.9144
61.0128
58.9348
56.7295
54.4439
52.1187
49.7883
47.4811
45.2192
43.0185
40.8879
38.8307
36.845
34.926
33.0674
31.2633
29.5095
27.803
26.1422
24.5266
22.9565
21.4331
19.9582
18.5357
17.1608
15.843
14.5302
777.124
957.432
1233.94
1564.07
1942.6
2273.77
2516.15
2663.36
2735.11
2757.96
2751.71
2727.41
2688.99
2635.62
2562.75
2464.13
2332.03
2157.69
1934.07
1662.7
1359.33
1048.95
754.51
491.78
270.319
95.2065
-32.7422
-117.827
-168.497
-194.8
-203.36
-197.559
-180.275
-154.726
-124.573
-93.0111
-62.4158
-34.1577
-9.03011
12.5845
30.6226
45.2605
56.8022
65.6072
72.0507
76.4955
79.2787
80.705
81.041
80.5139
79.3138
77.6017
75.5149
73.1607
70.6235
67.9704
65.2549
62.519
59.7955
57.1091
54.4781
51.9153
49.4284
47.0208
44.6926
42.4409
40.2612
38.1485
36.0979
34.1053
32.1679
30.2838
28.4522
26.6732
24.9474
23.2765
21.6634
20.1046
18.6072
17.1091
-713.578
-822.091
-914.526
-935.976
-896.709
-800.87
-704.871
-662.894
-699.761
-810.181
-965.186
-1129.54
-1272.53
-1372.09
-1413.96
-1390.15
-1294.83
-1121.28
-870.494
-572.005
-282.78
-50.9826
110.677
214.717
278.258
313.853
329.296
329.509
318.281
299.505
277.374
255.431
235.609
218.616
204.914
193.759
183.915
174.953
166.534
158.489
150.916
143.793
137.086
130.753
124.755
119.061
113.646
108.489
103.571
98.8713
94.3768
90.0781
85.9669
82.0357
78.2767
74.6823
71.2449
67.957
64.8109
61.7992
58.9141
56.1476
53.4912
50.9367
48.4752
46.0984
43.7987
41.5691
39.4039
37.2986
35.2498
33.2556
31.3152
29.4284
27.5958
25.8185
24.099
22.4361
20.8355
19.2294
-10364.4
-9684.79
-8815.27
-7860.79
-6769.91
-5577.65
-4342.09
-3175.46
-2167.62
-1355.03
-739.198
-307.105
-37.0112
98.2918
128.674
86.5158
7.55155
-72.8303
-129.326
-154.54
-155.147
-140.132
-114.352
-80.109
-39.8072
3.74699
47.9046
90.3015
128.818
161.661
187.597
206.13
217.586
222.871
223.114
219.285
212.859
204.733
195.7
186.284
176.653
167.032
157.595
148.477
139.773
131.543
123.819
116.612
109.923
103.737
98.0311
92.7736
87.9271
83.4529
79.3123
75.4687
71.8879
68.5387
65.3928
62.4247
59.6114
56.9323
54.3695
51.9072
49.532
47.233
45.0011
42.8295
40.713
38.6481
36.6326
34.6656
32.7472
30.8781
29.0594
27.2925
25.5794
23.9214
22.3268
20.7303
7844.15
7450.66
6836.14
5955.42
4776.52
3594.85
2618.89
1914.94
1425.63
1067.17
784.947
552.4
358.126
202.407
90.8421
23.4861
-8.58709
-15.3457
-1.05248
33.3203
85.705
150.83
220.688
287.391
345.707
393.002
427.958
449.97
459.4
457.94
448.013
431.986
411.749
388.453
363.294
337.199
310.904
285.066
260.227
236.8
215.066
195.18
177.196
161.098
146.818
134.251
123.263
113.704
105.416
98.2371
92.0098
86.5857
81.8297
77.6223
73.8606
70.4581
67.3441
64.4615
61.7651
59.2192
56.7958
54.4724
52.2311
50.0576
47.9409
45.873
43.848
41.8626
39.9148
38.0045
36.1322
34.2995
32.5083
30.7608
29.0594
27.4061
25.8043
24.2566
22.7664
21.2721
9295.29
9189.1
9079.1
8954.96
8732.43
8405.61
7945.81
7363.64
6697.61
5984.68
5255.7
4543
3890.64
3342.34
2908.36
2553.66
2237.23
1952.61
1714.58
1528.48
1386.98
1278.59
1191.22
1113.67
1037.66
959.01
877.146
793.685
711.127
631.919
557.853
490.219
429.404
375.382
327.384
284.921
247.6
215.11
187.177
163.502
143.704
127.316
113.85
102.846
93.9303
86.7721
81.0542
76.4933
72.8417
69.886
67.4456
65.372
63.5468
61.8783
60.2972
58.7538
57.2139
55.6568
54.0717
52.455
50.8078
49.1337
47.4375
45.7247
44.0011
42.2727
40.5457
38.8263
37.121
35.4357
33.7762
32.1479
30.5555
29.003
27.4937
26.0303
24.6161
23.2529
21.9411
20.6292
-2154.5
-1798.87
-1350.3
-899.055
-418.351
28.8531
437.38
801.292
1112.33
1364.5
1556.22
1689.34
1764.34
1774.37
1705.74
1551.95
1331.16
1084.99
856.921
674.361
542.272
452.308
390.831
344.588
303.554
261.577
215.722
166.371
115.557
66.1881
21.3989
-16.2038
-44.2661
-61.3321
-67.5119
-64.0893
-53.5549
-38.6974
-22.4323
-6.99124
6.19266
16.4702
23.6491
28.0704
30.5642
31.9277
32.7461
33.4955
34.4805
35.7882
37.3379
38.9667
40.5073
41.8319
42.8634
43.5665
43.9359
43.9852
43.7407
43.2361
42.5087
41.5957
40.5325
39.351
38.0793
36.7421
35.3608
33.9538
32.5373
31.1249
29.7283
28.3567
27.0178
25.7173
24.4591
23.2457
22.0796
20.9608
19.8937
18.8275
-12562.9
-12585.9
-12611.1
-12587
-12476.4
-12258.4
-11918.9
-11453.4
-10871.1
-10195.9
-9461.78
-8709.64
-7980.68
-7315.63
-6745.25
-6279.81
-5901.99
-5571.88
-5245.89
-4895.14
-4508.63
-4091.97
-3658.14
-3220.41
-2789.56
-2373.42
-1976.96
-1604.08
-1258.59
-944.301
-665.444
-426.732
-232.524
-85.4803
14.9052
72.5379
94.8237
91.496
72.6889
47.1045
20.918
-2.28048
-20.6385
-33.4997
-41.0276
-43.5669
-41.5068
-35.6228
-27.0341
-17.0545
-6.94127
2.3463
10.2717
16.6888
21.704
25.5245
28.3568
30.3699
31.6982
32.4539
32.7361
32.6339
32.2265
31.5829
30.7615
29.8111
28.7723
27.6785
26.5573
25.4308
24.3164
23.2278
22.1749
21.1643
20.1999
19.2835
18.4158
17.5951
16.8171
16.049
1065.58
1070.65
1096.6
1128.64
1174.62
1201.51
1185.77
1112.19
985.778
833.602
689.497
571.31
470.26
357.042
199.5
-15.3125
-261.678
-488.081
-658.904
-776.756
-865.365
-944.39
-1020.85
-1092.93
-1155.94
-1204.46
-1234.09
-1241.74
-1225.42
-1184.94
-1121.93
-1039.6
-942.229
-834.778
-722.376
-610.006
-502.265
-403.168
-315.917
-242.644
-184.184
-140.034
-108.505
-87.0403
-72.6521
-62.3647
-53.681
-44.8695
-35.1714
-24.7303
-14.2857
-4.71645
3.36402
9.77155
14.6834
18.3924
21.1482
23.1158
24.4088
25.125
25.3618
25.2173
24.7837
24.1419
23.3581
22.4847
21.5622
20.6216
19.687
18.7769
17.9053
17.0823
16.3147
15.6064
14.9582
14.3691
13.8366
13.3567
12.9234
12.5133
13516.4
13458.3
13277.4
12841.9
12126.2
11203.9
10199.7
9257.09
8499.04
7990.15
7705.37
7537.35
7354.43
7059.64
6595.37
5952.32
5208.87
4496.88
3896.86
3405.42
2990.07
2631.7
2322.81
2056.08
1822.9
1614.92
1425.39
1250.13
1087.06
935.814
797.001
671.584
560.362
463.56
380.661
310.537
251.661
202.361
160.984
126.047
96.3195
70.8592
49.051
30.6432
15.739
4.69109
-2.10585
-4.50719
-2.8985
1.71781
7.87884
14.0132
19.0037
22.3433
24.0932
24.6169
24.3053
23.511
22.4724
21.3308
20.1584
18.9911
17.8494
16.7483
15.6978
14.7039
13.7704
12.9009
12.0993
11.3703
10.7185
10.1474
9.6593
9.2543
8.93025
8.68272
8.50568
8.39185
8.32905
8.29601
-2500.62
-2069.84
-1513.91
-1023.71
-599.205
-369.554
-308.475
-337.561
-383.033
-410.368
-414.176
-400.116
-372.23
-327.046
-249.103
-111.642
102.378
376.054
664.527
921.652
1120.11
1251.47
1319.44
1334.09
1307.43
1251.07
1175.07
1087.36
993.844
898.782
805.163
715.037
629.743
550.113
476.555
409.275
348.314
293.602
244.979
202.103
164.682
132.396
104.914
81.9233
63.1205
48.1945
36.7905
28.482
22.7674
19.0812
16.8587
15.6567
15.0427
14.6749
14.3151
13.8552
13.3418
12.8308
12.2038
11.4517
10.5816
9.62269
8.61927
7.61747
6.6568
5.76527
4.95974
4.24933
3.63932
3.13316
2.73328
2.44108
2.25662
2.17816
2.20181
2.32117
2.52737
2.81113
3.1537
3.52909
-10692.6
-10608.3
-10439.6
-10104.4
-9571.56
-8890.16
-8128.5
-7336.2
-6545.61
-5787.21
-5088.64
-4463.15
-3904.92
-3394.56
-2909.01
-2430.29
-1948.31
-1469.59
-1013.2
-603.745
-264.723
-10.3075
157.366
247.538
276.524
262.623
223.026
171.974
119.874
73.2843
35.5229
7.56586
-11.1657
-22.1863
-27.3298
-28.4368
-27.0785
-24.5194
-21.7191
-19.2133
-17.35
-16.258
-15.8947
-16.1012
-16.6289
-17.0724
-17.2262
-17.0572
-16.3802
-15.1194
-13.3297
-11.1608
-8.82375
-6.54821
-4.54023
-2.9535
-1.89105
-1.39621
-1.31691
-1.68361
-2.28633
-2.98887
-3.70563
-4.36802
-4.93808
-5.40115
-5.7571
-6.01222
-6.17237
-6.2401
-6.21452
-6.0925
-5.87019
-5.54465
-5.11505
-4.5838
-3.95686
-3.23899
-2.44336
-1.5968
8923.2
8676.05
8317.44
7783.66
7033.36
6172.48
5268.17
4372.41
3522.01
2732.61
2001.59
1316.23
664.292
37.9659
-564.764
-1140.5
-1680.73
-2173.57
-2605.35
-2961.79
-3230.28
-3400.08
-3462.51
-3415.51
-3267.85
-3040.07
-2758.97
-2451.42
-2139.5
-1838.63
-1558.4
-1304.36
-1079.15
-882.734
-714.467
-572.712
-455.183
-359.241
-282.1
-221.012
-173.38
-136.844
-109.29
-88.8396
-73.8931
-63.2274
-55.6682
-50.1172
-45.8828
-42.467
-39.5237
-36.8488
-34.3508
-32.0175
-29.879
-27.9745
-26.329
-24.9468
-23.8017
-22.7595
-21.8534
-21.0838
-20.3876
-19.7299
-19.0961
-18.4851
-17.8986
-17.3331
-16.7784
-16.2188
-15.6348
-15.0062
-14.3141
-13.5429
-12.6817
-11.7261
-10.6796
-9.54913
-8.35281
-7.00466
-5585.64
-5407.07
-5168.98
-4884.06
-4535.28
-4163.21
-3764.14
-3326.72
-2853.6
-2371.21
-1916.78
-1519.13
-1191.28
-934.906
-747.404
-622.658
-550.362
-517.298
-508.57
-509.867
-510.563
-503.87
-486.936
-461.126
-430.648
-399.763
-372.8
-350.529
-331.625
-313.891
-295.414
-275.105
-252.721
-229.02
-205.157
-182.145
-160.83
-141.793
-125.326
-111.54
-100.343
-91.4822
-84.6619
-79.5374
-75.7255
-72.8422
-70.5289
-68.5871
-66.7605
-64.7968
-62.6444
-60.3113
-57.8375
-55.2842
-52.7168
-50.192
-47.7505
-45.4136
-43.1851
-41.056
-39.0468
-37.1655
-35.3626
-33.6589
-32.0697
-30.6014
-29.251
-28.0055
-26.8429
-25.7351
-24.6509
-23.5589
-22.4302
-21.2395
-19.9673
-18.6016
-17.1387
-15.5743
-13.9214
-12.2707
-4125.7
-3860.07
-3497.9
-3060.82
-2492.61
-1861.62
-1201.39
-547.127
66.6147
613.608
1082.53
1474.67
1795
2047.71
2236.42
2366.35
2444.47
2479.12
2477.8
2446.26
2389.09
2310.25
2213.28
2101.27
1977.07
1843.43
1702.98
1557.98
1410.58
1263.19
1118.43
978.838
846.55
722.614
607.384
501.067
403.597
314.996
235.426
165.102
104.219
52.8038
10.5777
-23.0656
-48.8969
-67.8194
-80.8007
-88.6943
-92.632
-93.6853
-92.6491
-90.1844
-86.8179
-82.9389
-78.8179
-74.6325
-70.4939
-66.4692
-62.5992
-58.9135
-55.4399
-52.1529
-49.0228
-46.1804
-43.6145
-41.3049
-39.2298
-37.358
-35.6505
-34.0627
-32.5483
-31.0628
-29.5653
-28.0206
-26.4004
-24.6852
-22.8654
-20.9343
-18.9037
-16.877
13738.4
13560.8
13327.1
12987.4
12531.3
11993.9
11387.7
10716.6
9985.48
9205.22
8391.27
7560.65
6730.28
5917.52
5141.02
4419.1
3765.43
3185.66
2677.95
2236.57
1854.67
1525.96
1244.86
1005.64
801.419
624.414
467.443
326.547
199.424
84.8168
-17.5611
-107.244
-183.216
-243.955
-288.494
-316.862
-329.858
-329.351
-318.007
-298.991
-275.563
-250.647
-226.418
-204.273
-185.003
-168.837
-155.576
-144.785
-135.788
-128.01
-121.021
-114.514
-108.296
-102.262
-96.3736
-90.633
-85.0661
-79.7114
-74.6108
-69.8044
-65.3229
-61.1928
-57.5219
-54.1859
-51.2179
-48.5581
-46.1757
-44.0288
-42.067
-40.2374
-38.488
-36.7705
-35.0409
-33.261
-31.3996
-29.4341
-27.3523
-25.1483
-22.8306
-20.4893
-1432
-1589.39
-1871.83
-2310.42
-2862.58
-3414.01
-3867.88
-4188.91
-4389.54
-4492.51
-4510.92
-4443.22
-4277.53
-4012.22
-3676.6
-3321.63
-2992.31
-2706.81
-2463.94
-2257.38
-2081.38
-1930.3
-1798.07
-1678.86
-1568.26
-1463.6
-1363.32
-1267.52
-1177.06
-1092.85
-1015.42
-944.949
-880.918
-822.356
-767.936
-716.406
-666.662
-617.961
-569.968
-522.762
-476.745
-432.489
-390.606
-351.622
-315.926
-283.727
-255.038
-229.697
-207.406
-187.801
-170.51
-155.192
-141.555
-129.365
-118.431
-108.607
-99.7765
-91.8471
-84.7442
-78.4037
-72.7672
-67.7792
-63.3873
-59.531
-56.1143
-53.1182
-50.4739
-48.1119
-45.9658
-43.9731
-42.0752
-40.219
-38.3567
-36.4471
-34.4559
-32.3578
-30.1378
-27.7915
-25.3281
-22.8022
-18685.1
-17680.9
-16401.7
-15065.7
-13604.5
-12192.4
-10916
-9825.94
-8912.24
-8144.56
-7498.97
-6947.55
-6454.17
-5991.24
-5548.65
-5129.64
-4738.61
-4374.5
-4032.34
-3707.82
-3397.99
-3100.21
-2812.79
-2534.79
-2266.3
-2008.9
-1766.24
-1543.13
-1343.72
-1170.05
-1021.75
-896.523
-791.377
-703.037
-628.666
-565.636
-511.681
-465.133
-424.445
-388.476
-356.331
-327.31
-300.888
-276.706
-254.499
-234.076
-215.276
-197.969
-182.047
-167.414
-153.983
-141.669
-130.394
-120.083
-110.67
-102.099
-94.3202
-87.2909
-80.9688
-75.3118
-70.2761
-65.8144
-61.8762
-58.4167
-55.3685
-52.6741
-50.2738
-48.1072
-46.1161
-44.245
-42.443
-40.6636
-38.8649
-37.0105
-35.0695
-33.0184
-30.8431
-28.5417
-26.1277
-23.6072
12538.9
12404.3
12190
11811.9
11268.1
10598.6
9829.86
8983.99
8094.26
7197.46
6322.58
5480.13
4665.29
3874.64
3114.88
2400.62
1750.16
1181.81
707.686
325.985
21.6669
-222.455
-414.624
-553.797
-636.724
-666.34
-653.61
-614.314
-564.182
-515.229
-474.521
-445.108
-427.111
-417.946
-413.42
-408.611
-399.589
-384.284
-362.98
-337.526
-310.204
-282.957
-257.224
-233.674
-212.478
-193.554
-176.686
-161.583
-148.029
-135.836
-124.82
-114.836
-105.865
-97.7968
-90.5356
-84.0055
-78.1435
-72.8955
-68.2132
-64.0509
-60.3639
-57.108
-54.2381
-51.6972
-49.4468
-47.4378
-45.6217
-43.9521
-42.3848
-40.8788
-39.3964
-37.9029
-36.3672
-34.761
-33.0602
-31.2467
-29.3111
-27.2572
-25.1046
-22.8253
389.243
452.874
541.609
633.511
789.486
981.297
1204.02
1445.26
1690.68
1929.1
2149.02
2336.12
2475.42
2557.46
2581.1
2552.98
2483.22
2382.9
2261.83
2126.2
1976.89
1811.77
1629.99
1434.96
1234.04
1037.18
854.11
690.56
547.592
422.915
312.998
215.36
130.308
60.0983
7.37242
-27.2529
-45.995
-53.0039
-53.0968
-50.436
-48.0184
-46.9016
-46.9626
-48.0319
-49.529
-51.2487
-52.9392
-54.4685
-55.6184
-56.2764
-56.4415
-56.178
-55.4287
-54.3121
-52.9393
-51.4045
-49.7887
-48.1574
-46.5602
-45.0325
-43.5961
-42.2599
-41.0246
-39.884
-38.8263
-37.8353
-36.8919
-35.976
-35.0675
-34.1461
-33.192
-32.1851
-31.1052
-29.9315
-28.6436
-27.2249
-25.6672
-23.9788
-22.1899
-20.338
11.972
8.72209
6.3924
4.98886
4.34623
4.19669
4.26716
4.34117
4.3225
4.21291
4.05845
3.88381
3.69247
3.47053
3.19245
2.82926
2.35466
1.75133
1.0191
0.1863
-0.701392
-1.57372
-2.35219
-2.97176
-3.39798
-3.6348
-3.7213
-3.71769
-3.68849
-3.69007
-3.76487
-3.94019
-4.22947
-4.63712
-5.16673
-5.8282
-6.63766
-7.60899
-8.74229
-10.0169
-11.3918
-12.8099
-14.2038
-15.5001
-16.6261
-17.5173
-18.123
-18.4108
-18.3723
-18.0215
-17.3906
-16.5247
-15.4751
-14.2972
-13.0496
-11.7923
-10.5809
-9.45966
-8.45514
-7.57617
-6.81789
-6.16771
-5.61062
-5.13234
-4.72084
-4.36653
-4.06191
-3.80102
-3.57901
-3.3918
-3.2359
-3.10829
-3.00633
-2.92764
-2.86995
-2.83084
-2.80737
-2.79564
-2.79055
-2.78577
-2.77423
-2.74915
-2.7052
-2.64053
-2.55751
-2.45648
-2.34264
-2.22163
-2.09871
-1.9783
-1.86379
-1.75752
-1.66093
-1.57474
-1.49918
-1.43414
-1.37932
-1.33435
-1.29889
-1.27263
-1.25539
-1.24705
-1.24764
-1.25729
-1.2763
-1.30504
-1.34397
-1.39351
-1.45394
-1.5252
-1.60681
-1.69779
-1.79686
-1.90273
-2.01457
-2.13229
-2.25678
-2.38971
-2.53323
-2.6896
-2.86073
-3.04795
-3.25182
-3.47208
-3.7076
-3.95638
-4.21548
-4.48098
-4.74798
-5.01079
-5.26312
-5.49844
-5.71038
-5.89322
-6.04211
-6.15332
-6.22448
-6.25463
-6.2441
-6.1944
-6.10802
-5.98828
-5.83903
-5.66447
-5.4689
-5.25655
-5.03141
-4.79717
-4.55713
-4.31422
-4.07099
-3.82962
-3.59194
-3.35949
-3.1335
-2.91497
-2.70472
-2.50337
-2.31143
-2.12923
-1.957
-1.79483
-1.64275
-1.5007
-1.36857
-1.24617
-1.13321
-1.02936
-0.93419
-0.847275
-0.768153
-0.696357
-0.631399
-0.57277
-0.51994
-0.472377
-0.429557
-0.390985
-0.356196
-0.324757
-0.296261
-0.270334
-0.246633
-0.224844
-0.204689
-0.18591
-0.168291
-0.151646
-0.135858
-0.120811
-0.106501
-0.0927952
-0.0797916
-0.0671693
-0.0552922
-0.0433406
-0.0325503
-0.0207159
-0.011685
0.000533902
14.1744
10.4537
7.76137
6.12803
5.37965
5.18951
5.26733
5.31891
5.21222
4.96226
4.66365
4.34977
4.03722
3.71641
3.36004
2.93334
2.40189
1.7399
0.940585
0.0266158
-0.949128
-1.90981
-2.76794
-3.44228
-3.88918
-4.11265
-4.15889
-4.09942
-4.01085
-3.95951
-3.99448
-4.14638
-4.42898
-4.84458
-5.39356
-6.08296
-6.92744
-7.94061
-9.12272