/*--------------------------------*- C++ -*----------------------------------*\
| =========                 |                                                 |
| \\      /  F ield         | OpenFOAM: The Open Source CFD Toolbox           |
|  \\    /   O peration     | Version:  2012                                  |
|   \\  /    A nd           | Website:  www.openfoam.com                      |
|    \\/     M anipulation  |                                                 |
\*---------------------------------------------------------------------------*/
FoamFile
{
    version     2.0;
    format      ascii;
    class       surfaceScalarField;
    location    "0.21";
    object      phi;
}
// * * * * * * * * * * * * * * * * * * * * * * * * * * * * * * * * * * * * * //

dimensions      [0 3 -1 0 0 0 0];
oriented        oriented;


internalField   nonuniform List<scalar> 
84340
(
-0.000202656
6.61832e-05
0.000136473
-0.000448363
5.97485e-05
0.000185959
-0.000743641
4.61659e-05
0.000249112
-0.00115006
3.76685e-05
0.000368746
-0.00160394
-9.75667e-06
0.000463639
-0.00203559
-7.97573e-05
0.000511409
-0.00238373
-0.000171078
0.000519217
-0.00259941
-0.000285921
0.000501602
-0.00265615
-0.000412928
0.00046967
-0.00255313
-0.000530556
0.000427537
-0.00230581
-0.000617291
0.000369973
-0.00192674
-0.000660857
0.00028178
-0.00141064
-0.000659532
0.000143431
-0.000753507
-0.000617363
-3.97671e-05
3.3346e-05
-0.000544285
-0.000242568
0.000900765
-0.000457647
-0.000409772
0.00177586
-0.000373304
-0.000501787
0.0026116
-0.00029799
-0.000537754
0.00340535
-0.000223409
-0.000570341
0.00416679
-0.000133367
-0.00062807
0.00491795
-1.79838e-05
-0.000733176
0.00563996
0.00011876
-0.000840773
0.00629795
0.000265367
-0.000923355
0.0068574
0.000411237
-0.000970693
0.00729047
0.000549556
-0.000982626
0.00757646
0.000676564
-0.000962544
0.00768837
0.000785722
-0.000897634
0.00762031
0.000869521
-0.000801465
0.00738255
0.000917414
-0.000679655
0.00699256
0.000921364
-0.00053137
0.00648238
0.000879744
-0.000369564
0.00589195
0.000798261
-0.000207831
0.00525648
0.000695434
-5.99673e-05
0.0046289
0.000570019
5.75657e-05
0.00405793
0.000434909
0.000136054
0.00359174
0.000288018
0.000178173
0.00324325
0.000157765
0.000190729
0.00299628
6.91965e-05
0.00017777
0.00281013
4.45531e-05
0.000141604
0.00265035
7.20048e-05
8.77671e-05
0.00249093
0.000128939
3.04879e-05
0.00232724
0.000187701
-2.40154e-05
0.00216648
0.000235161
-7.43959e-05
0.00201405
0.000268031
-0.000115599
0.00187324
0.00028765
-0.000146842
0.00174508
0.000297327
-0.000169172
0.00162908
0.000300215
-0.000184208
0.0015239
0.000298546
-0.000193373
0.00142798
0.000293522
-0.000197599
0.00133972
0.000285597
-0.00019734
0.00125775
0.000274694
-0.000192721
0.00118094
0.000260536
-0.000183726
0.00110843
0.000242891
-0.000170381
0.00103961
0.000221735
-0.000152912
0.000974133
0.000197358
-0.000131881
0.000912014
0.000170362
-0.000108243
0.000853758
0.000141549
-8.32934e-05
0.000800543
0.000111667
-5.84522e-05
0.000754348
8.11041e-05
-3.49094e-05
0.000717963
4.96465e-05
-1.32611e-05
0.000695298
1.64133e-05
6.25113e-06
0.000688351
-2.00033e-05
2.695e-05
0.000699545
-6.12222e-05
5.00278e-05
0.000731874
-0.000108796
7.6467e-05
0.000786256
-0.000163544
0.000109162
0.000862597
-0.000226241
0.000149899
0.00095975
-0.000297082
0.000199928
0.00107566
-0.000375858
0.000259948
0.0012075
-0.000462026
0.000330183
0.00135179
-0.000554751
0.00041046
0.00150448
-0.000652945
0.000500262
0.00166102
-0.000755293
0.000598747
0.00181655
-0.000860279
0.000704753
0.00196597
-0.000966224
0.000816802
0.00210417
-0.00107133
0.000933125
0.00222613
-0.00117372
0.00105176
0.00232694
-0.00127143
0.00117062
0.00240114
-0.00136263
0.00128844
0.00244265
-0.00144358
0.00140207
-0.00151877
0.0015213
0.00244012
0.000219346
-0.000153163
0.000585694
-0.0003066
0.000925734
-0.000293874
0.0011679
-0.000204502
0.00128224
-0.000124092
0.00128958
-8.70931e-05
0.0012877
-0.000169207
0.00139843
-0.000396651
0.00169573
-0.000710224
0.00217101
-0.00100583
0.00275949
-0.00120577
0.00339098
-0.00129234
0.00402093
-0.00128948
0.00463292
-0.00122935
0.00522468
-0.00113604
0.00579185
-0.00102482
0.00632296
-0.000904419
0.00680288
-0.000777913
0.00722233
-0.00064285
0.00758249
-0.000493531
0.00789308
-0.000328578
0.00816758
-0.000155732
0.00842957
3.37603e-06
0.00867137
0.000169437
0.00887369
0.000347232
0.00902986
0.000520395
0.0091268
0.00068878
0.00914821
0.000848112
0.00907023
0.0009954
0.00886499
0.0011266
0.00850905
0.00123568
0.0079903
0.00131701
0.00732079
0.00136495
0.00651859
0.00137222
0.005623
0.0013305
0.00467439
0.00123662
0.00372682
0.00110533
0.00282834
0.000967679
0.00202576
0.00084713
0.00135336
0.000744408
0.000834003
0.000648297
0.000469264
0.000552439
0.000244568
0.000459857
0.000134469
0.00037813
0.000108976
0.000313142
0.000139352
0.000266951
0.000201105
0.000238461
0.000275662
0.000223989
0.00035077
0.000218414
0.00041833
0.000218037
0.000474192
0.000218832
0.000516686
0.000218042
0.000545613
0.000213964
0.000561668
0.00020568
0.000566232
0.000192793
0.000561408
0.000175186
0.000550146
0.000152811
0.000536282
0.000125532
0.000524359
9.30261e-05
0.00051922
5.47858e-05
0.000525289
1.03446e-05
0.000546661
-4.13759e-05
0.00058571
-0.000100271
0.000643465
-0.000166552
0.000719944
-0.000240022
0.000813882
-0.000320179
0.000923065
-0.000406264
0.0010445
-0.000497296
0.00117459
-0.000592115
0.00130926
-0.000689419
0.00144413
-0.000787817
0.00157472
-0.000885883
0.00169667
-0.000982228
0.00180602
-0.00107557
0.0018995
-0.00116481
0.00197481
-0.00124903
0.00203096
-0.00132758
0.00206798
-0.00139966
0.0020894
-0.001465
-0.00152171
0.00209234
0.000101378
-0.000254541
0.000254913
-0.000460134
0.000528249
-0.00056721
0.000961962
-0.000638215
0.00148643
-0.000648562
0.00204072
-0.000641383
0.00256135
-0.000689833
0.00299989
-0.000835192
0.00333445
-0.00104478
0.00356702
-0.0012384
0.003714
-0.00135276
0.00379578
-0.00137413
0.00382358
-0.00131728
0.00380655
-0.00121232
0.00374505
-0.00107454
0.003632
-0.000911771
0.00345647
-0.000728887
0.00320835
-0.00052979
0.00288602
-0.000320529
0.00250433
-0.000111839
0.00210829
6.7463e-05
0.00176357
0.00018899
0.0014939
0.000273046
0.00127939
0.000383943
0.001074
0.000552623
0.000852376
0.00074202
0.000659913
0.000881243
0.000530222
0.000977803
0.000466935
0.00105869
0.000463906
0.00112963
0.000505115
0.00119447
0.000569667
0.00125246
0.000634978
0.00129964
0.000677144
0.00133005
0.000671492
0.00133615
0.000597756
0.00131036
0.000454764
0.00124833
0.000271568
0.00115087
9.57664e-05
0.00102293
-3.20723e-05
0.000872246
-9.37714e-05
0.000709996
-9.27887e-05
0.000551457
-4.646e-05
0.000413528
2.26776e-05
0.000308992
9.43712e-05
0.000241448
0.000155706
0.000205617
0.000201926
0.000192241
0.000233315
0.0001926
0.000251783
0.000199946
0.000260344
0.000209476
0.000261523
0.000217653
0.000257517
0.000222048
0.000250298
0.000221184
0.000241719
0.000214259
0.000233667
0.000200845
0.000228184
0.000180669
0.000227517
0.000153478
0.000234049
0.000118999
0.000250106
7.69692e-05
0.000277623
2.72689e-05
0.000318143
-3.01756e-05
0.000372
-9.52332e-05
0.000439185
-0.000167456
0.000518812
-0.000246178
0.00060932
-0.000330531
0.000708609
-0.000419468
0.000814143
-0.000511798
0.000923073
-0.000606227
0.00103235
-0.000701394
0.00113886
-0.000795931
0.00123958
-0.000888538
0.00133178
-0.000978073
0.00141319
-0.00106364
0.00148227
-0.00114465
0.00153826
-0.0012208
0.00158128
-0.00129205
0.00161208
-0.00135838
0.00163219
-0.00141976
0.00164286
-0.00147567
-0.00152581
0.00164695
-0.000318345
6.38042e-05
-0.000566323
-0.000212157
-0.0005957
-0.000537833
-0.000686592
-0.000547323
-0.000936599
-0.000398554
-0.00128329
-0.000294694
-0.00172825
-0.000244868
-0.00233493
-0.000228518
-0.00314462
-0.000235085
-0.00413349
-0.000249538
-0.00521639
-0.000269859
-0.006298
-0.000292515
-0.0073044
-0.000310874
-0.00819727
-0.000319457
-0.00895755
-0.00031426
-0.00957659
-0.000292731
-0.01005
-0.000255526
-0.0103748
-0.000204953
-0.0105552
-0.000140078
-0.0105811
-8.59781e-05
-0.0104416
-7.20226e-05
-0.0101432
-0.000109402
-0.00971837
-0.00015181
-0.00921575
-0.000118678
-0.00867053
7.40762e-06
-0.0080906
0.000162086
-0.00749469
0.000285336
-0.00688602
0.000369128
-0.00625828
0.000430955
-0.00561427
0.000485622
-0.00495959
0.000539785
-0.00430157
0.000594439
-0.00364959
0.000647664
-0.00301542
0.000695882
-0.0024136
0.000734325
-0.0018612
0.000757963
-0.00137485
0.000761977
-0.000966935
0.000742957
-0.000643747
0.000699744
-0.000406086
0.000634584
-0.000250087
0.000553997
-0.000167154
0.000468523
-0.000143607
0.000389981
-0.000161512
0.000326898
-0.000201549
0.000281485
-0.000246767
0.000250835
-0.000285259
0.000230733
-0.000310688
0.000218029
-0.000321308
0.000210566
-0.000317946
0.000206115
-0.000302671
0.000202378
-0.000277957
0.000197334
-0.00024619
0.000189417
-0.000209341
0.000177409
-0.00016875
0.000160254
-0.000125052
0.000136971
-7.826e-05
0.000106685
-2.79296e-05
6.86685e-05
2.69347e-05
2.2105e-05
8.60954e-05
-3.18915e-05
0.000149267
-9.33466e-05
0.000216727
-0.000162693
0.000288012
-0.000238741
0.000362365
-0.000320531
0.00043888
-0.000407046
0.000516608
-0.000497196
0.000594623
-0.000589812
0.000672031
-0.000683635
0.000747964
-0.000777327
0.00082157
-0.000869537
0.000892029
-0.000958996
0.000958601
-0.00104465
0.0010207
-0.00112574
0.00107793
-0.00120188
0.00113013
-0.001273
0.00117729
-0.0013392
0.00121952
-0.00140062
0.00125701
-0.00145725
0.00129015
-0.00150881
-0.00155565
0.00131998
7.95365e-05
-1.57322e-05
5.69734e-05
-0.000189594
-0.00024341
-0.00023745
-0.000781231
-9.50084e-06
-0.00143701
0.000257227
-0.00213004
0.000398328
-0.00278457
0.000409669
-0.00334267
0.000329582
-0.00378325
0.000205491
-0.00411966
8.68721e-05
-0.00439286
3.34056e-06
-0.00464006
-4.53137e-05
-0.0048847
-6.62307e-05
-0.00513358
-7.05743e-05
-0.00538301
-6.48305e-05
-0.00562526
-5.04888e-05
-0.00585193
-2.8848e-05
-0.00605442
-2.46793e-06
-0.0062194
2.48996e-05
-0.00634905
4.36759e-05
-0.00646826
4.71822e-05
-0.00662327
4.56122e-05
-0.00682372
4.86355e-05
-0.00700316
6.0764e-05
-0.00707024
7.44911e-05
-0.00698615
7.79967e-05
-0.00676791
6.70909e-05
-0.00644587
4.70884e-05
-0.00604157
2.66595e-05
-0.00556931
1.33579e-05
-0.00504191
1.23889e-05
-0.00447405
2.65772e-05
-0.00388305
5.66674e-05
-0.00328888
0.000101706
-0.00270461
0.000150057
-0.00215573
0.000209086
-0.0016651
0.000271348
-0.00125125
0.0003291
-0.000928214
0.000376713
-0.000704139
0.00041051
-0.000578888
0.000428746
-0.000541518
0.000431154
-0.00056984
0.000418303
-0.000634613
0.000391671
-0.00070745
0.000354323
-0.000767559
0.000310944
-0.000803498
0.000266673
-0.000811031
0.000225562
-0.000790309
0.000189844
-0.000744416
0.000160222
-0.000678594
0.000136555
-0.000599465
0.000118206
-0.000513979
0.000103931
-0.000428248
9.16779e-05
-0.000346675
7.86817e-05
-0.000271656
6.19532e-05
-0.000203882
3.89112e-05
-0.000143264
8.05078e-06
-8.91671e-05
-3.19925e-05
-3.87428e-05
-8.2316e-05
8.44072e-06
-0.00014053
5.2336e-05
-0.000206589
9.35411e-05
-0.000279946
0.000133089
-0.000360079
0.00017247
-0.000446427
0.00021352
-0.000538245
0.000258156
-0.000634449
0.000308054
-0.000733533
0.000364332
-0.000833606
0.000427338
-0.000932543
0.000496561
-0.00102822
0.0005707
-0.00111878
0.000647849
-0.00120289
0.000725769
-0.0012798
0.000802157
-0.00134939
0.000874899
-0.00141195
0.000942274
-0.001468
0.00100313
-0.0015181
0.00105718
-0.00156286
-0.00160399
0.00110553
0.000466079
-0.000481811
0.00107771
-0.000801223
0.00158499
-0.000744737
0.00218011
-0.000604617
0.0029247
-0.000487361
0.00370488
-0.000381857
0.00440438
-0.000289829
0.00495292
-0.000218958
0.0053256
-0.00016719
0.00552635
-0.000113878
0.00556339
-3.36927e-05
0.00543876
7.93115e-05
0.00516312
0.000209414
0.004753
0.000339541
0.00422366
0.000464514
0.00360645
0.000566715
0.00293522
0.000642379
0.00224371
0.000689047
0.00156181
0.000706799
0.00090748
0.000698005
0.000287
0.000667663
-0.000288644
0.000621256
-0.000803658
0.000563649
-0.00123967
0.000496779
-0.00158303
0.000417844
-0.00182656
0.000321535
-0.00196367
0.000204199
-0.00198574
6.91607e-05
-0.00188822
-7.08614e-05
-0.00167771
-0.000197159
-0.00137152
-0.000293796
-0.000991898
-0.000353046
-0.000562318
-0.000372913
-0.000105185
-0.000355426
0.000351169
-0.000306297
0.000774709
-0.000214454
0.00113206
-8.6002e-05
0.00142028
4.08783e-05
0.00163448
0.000162512
0.00177351
0.000271477
0.00184004
0.00036222
0.00183977
0.00043142
0.0017805
0.00047758
0.00167151
0.000500653
0.00152391
0.000501923
0.00135092
0.000483932
0.00116728
0.000450315
0.000987288
0.000405558
0.000822473
0.000354659
0.000679799
0.000302896
0.000561287
0.000255067
0.000465001
0.000214492
0.000386747
0.000182185
0.000321771
0.000156654
0.000265948
0.000134505
0.000216282
0.000111619
0.000170826
8.43674e-05
0.000128535
5.03417e-05
8.78239e-05
8.71924e-06
4.78265e-05
-4.23184e-05
9.3356e-06
-0.000102039
-2.67854e-05
-0.000170467
-5.83651e-05
-0.000248366
-8.23288e-05
-0.000336115
-9.51298e-05
-0.000433626
-9.33364e-05
-0.000540039
-7.42152e-05
-0.00065357
-3.62031e-05
-0.000771544
2.07811e-05
-0.00089059
9.52425e-05
-0.001007
0.000184232
-0.00111721
0.000283674
-0.00121823
0.000388884
-0.0013081
0.000495165
-0.00138609
0.00059838
-0.0014526
0.00069536
-0.00150893
0.000784102
-0.00155674
0.000863781
-0.00159778
0.000934674
-0.00163376
-0.00166716
0.00099785
-0.000393898
-8.79128e-05
-0.000912777
-0.000282343
-0.00134044
-0.000317076
-0.00175279
-0.000192262
-0.00221833
-2.18248e-05
-0.00277379
0.000173603
-0.00341723
0.00035361
-0.00411756
0.00048138
-0.00482413
0.000539376
-0.00547184
0.000533834
-0.00599666
0.000491127
-0.00634664
0.000429294
-0.00649812
0.000360894
-0.00645004
0.00029146
-0.0062065
0.000220971
-0.00579094
0.000151158
-0.00523211
8.35476e-05
-0.00456202
1.89566e-05
-0.00381432
-4.09012e-05
-0.00302307
-9.32484e-05
-0.00222161
-0.000133792
-0.0014431
-0.000157252
-0.000717822
-0.000161633
-6.65653e-05
-0.000154477
0.000505679
-0.0001544
0.001012
-0.00018479
0.00147544
-0.000259234
0.00190157
-0.000356969
0.0022868
-0.000456098
0.00260681
-0.000517165
0.0028321
-0.000519089
0.00295098
-0.000471926
0.00297794
-0.000399875
0.00294118
-0.000318661
0.00286952
-0.000234636
0.00278397
-0.000128908
0.00271368
-1.57082e-05
0.00265379
0.000100769
0.00260087
0.000215429
0.00255059
0.000321755
0.00249838
0.000414436
0.00243998
0.000489823
0.00237174
0.000545812
0.00229074
0.00058166
0.00219478
0.000597878
0.00208251
0.000596206
0.00195337
0.000579457
0.00180765
0.000551273
0.00164662
0.000515695
0.00147289
0.000476619
0.00129074
0.000437224
0.00110576
0.000399469
0.000924099
0.000363845
0.000751247
0.000329506
0.000590983
0.000294769
0.000444841
0.000257761
0.00031231
0.000216898
0.000191666
0.000170985
8.14523e-05
0.000118933
-2.02617e-05
5.93953e-05
-0.000113023
-9.27811e-06
-0.000195247
-8.82429e-05
-0.000263641
-0.000179972
-0.000314645
-0.000285111
-0.000344779
-0.000403492
-0.000351178
-0.000533639
-0.000331993
-0.000672756
-0.000286681
-0.000816857
-0.000216228
-0.000961043
-0.00012328
-0.00109995
-1.21246e-05
-0.00122836
0.000111632
-0.00134198
0.000241609
-0.00143808
0.000371532
-0.00151601
0.000496049
-0.00157712
0.000611291
-0.00162417
0.000715035
-0.00166048
0.000806502
-0.00168925
0.000885949
-0.0017132
-0.0017352
0.000953985
4.77009e-05
-0.000135614
6.05506e-05
-0.000295193
0.000144317
-0.000400843
0.00036832
-0.000416265
0.000688162
-0.000341667
0.00109845
-0.000236683
0.00161549
-0.000163428
0.00224403
-0.000147164
0.00296438
-0.000180976
0.00373222
-0.000234007
0.00449977
-0.000276423
0.00522302
-0.000293959
0.00587261
-0.00028869
0.006431
-0.000266931
0.00688838
-0.000236406
0.00724308
-0.000203543
0.00749933
-0.000172703
0.00766456
-0.000146274
0.00774852
-0.000124865
0.00776308
-0.000107801
0.00772013
-9.08469e-05
0.00762724
-6.43661e-05
0.00748095
-1.53423e-05
0.00727982
4.66574e-05
0.00701552
0.000109903
0.00668575
0.000144979
0.00629372
0.000132792
0.00585518
8.15719e-05
0.00537765
2.1436e-05
0.00486111
-6.25355e-07
0.00431106
3.09552e-05
0.00374729
9.18488e-05
0.00318974
0.000157668
0.00266445
0.000206628
0.0021863
0.000243514
0.00178131
0.000276086
0.00145395
0.000311652
0.00120162
0.000353102
0.00101781
0.000399237
0.0008929
0.000446664
0.000815887
0.000491449
0.000775587
0.000530122
0.000761243
0.000560156
0.000762766
0.000580137
0.000770901
0.000589743
0.000777537
0.00058957
0.000776076
0.000580917
0.000761896
0.000565453
0.000732668
0.000544922
0.000688398
0.000520888
0.000631084
0.000494539
0.000563965
0.000466589
0.000490543
0.000437267
0.000413653
0.000406397
0.000334888
0.000373534
0.000254618
0.000338031
0.000172529
0.000298987
8.84339e-05
0.000255081
2.95086e-06
0.000204417
-8.21495e-05
0.000144496
-0.000163725
7.2298e-05
-0.000237838
-1.41301e-05
-0.000301472
-0.000116339
-0.000350216
-0.000236367
-0.000380186
-0.000373523
-0.00038792
-0.000525905
-0.000370556
-0.00069012
-0.000326188
-0.000861224
-0.000254344
-0.00103289
-0.000156505
-0.00119779
-3.64752e-05
-0.00134839
9.94942e-05
-0.00147795
0.000243621
-0.0015822
0.000387672
-0.00166006
0.00052441
-0.00171386
0.000648683
-0.00174844
0.000757771
-0.00176957
0.000851043
-0.00178252
0.000929229
-0.00179139
-0.0017994
0.000993433
-0.000230678
9.50642e-05
-0.00055947
3.35979e-05
-0.000701049
-0.000259263
-0.000557042
-0.000560271
-0.000145412
-0.000753298
0.000512212
-0.000894306
0.0013733
-0.00102451
0.00237364
-0.00114751
0.00342428
-0.00123161
0.00442342
-0.00123315
0.00529756
-0.00115057
0.00599553
-0.000991932
0.00648911
-0.000782268
0.00677803
-0.000555853
0.00687936
-0.000337736
0.00682083
-0.000145008
0.00663602
1.21059e-05
0.00636377
0.00012598
0.0060498
0.000189102
0.0057428
0.000199202
0.00548318
0.000168767
0.00529068
0.000128138
0.00515911
0.000116222
0.00505609
0.000149678
0.00495089
0.000215106
0.00480114
0.000294732
0.00456131
0.000372616
0.00421327
0.000429612
0.00376781
0.000466901
0.0032755
0.000491677
0.0027974
0.000509059
0.00236833
0.000520918
0.00199868
0.000527325
0.00167643
0.000528873
0.00139181
0.00052813
0.00113965
0.000528252
0.000919841
0.00053146
0.000734402
0.000538541
0.000584727
0.000548913
0.000470443
0.000560948
0.000389289
0.000572604
0.000337488
0.000581923
0.000310251
0.000587393
0.00030228
0.000588108
0.000308227
0.000583796
0.000323057
0.00057474
0.000342364
0.00056161
0.000362558
0.00054526
0.000380934
0.000526547
0.000395611
0.000506212
0.000405335
0.000484814
0.000409286
0.000462638
0.000406777
0.000439775
0.000397119
0.000416055
0.000379646
0.000391007
0.000353902
0.000363775
0.00031991
0.000332979
0.000278372
0.000296619
0.000230735
0.000252054
0.000179064
0.000196167
0.000125897
0.000125464
7.87623e-05
3.30043e-05
3.19334e-05
-6.951e-05
-7.31879e-06
-0.000197114
-3.5207e-05
-0.000345634
-4.77482e-05
-0.000513364
-4.08724e-05
-0.000696996
-1.0845e-05
-0.000891252
4.4914e-05
-0.00108865
0.000126943
-0.00127982
0.000232854
-0.00145431
0.000357129
-0.00160223
0.000491192
-0.00171627
0.000625134
-0.001794
0.000749946
-0.00183867
0.00085942
-0.00185791
0.000950875
-0.00186103
0.00102462
-0.00185627
0.00108277
-0.00184953
-0.00184442
0.00112778
-0.000369101
0.000464166
-0.00112514
0.000789632
-0.0020995
0.000715106
-0.00315423
0.000494457
-0.00416562
0.000258095
-0.00510597
4.60397e-05
-0.00600542
-0.000125067
-0.00690621
-0.00024671
-0.00781602
-0.000321804
-0.00867178
-0.00037739
-0.00935443
-0.000467917
-0.00972857
-0.000617795
-0.00971376
-0.000797076
-0.00932543
-0.000944186
-0.00864618
-0.00101698
-0.00778039
-0.0010108
-0.00683364
-0.000934649
-0.00591018
-0.000797477
-0.00510993
-0.000611148
-0.00451079
-0.000399939
-0.00413973
-0.000202296
-0.00396972
-4.18735e-05
-0.0039224
6.89062e-05
-0.00390904
0.000136319
-0.00388215
0.000188216
-0.00382667
0.00023925
-0.00374064
0.000286586
-0.00363411
0.000323089
-0.00351446
0.000347248
-0.00338349
0.000360706
-0.00324042
0.000365988
-0.00308573
0.000366229
-0.00292243
0.000364024
-0.0027548
0.000361241
-0.00258613
0.000359459
-0.00241741
0.000359535
-0.00224722
0.000361269
-0.00207326
0.000364586
-0.0018935
0.00036915
-0.00170685
0.0003743
-0.00151354
0.000379288
-0.00131491
0.0003833
-0.00111341
0.000385883
-0.000911959
0.00038666
-0.000713643
0.000385481
-0.000521321
0.000382418
-0.000337434
0.000377723
-0.000163936
0.000371761
-2.31487e-06
0.000364926
0.000146343
0.000357554
0.000281305
0.000349853
0.000402026
0.000341917
0.000508201
0.000333601
0.00059974
0.000324516
0.000676796
0.000313952
0.000739808
0.000300764
0.000789501
0.000283287
0.000826838
0.000259281
0.000852896
0.000225996
0.000868815
0.000180249
0.000875721
0.000118558
0.000872304
3.64228e-05
0.000865169
-6.23753e-05
0.000853543
-0.000185489
0.000839899
-0.000331991
0.000827604
-0.000501068
0.000820845
-0.000690236
0.000824236
-0.000894644
0.000842291
-0.0011067
0.000878227
-0.00131576
0.000932665
-0.00150874
0.0010024
-0.00167196
0.00108045
-0.00179432
0.00115759
-0.00187114
0.00122517
-0.00190625
0.00127774
-0.00191049
0.00131412
-0.0018974
0.00133645
-0.00187861
0.00134841
-0.00186149
-0.00184958
0.00135357
0.00105751
-0.000593344
0.00272668
-0.000879537
0.00427074
-0.000828955
0.00553794
-0.000772743
0.00654109
-0.000745057
0.00727283
-0.000685699
0.00770501
-0.000557244
0.00779883
-0.000340536
0.0075252
-4.81705e-05
0.0068857
0.00026211
0.00591373
0.000504049
0.00467505
0.000620887
0.00324555
0.000632426
0.00169424
0.000607128
7.81987e-05
0.000599061
-0.00156009
0.000627486
-0.00317434
0.000679604
-0.00471722
0.000745401
-0.00614392
0.000815552
-0.00740841
0.000864552
-0.00845353
0.000842824
-0.00919694
0.000701534
-0.00957544
0.000447404
-0.00960475
0.000165628
-0.00937139
-4.51395e-05
-0.00898197
-0.000150172
-0.00851464
-0.000180739
-0.00801054
-0.000181014
-0.007487
-0.000176293
-0.00695336
-0.000172931
-0.00642254
-0.000164834
-0.005908
-0.000148306
-0.0054181
-0.000125876
-0.00495772
-9.91397e-05
-0.00452842
-6.98415e-05
-0.00412764
-4.12431e-05
-0.00374986
-1.65116e-05
-0.00338999
4.71084e-06
-0.0030428
2.19591e-05
-0.00270339
3.48887e-05
-0.0023687
4.4601e-05
-0.00203662
5.12256e-05
-0.00170727
5.65326e-05
-0.00138154
6.09292e-05
-0.00106118
6.5121e-05
-0.000748428
6.96636e-05
-0.000445599
7.48945e-05
-0.000154972
8.11349e-05
0.000121318
8.86358e-05
0.000381368
9.75037e-05
0.000623624
0.000107596
0.000846991
0.00011855
0.00105093
0.000129659
0.00123537
0.000140074
0.00140076
0.000148568
0.001548
0.000153517
0.0016784
0.000152894
0.00179294
0.000144734
0.00189239
0.000126553
0.00197698
9.56498e-05
0.00204626
4.92807e-05
0.0020973
-1.46165e-05
0.00213557
-0.000100641
0.00215815
-0.000208076
0.00216535
-0.000339185
0.00215847
-0.000494186
0.00213991
-0.00067168
0.00211317
-0.000867901
0.00208229
-0.00107582
0.00205114
-0.00128461
0.00202214
-0.00147974
0.00199502
-0.00164484
0.0019666
-0.00176589
0.00193216
-0.00183671
0.00188818
-0.00186227
0.0018344
-0.00185671
0.00177399
-0.00183699
0.00171183
-0.00181645
0.00165238
-0.00180203
-0.00179576
0.00159856
-0.00042304
-0.000170304
-0.00061776
-0.000684817
-0.000295331
-0.00115138
0.000294966
-0.00136304
0.000942975
-0.00139307
0.00157913
-0.00132185
0.00220096
-0.00117907
0.00279599
-0.000935573
0.00327606
-0.00052824
0.00349219
4.59852e-05
0.00330601
0.000690229
0.00268501
0.00124188
0.00171692
0.00160053
0.000538436
0.00178561
-0.000733604
0.0018711
-0.002012
0.00190589
-0.00322915
0.00189675
-0.00431587
0.00183212
-0.00520401
0.00170369
-0.00584121
0.00150175
-0.00620387
0.00120548
-0.00630508
0.000802744
-0.00619083
0.000333157
-0.00592556
-9.9643e-05
-0.00557791
-0.000392787
-0.00519199
-0.000536091
-0.00480179
-0.000570944
-0.00443239
-0.000550413
-0.00410008
-0.000508597
-0.00381379
-0.000459228
-0.00357275
-0.000405873
-0.0033707
-0.000350356
-0.00320016
-0.00029641
-0.00305033
-0.000248978
-0.00290759
-0.000212578
-0.00276096
-0.000187876
-0.00260092
-0.000176546
-0.00241893
-0.000177281
-0.00221132
-0.000185647
-0.00197789
-0.000198548
-0.00171986
-0.000213429
-0.00144022
-0.000228412
-0.00114183
-0.000241862
-0.000828345
-0.000252552
-0.000503769
-0.000259455
-0.000172316
-0.00026179
0.000161584
-0.000259005
0.000493548
-0.000250829
0.00081931
-0.000237126
0.0011348
-0.000217987
0.00143646
-0.000194066
0.00172101
-0.000165992
0.00198655
-0.000135882
0.00223077
-0.000104148
0.00245154
-7.21982e-05
0.00264705
-4.19912e-05
0.00282254
-2.26027e-05
0.00297651
-9.23418e-06
0.00310905
-5.98647e-06
0.00321924
-1.45363e-05
0.00331031
-4.17919e-05
0.0033844
-8.87112e-05
0.00343842
-0.000154659
0.00347264
-0.000242292
0.00348634
-0.000352884
0.00347893
-0.000486783
0.00345012
-0.00064287
0.00339992
-0.0008177
0.00332864
-0.00100454
0.00323663
-0.0011926
0.003124
-0.00136711
0.00299067
-0.00151151
0.00283747
-0.0016127
0.00266802
-0.00166726
0.00248974
-0.00168399
0.00231279
-0.00167975
0.00214701
-0.00167121
0.0019992
-0.00166864
0.00187204
-0.00167487
-0.00168852
0.00176481
-0.000217662
4.73578e-05
-0.000662445
-0.000240034
-0.00121168
-0.000602146
-0.0017918
-0.000782918
-0.0023738
-0.000811069
-0.0028879
-0.000807755
-0.00326488
-0.000802095
-0.00349762
-0.000702836
-0.00362827
-0.000397586
-0.00373223
0.000149949
-0.00383925
0.000797251
-0.00390722
0.00130985
-0.00386966
0.00156296
-0.00368418
0.00160013
-0.00334323
0.00153015
-0.0028657
0.00142836
-0.00229021
0.00132126
-0.00166927
0.00121118
-0.00105659
0.00109101
-0.000493578
0.000938739
-3.17182e-05
0.000743621
0.000270649
0.000500377
0.000376565
0.000227241
0.000318511
-4.15898e-05
0.000197446
-0.000271722
9.69923e-05
-0.000435637
4.24521e-05
-0.000516403
7.80507e-06
-0.000515766
-4.47237e-05
-0.000456068
-0.000134266
-0.000369685
-0.000255296
-0.000284843
-0.000387173
-0.00021848
-0.000506629
-0.000176954
-0.0005954
-0.000160207
-0.000642875
-0.000165102
-0.000640213
-0.000190538
-0.000589126
-0.000227633
-0.000496724
-0.000269683
-0.000366575
-0.000315796
-0.000202548
-0.000362575
-8.76117e-06
-0.000407215
0.000210384
-0.000447556
0.000450379
-0.000481857
0.000706546
-0.00050872
0.000974169
-0.000527078
0.00124859
-0.000536208
0.00152533
-0.000535744
0.00180022
-0.000525719
0.00206969
-0.000506597
0.00233081
-0.00047911
0.00258112
-0.000444374
0.0028189
-0.000403777
0.00304202
-0.000358994
0.00324928
-0.000311415
0.00344084
-0.000263761
0.00361556
-0.000216702
0.00376766
-0.00017471
0.00389811
-0.000139677
0.00400669
-0.000114568
0.0040951
-0.000102951
0.0041615
-0.000108188
0.00420631
-0.00013352
0.00423207
-0.000180416
0.00423927
-0.0002495
0.00422781
-0.000341416
0.00419652
-0.0004555
0.00414323
-0.000589575
0.00406479
-0.000739259
0.0039573
-0.000897046
0.0038164
-0.0010517
0.00363843
-0.00118914
0.00342305
-0.00129614
0.00317674
-0.00136639
0.00291415
-0.00140467
0.00265486
-0.00142469
0.00241665
-0.00144155
0.00221007
-0.00146462
0.00203727
-0.00149585
0.00189485
-0.00153245
-0.00157073
0.00177705
0.000365896
-0.000318538
0.00062617
-0.000500308
0.000453309
-0.000429284
-3.89028e-05
-0.000290707
-0.000702383
-0.000147588
-0.00146078
-4.93539e-05
-0.00222822
-3.46606e-05
-0.00284871
-8.23498e-05
-0.00315087
-9.54222e-05
-0.00299048
-1.04387e-05
-0.00235309
0.000159858
-0.00138321
0.000339975
-0.000293031
0.000472778
0.000755379
0.000551716
0.00168803
0.000597497
0.00248332
0.000633069
0.0031412
0.000663392
0.00365865
0.000693723
0.00403088
0.000718782
0.00424445
0.000725168
0.00429711
0.00069096
0.00420137
0.000596118
0.00398587
0.000442738
0.00370696
0.000237321
0.00342519
1.0048e-05
0.00318138
-0.000191828
0.00298671
-0.000321728
0.00282871
-0.000357769
0.00268669
-0.000314052
0.00254594
-0.000228932
0.00239968
-0.000138584
0.00226211
-8.09097e-05
0.00215035
-6.51888e-05
0.0020766
-8.64599e-05
0.00204484
-0.000133345
0.00205311
-0.000198809
0.0020994
-0.000273922
0.00218114
-0.000351419
0.00229142
-0.000426078
0.00242287
-0.000494022
0.00256823
-0.000552584
0.00272093
-0.000600248
0.00287525
-0.000636185
0.00302661
-0.000660076
0.00317148
-0.000671946
0.00330727
-0.000672001
0.00343213
-0.000660605
0.00354484
-0.000638431
0.00364489
-0.000606639
0.00373271
-0.000566933
0.00380969
-0.000521355
0.00387772
-0.000471808
0.00393911
-0.000420379
0.00399666
-0.000368971
0.00405129
-0.000318385
0.00410528
-0.000270691
0.00415585
-0.000225282
0.0042023
-0.000186125
0.00424256
-0.000154835
0.00427333
-0.000133716
0.00429112
-0.000125984
0.00429306
-0.000135458
0.00427738
-0.000164732
0.0042425
-0.000214626
0.00418709
-0.000286007
0.00410967
-0.000378076
0.00400793
-0.000487834
0.00387818
-0.000609508
0.00371552
-0.000734385
0.00351565
-0.000851835
0.00327888
-0.000952371
0.00301473
-0.00103198
0.00274269
-0.00109435
0.00248639
-0.00114837
0.00226415
-0.00120246
0.00208298
-0.00126038
0.00193936
-0.001321
0.00182451
-0.001381
0.00172965
-0.00143759
-0.0014894
0.00164831
-0.000415647
9.71079e-05
-0.00100153
8.55742e-05
-0.00150977
7.89523e-05
-0.00195005
0.00014958
-0.00236959
0.000271947
-0.00283434
0.000415402
-0.00337647
0.000507469
-0.00395281
0.000493985
-0.00443437
0.000386136
-0.00469358
0.00024877
-0.0046638
0.000130084
-0.00436942
4.5597e-05
-0.00389179
-4.85628e-06
-0.00332304
-1.70351e-05
-0.0027456
2.00622e-05
-0.00222484
0.000112307
-0.00180139
0.000239936
-0.00145965
0.000351984
-0.00113865
0.000397782
-0.000783284
0.000369805
-0.000396718
0.000304395
-2.98032e-05
0.000229203
0.000269056
0.000143879
0.000460045
4.6332e-05
0.000531613
-6.15206e-05
0.00050532
-0.000165535
0.000429457
-0.000245864
0.000361176
-0.000289488
0.000345811
-0.000298688
0.000405124
-0.000288244
0.000547175
-0.000280635
0.000755295
-0.00028903
0.00100958
-0.000319468
0.00129455
-0.00037143
0.00159799
-0.000436786
0.00190537
-0.000506195
0.00220246
-0.000571011
0.0024758
-0.000624753
0.00271327
-0.000663556
0.0029052
-0.000685945
0.00304498
-0.000692367
0.00312949
-0.00068476
0.00315949
-0.000666188
0.00313978
-0.000640359
0.00307879
-0.00061096
0.00298746
-0.00058067
0.0028775
-0.000550645
0.00275976
-0.000520695
0.00264311
-0.000489987
0.00253401
-0.000457831
0.00243663
-0.000423976
0.00235384
-0.000389018
0.00228704
-0.000353574
0.00223621
-0.000318143
0.00220112
-0.000283293
0.00218097
-0.000250541
0.00217571
-0.000220027
0.00218331
-0.000193726
0.00220186
-0.000173385