/*--------------------------------*- C++ -*----------------------------------*\
| =========                 |                                                 |
| \\      /  F ield         | OpenFOAM: The Open Source CFD Toolbox           |
|  \\    /   O peration     | Version:  2012                                  |
|   \\  /    A nd           | Website:  www.openfoam.com                      |
|    \\/     M anipulation  |                                                 |
\*---------------------------------------------------------------------------*/
FoamFile
{
    version     2.0;
    format      ascii;
    class       volScalarField;
    location    "0.64";
    object      p;
}
// * * * * * * * * * * * * * * * * * * * * * * * * * * * * * * * * * * * * * //

dimensions      [0 2 -2 0 0 0 0];


internalField   nonuniform List<scalar> 
42400
(
4978.21
5004.48
5008
4940.09
4764.24
4480.71
4065.55
3512.16
2857.79
2164.85
1492.96
879.532
353.409
-58.8024
-336.766
-480.535
-512.997
-469.847
-390.544
-309.261
-246.684
-209.128
-191.534
-181.909
-166.688
-136.166
-87.3911
-23.2886
49.5667
122.315
184.539
227.454
247.288
246.116
229.852
204.931
176.261
147.013
119.256
94.0278
71.8415
52.8607
37.0154
24.02
12.8964
3.25099
-4.60018
-10.3951
-14.1504
-15.923
-15.8057
-13.9486
-10.5931
-6.03851
-0.64758
5.1864
11.0811
16.7078
21.8249
26.2941
30.0737
33.192
35.7167
37.7282
39.3032
40.5078
41.3972
42.0176
42.409
42.6076
42.6463
42.5551
42.36
42.0823
41.7383
41.3399
40.8964
40.4191
39.9274
39.4138
-13962
-12747.4
-11259.5
-9884.18
-8633.09
-7624.25
-6814.97
-6138.4
-5536.76
-4976.32
-4445.61
-3944.37
-3477.32
-3047.65
-2658.99
-2312.91
-2005.44
-1729.67
-1484.73
-1281.04
-1133.36
-1046.99
-1010.2
-1001.41
-999.958
-990.818
-964.524
-916.172
-844.328
-751.282
-643.12
-528.921
-418.575
-320.059
-237.761
-172.646
-123.548
-88.218
-64.0343
-48.5874
-39.9869
-36.5541
-36.893
-39.6809
-43.5334
-47.3882
-50.5742
-52.5371
-52.6628
-50.5279
-45.955
-39.0125
-30.01
-19.4722
-8.08468
3.38897
14.2121
23.7888
31.7554
38.0131
42.6884
46.0367
48.3441
49.8663
50.8063
51.3163
51.5073
51.4611
51.2386
50.8866
50.4412
49.9301
49.3738
48.7872
48.1799
47.5581
46.9268
46.2917
45.6619
45.0331
7358.31
7148.47
6861.31
6398.52
5623.28
4613.52
3476.62
2374.16
1451.06
748.278
221.441
-185.008
-502.464
-745.358
-923.613
-1044.6
-1114.77
-1142.3
-1139.99
-1120.41
-1090.4
-1046.57
-981.403
-889.918
-773.739
-641.551
-506.173
-380.033
-271.659
-183.955
-115.675
-63.8493
-25.4141
2.13945
20.921
32.6491
38.5996
39.7751
36.9711
31.0081
22.9211
13.5131
3.55652
-6.12704
-14.6952
-21.3861
-25.6258
-27.0344
-25.4117
-20.7672
-13.3598
-3.70162
7.48691
19.356
31.0194
41.666
50.6704
57.6732
62.6115
65.6806
67.2359
67.689
67.4101
66.6769
65.6768
64.5314
63.3192
62.0913
60.8808
59.7085
58.5855
57.5158
56.4979
55.5263
54.5938
53.6927
52.8165
51.9612
51.127
50.304
12442.7
12187.4
11862.1
11407
10686.2
9735.48
8644.04
7620.94
6864.3
6370.27
5978.32
5575.83
5149.12
4709.96
4271.17
3844.32
3431.17
3028.63
2641.83
2281.92
1955.99
1666.2
1413.55
1197.67
1015.79
863.188
734.523
624.345
528.433
444.082
369.78
304.751
248.377
199.873
158.347
122.865
92.534
66.486
43.9085
24.1443
6.705
-8.75353
-22.4387
-34.42
-44.6068
-52.7563
-58.5312
-61.519
-61.2366
-57.244
-49.33
-37.6668
-22.8555
-5.84257
12.1908
30.0472
46.4788
60.4679
71.186
78.4204
82.4218
83.7327
83.1058
81.2896
78.8802
76.288
73.7601
71.4222
69.32
67.4519
65.7924
64.3061
62.9566
61.7106
60.5401
59.423
58.3429
57.2892
56.2549
55.2325
-4586.07
-4018.53
-3242.06
-2376.91
-1451.75
-600.644
156.002
846.816
1487.72
2036.12
2433.77
2667.94
2766.93
2763.36
2674.46
2509.63
2285.05
2025.19
1754.16
1490.27
1244.96
1024.39
831.434
667.035
530.698
420.699
334.372
268.961
220.988
186.573
162.259
145.035
132.277
121.877
112.302
102.605
92.2851
81.2052
69.4696
57.3218
45.0604
32.9728
21.2957
10.2102
-0.135465
-9.59401
-17.9821
-25.0335
-30.3679
-33.5119
-33.9712
-31.3099
-25.4437
-16.4585
-4.85585
8.5582
22.7995
36.5348
48.9185
59.0184
66.3239
71.0176
73.6576
74.8626
75.142
74.8521
74.2193
73.381
72.4195
71.3837
70.3026
69.1929
68.0636
66.9194
65.7625
64.5939
63.4151
62.2282
61.0326
59.8364
-2783.61
-2954.53
-3199.46
-3475.51
-3780.37
-4061.91
-4295.25
-4462.17
-4558.49
-4602.68
-4617.5
-4600.38
-4519.35
-4336.73
-4038.28
-3653.34
-3241.41
-2851.08
-2500.63
-2179.5
-1872.45
-1573.69
-1288.79
-1027.51
-797.91
-604.532
-448.12
-326.271
-234.704
-168.107
-120.814
-87.6373
-64.4524
-48.251
-36.9152
-28.9621
-23.2968
-19.0634
-15.5932
-12.402
-9.19425
-5.84828
-2.37428
1.14372
4.60613
7.94627
11.1627
14.3125
17.4971
20.8463
24.4956
28.5608
33.1035
38.1218
43.5372
49.2009
54.9073
60.4132
65.4802
69.885
73.4697
76.1789
78.0494
79.178
79.6888
79.7094
79.3559
78.7258
77.8958
76.9231
75.8484
74.699
73.4931
72.2425
70.9554
69.6379
68.2962
66.9357
65.56
64.1864
-5657.35
-5447.74
-5168.64
-4830.92
-4453.51
-4085.09
-3736.43
-3398.52
-3059.83
-2714.44
-2361.57
-2002.95
-1641.26
-1280.59
-930.054
-608.157
-341.084
-153.421
-52.0498
-18.4597
-18.1035
-24.7959
-30.9087
-39.7772
-55.7683
-80.8451
-114.898
-156.228
-202.041
-248.66
-291.742
-326.746
-349.884
-359.323
-355.613
-340.977
-318.082
-289.256
-256.389
-221.107
-184.885
-149.063
-114.806
-83.0677
-54.6951
-30.2955
-9.70775
7.2909
21.0572
32.1261
41.0111
48.3668
54.6228
60.0825
64.944
69.3199
73.2532
76.7368
79.7383
82.2222
84.166
85.5702
86.4616
86.8877
86.9086
86.5885
85.9893
85.166
84.1654
83.0255
81.776
80.4399
79.0348
77.5748
76.0711
74.5337
72.9723
71.3957
69.8113
68.2396
5777.77
5577.15
5326.53
5057.63
4748.71
4459.18
4194.7
3949.24
3717.06
3493.67
3274.35
3054.11
2828.91
2596.13
2353.62
2097.92
1824.79
1535.06
1240.12
958.961
708.814
497.177
322.673
180.647
66.7273
-22.6695
-91.0161
-141.632
-177.704
-202.416
-217.404
-224.159
-223.224
-215.04
-200.721
-181.954
-160.431
-137.454
-113.916
-90.4796
-67.6502
-45.7472
-24.936
-5.34026
12.973
29.8791
44.8115
57.5262
67.995
76.3473
82.9634
88.0979
92.0705
95.131
97.4838
99.2705
100.582
101.476
101.99
102.151
101.98
101.502
100.745
99.7413
98.5257
97.1344
95.6022
93.9609
92.2381
90.4563
88.6337
86.7839
84.917
83.0409
81.1616
79.2846
77.4152
75.5588
73.7203
71.9163
2303.53
2257.36
2147.9
1937.65
1642.47
1315.01
987.808
664.479
337.452
5.28266
-326.271
-648.344
-950.493
-1221.46
-1449.41
-1623.66
-1735.46
-1781.36
-1766.42
-1705.83
-1621.76
-1534.29
-1455.5
-1386.66
-1321.83
-1253.49
-1176.08
-1087.17
-987.072
-876.859
-756.096
-622.993
-478.299
-329.197
-188.641
-69.6695
20.6336
82.8539
122.703
147.178
161.852
170.193
174.209
175.208
174.157
171.793
168.661
165.155
161.529
157.925
154.413
151.011
147.716
144.512
141.381
138.305
135.27
132.265
129.281
126.312
123.353
120.404
117.468
114.551
111.662
108.808
105.999
103.243
100.547
97.9155
95.3508
92.8535
90.4227
88.0557
85.7493
83.5001
81.3051
79.1621
77.0699
75.038
-7561.44
-7424.84
-7321.65
-7246.93
-7142.54
-6945.7
-6639.34
-6249.11
-5802.71
-5312.87
-4786.26
-4232.57
-3666.8
-3107.54
-2573.66
-2080.28
-1637.17
-1249.43
-919.131
-646.339
-426.504
-250.973
-109.351
8.40148
110.214
201.082
283.392
357.428
420.706
467.404
491.621
494.165
485.596
479.931
485.136
498.029
508.153
506.162
489.407
461.312
427.426
392.468
359.514
330.154
304.878
283.477
265.388
249.971
236.643
224.926
214.454
204.96
196.25
188.18
180.645
173.564
166.876
160.534
154.501
148.752
143.268
138.033
133.039
128.277
123.74
119.423
115.32
111.423
107.727
104.225
100.906
97.7634
94.784
91.9555
89.2638
86.694
84.2316
81.8635
79.5791
77.3767
5769.57
5681.9
5549.06
5385.14
5188.63
5017.14
4858.97
4697.16
4528.22
4352.95
4173.96
3993.29
3812.58
3632.7
3453.9
3275.9
3099.12
2924.13
2745.62
2543.08
2281.06
1929.31
1485.78
982.028
471.535
4.30365
-393.513
-715.717
-957.941
-1107.58
-1147.86
-1072.01
-890.302
-635.242
-353.508
-88.863
128.72
286.642
387.816
444.183
468.807
471.287
458.235
435.274
407.376
378.174
349.959
324.133
301.075
280.737
262.871
247.144
233.206
220.734
209.449
199.125
189.588
180.711
172.4
164.591
157.242
150.32
143.805
137.679
131.924
126.525
121.466
116.73
112.302
108.166
104.307
100.709
97.3541
94.2218
91.2899
88.5338
85.9282
83.4491
81.0768
78.7941
1200.01
1080.6
923.232
804.984
707.525
623.43
501.167
327.779
114.289
-123.448
-370.343
-610.985
-831.805
-1022.05
-1173.52
-1279.35
-1329.87
-1308.78
-1207.71
-1049.83
-871.061
-679.623
-475.22
-297.118
-203.498
-212.964
-300.448
-429.067
-559.183
-652.044
-681.628
-641.317
-545.099
-418.818
-290.121
-177.677
-84.2088
-7.19086
56.7369
109.445
152.067
185.697
211.398
230.138
242.857
250.656
254.477
254.759
252.247
247.646
241.527
234.354
226.49
218.211
209.724
201.182
192.698
184.361
176.24
168.389
160.849
153.655
146.827
140.377
134.305
128.607
123.271
118.283
113.63
109.296
105.267
101.528
98.0611
94.8469
91.8603
89.0732
86.455
83.9761
81.6106
79.3273
-8352.42
-8285.14
-8172.4
-7981.02
-7768.47
-7588.62
-7428.55
-7176.23
-6744.72
-6174.55
-5565.69
-4981.02
-4432.71
-3909.3
-3399.22
-2900.09
-2412.53
-1935.89
-1496.19
-1146.94
-907.623
-743.332
-629.988
-564.122
-536.134
-529.842
-535.433
-543.154
-538.793
-510.715
-454.735
-372.276
-272.055
-166.37
-66.6926
19.7362
89.7558
143.194
182.102
209.599
228.638
241.379
249.292
253.427
254.609
253.564
250.794
246.681
241.53
235.589
229.057
222.093
214.826
207.363
199.793
192.189
184.618
177.139
169.809
162.677
155.789
149.183
142.887
136.919
131.286
125.984
121.006
116.339
111.968
107.881
104.067
100.512
97.2037
94.1252
91.2556
88.5696
86.0393
83.6369
81.3366
79.102
3646.19
3794.21
3989.97
4091.56
3953.4
3543.38
3047.34
2704.92
2594.46
2623.69
2673.58
2686.83
2655.49
2584.97
2481.43
2354.28
2215.23
2066.1
1900.63
1725.76
1552.37
1376.84
1203.88
1049.85
922.719
820.318
737.307
669.066
612.092
563.624
521.742
485.562
454.726
428.554
406.11
386.54
368.853
352.146
336.301
321.175
306.727
292.967
279.878
267.491
255.838
244.932
234.764
225.304
216.504
208.306
200.649
193.469
186.704
180.293
174.183
168.323
162.671
157.194
151.873
146.696
141.664
136.786
132.074
127.54
123.195
119.042
115.082
111.31
107.721
104.309
101.07
97.9986
95.0897
92.3353
89.7239
87.2407
84.8685
82.5892
80.3838
78.2255
18285.5
17993.2
17676.4
17130
15998.5
14336.3
12495.9
10879.5
9565.68
8437.07
7432.25
6554.54
5814.61
5208.43
4714.69
4302.64
3941.59
3607.52
3288.04
2980.56
2682.89
2391.94
2110.38
1845.37
1602.55
1383.99
1189.83
1019.7
873.651
752.284
655.352
581.63
527.044
487.174
457.158
431.876
407.274
381.31
353.437
324.693
296.678
270.756
247.674
227.602
210.357
195.606
183
172.227
163.028
155.199
148.571
143.006
138.376
134.557
131.418
128.826
126.639
124.724
122.952
121.216
119.429
117.538
115.514
113.358
111.09
108.736
106.327
103.889
101.442
99.0048
96.5886
94.2043
91.8597
89.5605
87.3093
85.1064
82.9502
80.8364
78.7586
76.7086
-6453.49
-5839.99
-5045.65
-4200.25
-3332.24
-2516.22
-1686.76
-843.289
-67.7869
579.472
1097.37
1504.56
1815.47
2040.88
2188.9
2262
2259.01
2186.47
2063.54
1912.71
1749.84
1582.98
1416.45
1253.6
1096.84
947.484
806.48
675.161
555.404
449.299
359.763
289.035
238.055
205.474
187.791
180.091
177.306
175.522
172.608
167.911
161.534
153.789
145.002
135.504
125.667
115.893
106.574
98.047
90.5815
84.3711
79.5369
76.1313
74.1416
73.4932
74.0541
75.6408
78.0264
80.9521
84.1411
87.3171
90.2277
92.6702
94.5135
95.7071
96.2723
96.2799
95.8233
94.9974
93.8852
92.5533
91.0534
89.4257
87.7011
85.9047
84.057
82.1754
80.2745
78.3641
76.452
74.5479
-16534
-15728.7
-14836.4
-14085.7
-13297.8
-12438.8
-11538
-10659.7
-9842.97
-9082.02
-8323.77
-7502.62
-6581.23
-5575.95
-4557.72
-3627.79
-2866.47
-2291.13
-1869.87
-1562.52
-1336.65
-1166.66
-1033.17
-921.631
-821.586
-725.371
-629.626
-535.487
-446.357
-364.968
-291.634
-224.692
-161.354
-101.02
-45.2804
2.7509
39.7594
63.9293
75.9027
78.2699
74.1328
66.066
55.841
44.5598
33.6055
23.62
14.993
7.96811
2.67102
-0.84431
-2.56436
-2.49746
-0.670669
2.85977
7.98955
14.5474
22.2836
30.8703
39.9108
48.9593
57.5562
65.282
71.8218
77.0143
80.8596
83.4841
85.0838
85.869
86.0277
85.7104
85.0314
84.0756
82.9055
81.5684
80.1019
78.5384
76.9044
75.2205
73.5056
71.7796
14411.2
14040.6
13481.8
12581.7
11288.1
9785.85
8244.34
6776.98
5416.27
4137.99
2906.8
1729.71
679.885
-143.096
-693.48
-1031.46
-1281.83
-1528.96
-1775.21
-1987.1
-2135.53
-2203.05
-2184.56
-2085.99
-1922.31
-1715.4
-1491.06
-1273.66
-1079.48
-914
-774.555
-655.7
-552.677
-461.861
-381.701
-312.013
-253.248
-205.788
-169.34
-142.898
-124.793
-113.076
-105.986
-101.834
-99.6636
-98.3413
-96.9706
-95.0082
-92.1625
-88.2418
-83.1281
-76.7306
-68.9759
-59.8279
-49.3186
-37.5717
-24.8009
-11.2921
2.60847
16.4819
29.8228
42.0715
52.7151
61.4152
68.0842
72.8696
76.0684
78.0228
79.0432
79.3819
79.2284
78.7069
77.9077
76.8954
75.7182
74.415
73.0173
71.5503
70.0373
68.4996
320.981
854.123
1650.55
2621.05
3760.57
4985.61
6268.54
7542.66
8715.42
9679.51
10326
10586.8
10475.1
10065.5
9446.55
8706.23
7914.93
7101.03
6273.67
5455.38
4681.14
3979.84
3363.25
2826.38
2353.9
1929.31
1543.11
1195.69
894.039
644.794
448.578
298.587
183.463
91.9366
16.2944
-47.0082
-99.3386
-141.16
-172.738
-194.534
-207.585
-213.396
-213.514
-209.491
-202.87
-194.603
-184.823
-174.129
-162.445
-149.637
-135.695
-120.72
-104.94
-88.679
-72.3055
-56.1465
-40.4012
-25.0946
-10.1309
4.55306
18.8057
32.1842
44.0731
53.9358
61.5246
66.9345
70.5033
72.656
73.7869
74.2058
74.1313
73.7076
73.0291
72.1586
71.1405
70.0082
68.7886
67.5031
66.1731
64.8138
1964.86
1713.93
1419.8
1125.29
778.776
436.543
99.569
-256.917
-664.86
-1134.7
-1641.7
-2135.81
-2567.54
-2901.84
-3108.87
-3156.29
-3026.45
-2745.09
-2380.11
-2002.49
-1651.52
-1338.46
-1065.16
-832.973
-642.031
-490.467
-373.606
-284.525
-215.73
-161.173
-117.64
-84.1976
-61.3525
-48.986
-45.2111
-48.2591
-56.3634
-67.5682
-79.855
-92.0176
-102.943
-111.857
-118.299
-122.023
-122.94
-121.071
-116.653
-109.277
-99.4012
-87.6648
-74.7166
-61.2572
-47.9364
-35.2875
-23.6615
-13.1797
-3.70225
5.15375
13.8918
22.9004
32.2261
41.4891
50.0231
57.1763
62.5844
66.2573
68.4757
69.6161
70.0209
69.945
69.557
68.9596
68.2131
67.3531
66.4022
65.377
64.2913
63.1581
61.991
60.7966
4618.79
4535.62
4397.58
4181.3
3892.7
3572.08
3247.11
2935.71
2646.93
2382.07
2135.95
1897.99
1654.78
1394.04
1108.8
800.378
478.083
158.253
-139.679
-398.088
-604.41
-753.546
-847.046
-890.887
-893.298
-863.183
-809.17
-739.115
-659.853
-577.107
-495.447
-418.082
-346.867
-282.777
-225.878
-175.715
-131.538
-92.4994
-57.8049
-27.0922
-0.429127
21.8197
39.3279
52.0964
60.6414
65.8393
68.6131
69.7232
69.6938
68.869
67.4423
65.4907
63.0882
60.3147
57.256
54.0092
50.6786
47.3026
43.9311
40.6235
37.438
34.4102
31.5604
28.8981
26.4239
24.1324
22.0138
20.0559
18.2457
16.5704
15.0182
13.5791
12.2445
11.0078
9.86377
8.8081
7.83809
6.94738
6.13577
5.39444
3409.34
3467.84
3560.12
3659.37
3740.45
3767.83
3727.46
3621.88
3464.21
3272.36
3064.42
2854.77
2652.62
2462.42
2284.77
2116.5
1952.69
1788.43
1620.98
1451.19
1282.74
1121.38
972.012
837.317
717.57
610.925
514.484
425.491
342.125
263.769
190.966
125.174
68.2715
22.0096
-12.3327
-34.126
-43.5407
-41.5233
-29.8305
-10.6887
13.2746
39.2922
64.7441
87.4476
105.795
118.798
126.151
128.23
125.95
120.469
112.931
104.33
95.3606
86.4875
78.0032
70.0681
62.7466
56.1042
50.15
44.8487
40.1187
35.9265
32.216
28.9342
26.0311
23.4591
21.1735
19.133
17.3007
15.6446
14.1384
12.7612
11.4974
10.336
9.26935
8.29234
7.40196
6.5921
5.86273
5.21216
-2565.81
-2755.52
-3006.23
-3273.96
-3544.94
-3774.59
-3961.6
-4113.89
-4236.14
-4330.1
-4396.31
-4432.15
-4429.24
-4375.72
-4259.78
-4073.1
-3816.19
-3499.85
-3142.97
-2769.26
-2401.16
-2054.66
-1738.12
-1454.36
-1203.5
-984.456
-795.586
-634.767
-499.411
-386.595
-293.298
-216.603
-153.825
-102.578
-60.7595
-26.4752
1.6218
24.9671
44.5262
61.1632
75.559
88.0016
98.426
106.506
111.862
114.311
114.018
111.447
107.179
101.749
95.5633
88.9158
82.0233
75.0632
68.1888
61.5316
55.1993
49.2764
43.8207
38.8655
34.4391
30.5145
27.0731
24.0813
21.4962
19.2679
17.3425
15.6662
14.188
12.8639
11.6588
10.5477
9.51505
8.55319
7.65979
6.83574
6.08379
5.40392
4.79925
4.27217
-9828.91
-9285.73
-8556.65
-7787.69
-7002
-6333.37
-5789
-5357.24
-5053.51
-4894.58
-4843.24
-4802.47
-4692.94
-4504.48
-4260.18
-3974.77
-3661.84
-3341.91
-3030.41
-2732.64
-2448.6
-2177.84
-1921.18
-1680.35
-1456.93
-1251.63
-1064.07
-892.87
-736.073
-591.657
-459.016
-339.097
-233.691
-144.291
-71.0908
-12.656
32.9313
67.5094
92.8675
110.625
122.211
128.858
131.593
131.238
128.443
123.736
117.569
110.344
102.41
94.0696
85.5746
77.133
68.9163
61.0641
53.6858
46.8624
40.649
35.0784
30.1639
25.8965
22.2267
19.1382
16.5892
14.5281
12.8938
11.6159
10.6168
9.81623
9.13827
8.51873
7.91151
7.29138
6.65243
6.00312
5.35996
4.74197
4.16744
3.65087
3.2032
2.82095
11202.3
11002.3
10755.2
10411.6
9935.62
9362.15
8718.17
8030.45
7321.79
6609.89
5917.07
5267.37
4685.84
4191.9
3789.31
3460.02
3176.62
2919.88
2682.37
2462.95
2261.63
2077.82
1910.4
1757.19
1615.51
1482.53
1355.52
1232.66
1113.93
1001.25
897.971
806.193
724.62
649.379
577.733
508.556
442.745
382.154
328.415
282.273
243.528
211.315
184.471
161.834
142.385
125.317
110.039
96.1512
83.4107
71.6916
60.9461
51.1708
42.3776
34.5727
27.7425
21.8502
16.8486
12.6781
9.24206
6.46558
4.3078
2.71843
1.6601
1.08654
0.93635
1.12912
1.56543
2.13075
2.70525
3.18046
3.47892
3.56773
3.45893
3.19664
2.83892
2.44236
2.05402
1.71049
1.43727
1.22179
2148.57
2190.9
2205.74
2158.91
2070.8
1953.34
1816.86
1647.63
1418.6
1124.28
805.336
533.63
370.015
333.17
397.13
512.223
632.346
730.313
797.411
835.822
851.3
850.853
840.102
824.927
809.634
796.226
784.672
773.832
762.486
749.686
734.562
715.681
691.112
659.108
619.383
573.317
522.794
469.495
414.923
360.641
308.284
259.327
214.823
175.308
140.845
111.177
85.8828
64.4866
46.5274
31.5952
19.339
9.456
1.6738
-4.26846
-8.63599
-11.7042
-13.7352
-14.9473
-15.5211
-15.6403
-15.4162
-14.8918
-14.0764
-12.9695
-11.5734
-9.90593
-8.01992
-6.02002
-4.06398
-2.33351
-0.979944
-0.0747826
0.40548
0.553512
0.487734
0.317168
0.1248
-0.0323869
-0.119175
-0.150839
-12885.4
-12434.7
-11893.9
-11314.3
-10635.4
-9831.09
-8864.16
-7790.38
-6758.36
-5909.45
-5290.32
-4866.45
-4589.09
-4426.29
-4351.86
-4335.36
-4345.75
-4357.26
-4351.5
-4316.96
-4247.22
-4140.32
-3995.86
-3815.07
-3600.37
-3355.58
-3086.85
-2801.78
-2508.86
-2216.66
-1932.69
-1662.87
-1411.06
-1179.6
-970.845
-786.373
-627.083
-493.017
-383.12
-295.248
-226.504
-173.737
-133.961
-104.567
-83.3674
-68.5404
-58.5646
-52.1639
-48.271
-46.0061
-44.6645
-43.7089
-42.7663
-41.6054
-40.027
-38.1581
-36.0765
-33.8723
-31.6214
-29.3882
-27.201
-25.0352
-22.832
-20.5254
-18.0646
-15.4365
-12.687
-9.93531
-7.36146
-5.15903
-3.4664
-2.31745
-1.64461
-1.32196
-1.21337
-1.20257
-1.20501
-1.16753
-1.06074
-0.893417
1443.04
1493.22
1473.7
1279.67
919.062
427.93
-115.105
-650.81
-1127.66
-1504.49
-1775.36
-1956.02
-2064.79
-2113.6
-2110.68
-2065.01
-1986.76
-1886.7
-1774.51
-1657.89
-1541.88
-1429.11
-1320.57
-1216.14
-1114.95
-1016.69
-921.541
-830.611
-745.708
-668.649
-599.887
-538.996
-485.085
-436.862
-392.595
-351.334
-312.709
-276.711
-243.508
-213.305
-186.241
-162.366
-141.635
-123.922
-109.032
-96.7075
-86.6458
-78.5092
-71.9452
-66.6068
-62.1676
-58.3443
-54.8925
-51.6889
-48.7428
-45.8486
-42.9564
-40.0961
-37.3216
-34.6632
-32.12
-29.6753
-27.3035
-24.9698
-22.6296
-20.2296
-17.7202
-15.0877
-12.3953
-9.79184
-7.46433
-5.55828
-4.12589
-3.12756
-2.466
-2.02525
-1.7
-1.41227
-1.11451
-0.787527
10878.8
10573.9
10212
9805.54
9300.08
8780.59
8265.63
7742.4
7199.93
6651.82
6130.68
5664.41
5257.77
4889.51
4520.82
4115.03
3661.12
3176.85
2689.57
2221.07
1785.78
1391.9
1043.29
741.199
485.333
273.895
103.965
-28.4008
-127.633
-198.248
-245.25
-273.187
-286.157
-287.803
-281.222
-268.967
-253.077
-235.13
-216.311
-197.484
-179.255
-162.04
-146.107
-131.601
-118.594
-107.083
-97.0103
-88.2763
-80.7531
-74.3497
-68.8386
-64.0671
-59.9162
-56.2294
-52.8932
-49.8129
-46.9078
-44.1171
-41.3949
-38.7044
-36.0194
-33.3276
-30.6316
-27.9454
-25.2855
-22.662
-20.0728
-17.5093
-14.9721
-12.4888
-10.1254
-7.97479
-6.12497
-4.62204
-3.45305
-2.55679
-1.8529
-1.26773
-0.746414
-0.256558
1707.12
1785.39
1961.19
2234.47
2571.43
2895.48
3164.46
3364.64
3499.29
3576.56
3594.95
3528.03
3326.45
2980.72
2581.41
2249.37
2010.67
1816.86
1631.81
1448
1268.43
1097.38
936.834
785.61
641.386
504.38
376.719
260.617
157.284
67.4167
-8.34523
-69.6423
-116.798
-150.844
-173.351
-186.176
-191.213
-190.257
-184.907
-176.517
-166.198
-154.846
-143.151
-131.615
-120.589
-110.298
-100.869
-92.3548
-84.7513
-77.9515
-71.9534
-66.6753
-62.0198
-57.8933
-54.2049
-50.8673
-47.7967
-44.9158
-42.1557
-39.459
-36.7823
-34.0963
-31.3826
-28.6296
-25.8284
-22.9763
-20.0875
-17.2033
-14.3918
-11.7376
-9.32219
-7.20478
-5.41069
-3.93264
-2.7374
-1.77506
-0.990455
-0.33278
0.238906
0.752403
-9079.1
-8900.96
-8681.64
-8413.08
-8059.18
-7654.6
-7229.87
-6797.52
-6343.31
-5845.14
-5286.71
-4669.49
-4015.73
-3345.98
-2680
-2074.13
-1591.29
-1241.38
-997.98
-839.149
-748.809
-707.643
-695.821
-701.899
-721.472
-748.98
-773.233
-782.21
-768.497
-731.616
-676.205
-609.504
-538.594
-469.055
-404.584
-347.217
-297.744
-256.07
-221.532
-193.169
-169.937
-150.853
-135.083
-121.957
-110.942
-101.605
-93.6039
-86.6623
-80.5622
-75.1307
-70.2344
-65.7657
-61.6365
-57.7742
-54.1189
-50.6214
-47.2423
-43.9517
-40.7281
-37.5584
-34.4366
-31.3626
-28.3417
-25.3834
-22.4988
-19.7008
-17.0044
-14.4292
-12.0005
-9.74739
-7.69751
-5.87059
-4.2739
-2.9012
-1.73433
-0.746768
0.0919565
0.811778
1.43802
1.99436
-890.559
-1081.76
-1323.14
-1582.9
-1890.06
-2198.99
-2498.09
-2783.68
-3058.38
-3324.04
-3574.54
-3795.39
-3968.71
-4082.32
-4133.34
-4135.69
-4127.14
-4130.08
-4118.88
-4055.98
-3927.64
-3735.64
-3485.1
-3180.36
-2823.87
-2422.84
-2001.45
-1601.06
-1258.04
-984.756
-773.673
-609.864
-481.176
-379.234
-298.621
-235.735
-187.625
-151.817
-126.023
-108.061
-95.9175
-87.8779
-82.5913
-78.925
-76.1374
-73.7076
-71.3197
-68.8109
-66.1203
-63.2544
-60.2511
-57.1589
-54.0233
-50.8812
-47.7588
-44.6723
-41.6293
-38.632
-35.6794
-32.7699
-29.9036
-27.083
-24.3138
-21.6053
-18.97
-16.423
-13.9815
-11.6639
-9.4889
-7.47333
-5.6304
-3.9675
-2.48512
-1.17666
-0.0295339
0.973099
1.84993
2.61928
3.29783
3.89511
3129.83
3300.38
3568.06
3894.66
4257.82
4590.41
4862.91
5052.95
5142.26
5123.51
5006.08
4815.63
4589.13
4363.18
4154.09
3943.55
3698.8
3408.66
3085.4
2742.11
2388.19
2040.91
1720.74
1442.69
1209.53
1014.01
845.314
692.697
549.933
417.831
300.151
200.493
120.325
58.9876
14.0678
-17.4864
-38.6029
-51.8375
-59.3675
-62.953
-63.9598
-63.4055
-61.9888
-60.1649
-58.2172
-56.2869
-54.4047
-52.5326
-50.6147
-48.6621
-46.6628
-44.6137
-42.5164
-40.3692
-38.171
-35.9216
-33.6221
-31.2754
-28.887
-26.4665
-24.0268
-21.5842
-19.1577
-16.7672
-14.4335
-12.1766
-10.0156
-7.96709
-6.04544
-4.26142
-2.62197
-1.12973
0.217012
1.42403
2.50051
3.458
4.30898
5.06605
5.74131
6.32717
5982.63
5933.96
5831.58
5632.63
5354.38
5019.06
4655.51
4286.82
3929.97
3594.92
3285.98
3003.76
2748.27
2520.33
2320.33
2149.18
2008.55
1899.42
1819.02
1762.22
1722.31
1687.28
1642.08
1573.04
1472.96
1343.1
1190.99
1027.22
862.214
704.313
561.013
436.607
332.243
246.932
178.442
124.206
81.9047
49.4416
25.0274
7.02795
-6.05652
-15.5123
-22.4043
-27.5252
-31.3959
-34.322
-36.4615
-37.8991
-38.702
-38.8821
-38.4916
-37.5348
-36.1174
-34.3416
-32.309
-30.108
-27.8033
-25.4389
-23.0464
-20.6501
-18.2707
-15.9265
-13.6341
-11.4091
-9.26615
-7.21851
-5.27794
-3.45417
-1.75445
-0.183418
1.25702
2.56755
3.75123
4.81332
5.76096
6.60271
7.34801
8.00695
8.58593
9.06788
-12008.9
-11174.9
-10112.6
-9059.66
-8020.06
-7105.16
-6314.02
-5644.27
-5099.13
-4687.31
-4412.33
-4262.49
-4209.31
-4211.05
-4218.35
-4185.25
-4083.06
-3906.81
-3663.3
-3358.07
-2996.02
-2592.34
-2175.93
-1779.43
-1425.99
-1125.51
-878.356
-680.108
-524.789
-406.048
-317.615
-253.23
-206.919
-173.44
-148.673
-129.741
-114.773
-102.473
-92.244
-83.836
-76.5957
-70.1914
-64.7254
-59.959
-55.6444
-51.5928
-47.6543
-43.7274
-39.7792
-35.8553
-32.051
-28.5305
-25.3764
-22.6334
-20.2743
-18.2218
-16.3849
-14.6764
-13.0157
-11.358
-9.67882
-7.97286
-6.24875
-4.52351
-2.81825
-1.15479
0.446623
1.96884
3.39855
4.72644
5.94688
7.05735
8.05788
8.95061
9.73938
10.4296
11.0279
11.5416
11.9707
12.2988
2694.31
2475.63
2232.47
1972.98
1619.66
1243.75
868.382
501.79
135.546
-252.834
-680.144
-1145.08
-1625.06
-2073.66
-2428.63
-2637.88
-2690.64
-2620.59
-2476.24
-2295.24
-2096.95
-1889.74
-1678.79
-1469.39
-1266.61
-1075.8
-901.921
-748.363
-617.57
-509.845
-423.311
-354.74
-300.523
-257.389
-222.709
-194.462
-171.069
-151.245
-133.9
-118.085
-103.766
-90.4682
-77.9062
-66.2882
-55.7986
-46.5321
-38.5202
-31.7487
-26.1169
-21.5475
-17.9344
-15.1503
-13.0335
-11.4011
-10.0802
-8.89609
-7.74001
-6.54552
-5.27945
-3.93228
-2.5092
-1.02513
0.498912
2.03837
3.56776
5.06238
6.49978
7.86083
9.13033
10.2972
11.3543
12.2979
13.1274
13.8447
14.4542
14.9624
15.3778
15.7096
15.9665
16.1361
6196.4
6155.47
6116.22
6020.03
5814.88
5513.39
5187.13
4906.89
4693.88
4525.87
4372.47
4212.59
4029.8
3805.31
3523.66
3181.75
2792.5
2380.8
1974.73
1596.92
1260.35
968.913
720.615
510.924
335.14
189.325
70.5185
-24.0975
-96.6614
-149.149
-183.886
-203.78
-212.136
-212.196
-206.665
-197.469
-185.835
-172.548
-158.201
-143.217
-127.315
-110.963
-95.1183
-80.2573
-66.6794
-54.5949
-44.0715
-35.0694
-27.4874
-21.2041
-16.0895
-11.994
-8.75484
-6.1932
-4.11842
-2.38276
-0.853185
0.568787
1.95002
3.3313
4.73259
6.15799
7.59998
9.04294
10.4664
11.8475
13.1636
14.3942
15.5217
16.5332
17.4202
18.1783
18.8074
19.3105
19.6944
19.9688
20.1466
20.2438
20.2859
20.2757
2980.88
3033.93
3115.31
3185.98
3243.41
3255.38
3229.11
3182.27
3124.64
3051.27
2947.77
2800.2
2604.36
2369.62
2115.07
1858.87
1613.46
1385.35
1176.42
986.867
816.097
663.288
527.807
409.426
308.241
224.413
157.552
106.614
70.4926
47.3079
34.854
30.6895
32.144
36.3377
40.7169
43.0962
42.5563
39.1279
33.5027
26.6204
19.337
12.3877
6.64243
2.2897
-0.767862
-2.67875
-3.64681
-3.88795
-3.59797
-2.96359
-2.09068
-1.06318
0.0601044
1.24572
2.48513
3.77632
5.12125
6.52108
7.97283
9.46862
10.9959
12.5382
14.0754
15.5848
17.0421
18.4227
19.7034
20.8641
21.8891
22.7681
23.4966
24.0752
24.5084
24.8033
24.9694
25.0181
24.9632
24.8215
24.6186
24.3977
-9305.68
-9181.9
-9010.36
-8765.72
-8434.31
-8038.22
-7587.47
-7085.78
-6533.74
-5940.8
-5327.94
-4723.39
-4149.05
-3615.26
-3123.96
-2672.63
-2260.06
-1885.83
-1550.16
-1253.92
-997.159
-778.073
-593.179
-436.543
-302.223
-185.601
-84.0419
3.03394
74.5717
129.375
166.559
186.084
189.234
178.862
159.236
134.939
109.771
86.4266
66.2067
49.611
36.2498
25.6098
17.2632
10.8178
5.97078
2.46403
-0.00272386
-1.53746
-2.26953
-2.30191
-1.76429
-0.767943
0.595131
2.24243
4.09904
6.09801
8.18055
10.2965
12.4045
14.4715
16.4719
18.3857
20.1963
21.8888
23.4486
24.8614
26.1142
27.1967
28.1034
28.834
29.3941
29.7933
30.0437
30.1576
30.1454
30.0152
29.7735
29.4267
28.9847
28.5129
1434.2
1338.59
1193.81
992.951
739.472
463.149
180.932
-101.682
-378.966
-639.747
-868.569
-1054.54
-1195
-1290.16
-1337.89
-1334.14
-1278.2
-1177.12
-1044.83
-896.54
-746.06
-603.898
-476.483
-367.585
-277.89
-206.54
-152.114
-112.934
-87.2255
-73.0133
-67.4088
-66.8509
-67.1593
-64.5246
-57.6177
-47.9041
-37.817
-29.3712
-23.2688
-19.5003
-17.5597
-16.9828
-17.3341
-18.2048
-18.8141
-18.8413
-18.2942
-17.2645
-15.74
-13.7169
-11.2216
-8.30455
-5.0379
-1.51151
2.17215
5.90598
9.58542
13.1199
16.4382
19.4929
22.2598
24.7334
26.9206
28.834
30.4873
31.8924
33.0601
34.0015
34.7293
35.2595
35.6111
35.8051
35.8617
35.7983
35.6266
35.3509
34.9668
34.4589
33.7964
32.9287
4.09734
2.66182
1.62729
0.879788
0.308167
-0.167069
-0.586689
-0.974223
-1.34442
-1.71411
-2.10589
-2.54497
-3.05283
-3.64229
-4.31567
-5.06343
-5.86624
-6.69057
-7.49226
-8.22013
-8.82097
-9.24493
-9.45378
-9.42433
-9.1542
-8.66346
-7.99294
-7.19935
-6.33851
-5.45215
-4.60985
-3.847
-3.19095
-2.65661
-2.24927
-1.96715
-1.80386
-1.7503
-1.79606
-1.93045
-2.14321
-2.42535
-2.76952
-3.17011
-3.62291
-4.12432
-4.67027
-5.25463
-5.86791
-6.49622
-7.12141
-7.72205
-8.26985
-8.74277
-9.11277
-9.35679
-9.45814
-9.40789
-9.20608
-8.86208
-8.39386
-7.82596
-7.18643
-6.50316
-5.80111
-5.10108
-4.42054
-3.7748
-3.17764
-2.64115
-2.1755
-1.78872
-1.48563
-1.26655
-1.12714
-1.05998
-1.05683
-1.11033
-1.21469
-1.36526
-1.55761
-1.7864
-2.04464
-2.32363
-2.61368
-2.9053
-3.19031
-3.46226
-3.71595
-3.94667
-4.14966
-4.32019
-4.45425
-4.54924
-4.6045
-4.62141
-4.6026
-4.55179
-4.47315
-4.37088
-4.2489
-4.1108
-3.95973
-3.79848
-3.62947
-3.45478
-3.27628
-3.09562
-2.91431
-2.73368
-2.55487
-2.37893
-2.20673
-2.03907
-1.8766
-1.71988
-1.56936
-1.42543
-1.28839
-1.15846
-1.03578
-0.920388
-0.812305
-0.711512
-0.617964
-0.531582
-0.452245
-0.379804
-0.314104
-0.255
-0.202348
-0.155999
-0.115804
-0.0816259
-0.0533543
-0.0309073
-0.0142227
-0.00324854
0.00205325
0.00169398
-0.00435292
-0.0161514
-0.0337935
-0.057392
-0.0870831
-0.123035
-0.165456
-0.214586
-0.270689
-0.334043
-0.404933
-0.483638
-0.570413
-0.665447
-0.768826
-0.88049
-1.00021
-1.12754
-1.26181
-1.40209
-1.54712
-1.69528
-1.84463
-1.9929
-2.13753
-2.27572
-2.4045
-2.52081
-2.62161
-2.70401
-2.7654
-2.80358
-2.81691
-2.8044
-2.76577
-2.70143
-2.61229
-2.50022
-2.36775
-2.21793
-2.05417
-1.88015
-1.69964
-1.51636
-1.33382
-1.15519
-0.983126
-0.819919
-0.667155
-0.526552
-0.398892
-0.286332
-0.188599
-0.109732
-0.0460243
-0.00693067
0.0218746
0.0139129
0.0165068
-0.045754
4.11198
3.02291
2.32285
1.88327
1.57915
1.30274
1.01505
0.700285
0.357411
-0.0152805
-0.427987
-0.899362
-1.45085
-2.09887
-2.8496
-3.69613
-4.61771
-5.57922
-6.5344
-7.42205
-8.18253
-8.75626
-9.09889
-9.17922
-8.98838
-8.54805
-7.90286
-7.11651
-6.24733
-5.33475
-4.47193
-3.69025
-3.01979
-2.47626
-2.06426
-1.78074
-1.61803
-1.56616
-1.61434
-1.75173
-1.96815
-2.25463
-2.60393
-3.01062
-3.47095
-3.98219
-4.54142
-5.144
-5.78189
-6.44263
-7.10805
-7.75267
-8.35519
-8.88339
-9.31227
-9.61288
-9.76447
-9.75559
-9.58419
-9.25815
-8.7948
-8.21924
-7.56137
-6.85215
-6.12021
-5.39018
-4.6828
-4.01569
-3.40365
-2.85864
-2.38991
-2.00422
-1.70523