/*--------------------------------*- C++ -*----------------------------------*\
| =========                 |                                                 |
| \\      /  F ield         | OpenFOAM: The Open Source CFD Toolbox           |
|  \\    /   O peration     | Version:  2012                                  |
|   \\  /    A nd           | Website:  www.openfoam.com                      |
|    \\/     M anipulation  |                                                 |
\*---------------------------------------------------------------------------*/
FoamFile
{
    version     2.0;
    format      ascii;
    class       volVectorField;
    location    "0.64";
    object      U;
}
// * * * * * * * * * * * * * * * * * * * * * * * * * * * * * * * * * * * * * //

dimensions      [0 1 -1 0 0 0 0];


internalField   nonuniform List<vector> 
42400
(
(-8.27836 7.24717 4.45773e-17)
(-13.4705 12.7623 6.70352e-17)
(-9.10177 14.192 -6.85721e-17)
(0.705599 11.2315 0)
(11.2562 9.49673 0)
(20.4019 8.80408 1.77331e-19)
(26.6785 9.31567 0)
(30.7218 11.1836 -1.52812e-19)
(33.6564 13.7609 0)
(36.3411 16.6525 -1.68622e-19)
(38.8317 19.6138 -1.7991e-19)
(40.9311 22.6808 1.89858e-19)
(42.6425 25.772 -2.42777e-18)
(44.1328 28.4901 2.47241e-18)
(45.5554 30.2508 1.96008e-19)
(47.0583 30.6385 0)
(48.757 29.6012 0)
(50.5411 27.3586 0)
(52.1194 24.4243 0)
(53.1655 21.4845 0)
(53.4283 19.0714 0)
(52.8465 17.3986 1.90694e-19)
(51.5224 16.4147 3.88632e-18)
(49.6031 15.9644 -6.32455e-20)
(47.1392 15.8995 -3.58112e-18)
(44.0573 16.1091 1.83864e-19)
(40.2441 16.5351 1.74453e-19)
(35.5834 17.1867 -3.16575e-19)
(29.9667 18.1162 0)
(23.4008 19.3171 0)
(16.2066 20.544 4.63133e-18)
(9.10447 21.3023 -4.69022e-18)
(2.97533 21.1659 -6.17478e-20)
(-1.57947 20.0445 -5.55172e-18)
(-4.45268 18.1369 5.60743e-18)
(-5.90509 15.7621 0)
(-6.34248 13.2328 0)
(-6.1558 10.7892 0)
(-5.63589 8.57783 0)
(-4.95842 6.65984 -2.021e-18)
(-4.21296 5.03526 2.02838e-18)
(-3.43714 3.66938 -1.10278e-18)
(-2.63181 2.51619 3.54133e-19)
(-1.78198 1.54 1.21819e-18)
(-0.891376 0.686985 -4.78386e-19)
(0.0172984 -0.0983828 1.88122e-20)
(0.928763 -0.841079 1.54936e-19)
(1.84575 -1.53582 -1.33641e-19)
(2.76991 -2.17255 -5.06654e-20)
(3.69386 -2.74557 3.82982e-19)
(4.60525 -3.24931 -7.37839e-19)
(5.49015 -3.67574 -1.70517e-20)
(6.33188 -4.01721 3.50377e-19)
(7.11144 -4.26807 -3.73047e-20)
(7.81064 -4.42424 0)
(8.4123 -4.48619 0)
(8.90236 -4.46034 0)
(9.27213 -4.35969 -5.64849e-20)
(9.52033 -4.20315 -7.36808e-20)
(9.65406 -4.01328 0)
(9.6878 -3.81288 -1.34819e-18)
(9.64079 -3.62139 1.42936e-18)
(9.53346 -3.45228 1.51208e-18)
(9.3842 -3.31183 -1.48392e-18)
(9.20736 -3.19936 0)
(9.01271 -3.10865 0)
(8.80621 -3.02997 1.58464e-18)
(8.59146 -2.95238 -1.54937e-18)
(8.37127 -2.86558 -2.12421e-19)
(8.14872 -2.76131 0)
(7.92769 -2.63407 0)
(7.713 -2.48151 -1.94477e-19)
(7.51024 -2.30469 -1.87751e-19)
(7.32547 -2.10801 0)
(7.16492 -1.89909 -1.73895e-19)
(7.03433 -1.68811 -1.23532e-18)
(6.93829 -1.48681 1.19833e-18)
(6.8795 -1.3072 3.06154e-19)
(6.86008 -1.15808 1.08542e-18)
(6.8626 -1.06092 1.03921e-18)
(18.636 -13.1859 0)
(50.3064 -23.9152 -1.62223e-16)
(52.1803 -26.9117 1.66786e-16)
(52.991 -18.7196 0)
(47.2084 -16.9793 0)
(36.056 -13.7567 -1.08588e-16)
(19.8672 -8.76566 1.11321e-16)
(4.45319 -3.40093 1.62188e-19)
(-6.54761 1.29121 0)
(-12.9249 5.01373 1.82129e-19)
(-16.065 7.57927 1.95487e-19)
(-17.4141 9.16859 6.37798e-17)
(-17.807 10.0015 -8.19077e-18)
(-17.7029 10.1945 -5.87267e-17)
(-17.4075 9.88902 -4.57934e-17)
(-17.0575 9.22928 4.5908e-17)
(-16.6055 8.28893 0)
(-15.9343 6.98737 -4.32787e-19)
(-15.0434 5.12446 0)
(-14.1127 2.62322 0)
(-13.442 -0.309141 0)
(-13.2701 -3.27147 2.09402e-17)
(-13.6594 -5.92921 -6.75778e-19)
(-14.5298 -8.18157 -2.17978e-17)
(-15.7731 -10.0461 0)
(-17.2766 -11.4492 8.5921e-20)
(-18.9134 -12.2425 -1.81187e-19)
(-20.5285 -12.3463 3.2767e-19)
(-21.9098 -11.8107 1.80338e-17)
(-22.7905 -10.792 -1.82301e-17)
(-22.9205 -9.49877 2.73382e-19)
(-22.1657 -8.13095 2.1552e-19)
(-20.5632 -6.82625 8.58329e-18)
(-18.3012 -5.64858 -8.74849e-18)
(-15.6313 -4.6038 -4.8987e-18)
(-12.8158 -3.68152 4.97761e-18)
(-10.0524 -2.86117 0)
(-7.46719 -2.12792 -1.83013e-20)
(-5.11963 -1.47197 0)
(-3.01655 -0.88798 -1.33755e-20)
(-1.13928 -0.375236 9.21672e-19)
(0.529252 0.0578732 -9.36204e-19)
(2.02019 0.396979 -9.35966e-23)
(3.36512 0.628876 -1.19738e-20)
(4.59316 0.744553 -2.10783e-20)
(5.73952 0.75353 -3.36611e-20)
(6.82176 0.672553 4.19702e-20)
(7.83739 0.51143 1.22821e-18)
(8.77715 0.277215 -1.21991e-18)
(9.63449 -0.0168446 0)
(10.4032 -0.352822 4.42527e-20)
(11.0747 -0.710516 7.84591e-20)
(11.6375 -1.06837 5.2405e-19)
(12.0781 -1.40425 -5.41291e-19)
(12.382 -1.69767 3.30637e-20)
(12.5372 -1.93226 -3.33263e-19)
(12.5375 -2.09867 4.84228e-19)
(12.3872 -2.19696 5.63339e-20)
(12.1038 -2.23741 7.35147e-20)
(11.7181 -2.23801 -1.74406e-18)
(11.2691 -2.2192 1.71695e-18)
(10.7959 -2.19881 -1.03713e-19)
(10.3307 -2.18919 -1.48883e-19)
(9.89529 -2.19624 0)
(9.50019 -2.22 1.73444e-18)
(9.14749 -2.25578 1.37075e-20)
(8.834 -2.29584 -2.22587e-18)
(8.5543 -2.33116 0)
(8.30293 -2.35305 4.6675e-19)
(8.07555 -2.35423 -2.44849e-19)
(7.86929 -2.32942 -1.73361e-18)
(7.68277 -2.27566 1.88343e-18)
(7.51588 -2.19249 1.79553e-18)
(7.36965 -2.08199 -1.77119e-18)
(7.24588 -1.94879 3.72741e-19)
(7.14671 -1.79975 -1.4197e-18)
(7.074 -1.64345 1.01377e-18)
(7.02864 -1.48932 -3.0623e-19)
(7.01061 -1.34603 1.57212e-18)
(7.01351 -1.22278 -1.21294e-18)
(19.3535 -16.3837 -3.29502e-17)
(23.2883 -27.214 5.07871e-19)
(-9.25083 -2.70015 -1.18094e-19)
(-71.1718 38.1587 4.89061e-19)
(-133.572 82.0215 0)
(-178.807 109.654 -5.97621e-17)
(-185.844 106.265 1.05522e-16)
(-154.949 75.0239 -4.53724e-17)
(-110.1 36.0895 1.74879e-17)
(-73.8708 6.52589 -9.96669e-18)
(-51.7319 -10.3425 -7.67335e-18)
(-39.3055 -18.4333 2.71661e-19)
(-32 -21.7126 2.66784e-19)
(-27.3039 -22.5525 -1.45575e-17)
(-23.8945 -22.1742 1.48138e-17)
(-21.0827 -21.2049 6.72165e-19)
(-18.5658 -19.764 2.04111e-17)
(-16.553 -17.9589 3.83727e-19)
(-15.1135 -15.7872 -2.1651e-17)
(-14.2382 -13.3167 1.7486e-19)
(-13.8999 -10.5291 -1.32392e-19)
(-14.0646 -7.4039 -9.63328e-20)
(-14.6201 -4.10219 0)
(-15.2745 -0.983924 3.53507e-19)
(-15.6077 1.55039 -1.48224e-17)
(-15.2946 3.22048 2.70381e-17)
(-14.2591 3.97364 -1.23981e-17)
(-12.6238 4.01986 7.14373e-18)
(-10.5944 3.71347 -7.23632e-18)
(-8.37018 3.36081 -3.27885e-18)
(-6.08626 3.13529 5.18091e-18)
(-3.80698 3.09704 -1.33305e-18)
(-1.56213 3.24092 -7.96667e-19)
(0.619693 3.53571 0)
(2.7269 3.9548 0)
(4.71469 4.47868 -5.15678e-20)
(6.54328 5.0982 0)
(8.19108 5.80224 5.75472e-20)
(9.64802 6.57857 -8.13327e-19)
(10.9105 7.40566 1.51793e-18)
(11.9876 8.26048 -6.3634e-19)
(12.8954 9.12003 0)
(13.6535 9.9568 0)
(14.2836 10.7393 2.48851e-19)
(14.8032 11.4339 -2.04886e-19)
(15.2258 12.0054 -5.56088e-20)
(15.5659 12.4217 0)
(15.8391 12.6553 0)
(16.0561 12.6851 5.49926e-19)
(16.2219 12.497 -5.47402e-19)
(16.3351 12.0856 -4.36381e-20)
(16.3879 11.4564 0)
(16.3637 10.6272 2.87281e-19)
(16.2377 9.62703 -3.07191e-19)
(15.9795 8.49445 1.6245e-18)
(15.5611 7.27572 -1.60375e-18)
(14.966 6.02213 2.33353e-18)
(14.2047 4.78876 -5.05834e-18)
(13.3213 3.62488 5.43268e-18)
(12.3904 2.5677 1.00284e-19)
(11.4948 1.64021 -2.82416e-18)
(10.6946 0.850583 -2.8257e-18)
(10.0167 0.193847 2.92655e-18)
(9.46126 -0.344029 0)
(9.01417 -0.781338 -2.29074e-18)
(8.65706 -1.13596 4.573e-20)
(8.37219 -1.42219 3.02734e-18)
(8.14405 -1.64978 0)
(7.95961 -1.82478 -5.49758e-19)
(7.80823 -1.95093 -1.851e-18)
(7.68159 -2.03099 1.77519e-18)
(7.57359 -2.06768 0)
(7.48022 -2.06431 0)
(7.39936 -2.02508 2.07715e-19)
(7.33038 -1.9552 -1.9885e-19)
(7.27367 -1.86093 -1.17583e-18)
(7.23003 -1.74933 1.91636e-18)
(7.20019 -1.628 0)
(7.18525 -1.50367 -3.31149e-19)
(7.18593 -1.38477 -1.33449e-18)
(-6.6186 3.79557 -1.10773e-16)
(-15.4806 2.75818 1.63458e-16)
(-15.9674 1.84775 -8.29059e-17)
(-30.0664 8.21488 -7.82124e-17)
(-52.6078 28.0633 7.9779e-17)
(-69.4031 45.7076 0)
(-66.4033 50.2481 -1.22989e-16)
(-42.3158 40.1515 1.2538e-16)
(-11.7014 23.7759 -1.04874e-16)
(8.36305 10.6629 1.07435e-16)
(14.8296 4.25501 -9.59082e-17)
(14.8029 2.72039 1.89554e-16)
(12.7069 2.85655 -1.78556e-16)
(9.65116 3.22473 1.67483e-16)
(6.68032 3.62136 -1.5565e-16)
(4.55171 3.37558 7.53921e-17)
(3.23891 2.20629 6.13266e-17)
(2.36735 0.422551 -1.16412e-16)
(1.78753 -1.33958 5.55466e-17)
(1.23764 -2.8865 -1.80667e-19)
(0.629786 -4.20434 -3.69179e-19)
(0.0464231 -5.20405 3.22087e-17)
(-0.417265 -5.8294 -3.21342e-17)
(-0.667883 -6.1064 -5.07881e-20)
(-0.586164 -6.12672 0)
(-0.0696115 -6.00927 -3.74797e-20)
(0.909733 -5.84015 0)
(2.28419 -5.65006 -1.26083e-17)
(3.92489 -5.43314 2.01456e-18)
(5.71369 -5.17154 1.08807e-17)
(7.57103 -4.85249 7.67727e-18)
(9.43413 -4.46665 -7.65341e-18)
(11.2457 -4.00317 5.68864e-20)
(12.958 -3.45161 1.16889e-19)
(14.5368 -2.81496 3.29693e-18)
(15.9468 -2.0945 -3.3993e-18)
(17.1642 -1.29561 0)
(18.1823 -0.43506 -1.35587e-18)
(19.0081 0.4669 1.3215e-18)
(19.6575 1.38733 -4.12581e-20)
(20.148 2.30548 3.8815e-20)
(20.4997 3.20312 0)
(20.7324 4.06506 0)
(20.8629 4.88152 0)
(20.9007 5.64571 -3.3589e-20)
(20.8488 6.3526 1.38882e-18)
(20.6991 6.99653 -1.32983e-18)
(20.441 7.57716 0)
(20.0517 8.09168 0)
(19.5018 8.53593 1.26041e-18)
(18.759 8.90395 -1.19223e-18)
(17.7972 9.18993 7.09276e-19)
(16.6042 9.38965 -6.12064e-19)
(15.1915 9.49841 3.20612e-20)
(13.6011 9.49984 4.67845e-19)
(11.9256 9.36825 -5.75066e-19)
(10.2921 9.05052 2.38608e-18)
(8.86963 8.50343 -2.2252e-18)
(7.7916 7.67989 0)
(7.11613 6.58485 1.85073e-19)
(6.81014 5.30842 3.52771e-18)
(6.76793 3.98538 -1.87208e-19)
(6.86181 2.73653 -7.01055e-18)
(6.99453 1.63921 6.35671e-18)
(7.11648 0.723866 -2.79177e-18)
(7.21344 -0.0130517 -2.91321e-18)
(7.28765 -0.591824 2.17486e-18)
(7.34485 -1.03705 3.3635e-19)
(7.3891 -1.37155 2.45743e-18)
(7.42209 -1.61452 -2.42408e-18)
(7.44424 -1.78159 5.62569e-19)
(7.4558 -1.88549 2.42347e-18)
(7.4575 -1.93681 -2.08545e-18)
(7.45082 -1.94462 0)
(7.43788 -1.91696 1.85753e-18)
(7.42121 -1.86117 -4.58079e-19)
(7.40348 -1.7842 -3.84741e-18)
(7.38738 -1.69245 1.63446e-18)
(7.37599 -1.59152 -1.52632e-18)
(7.37145 -1.49421 1.49256e-18)
(-13.2205 9.93406 2.04134e-17)
(-20.181 20.9875 0)
(-15.7224 16.0418 0)
(-13.9505 20.1066 -8.7917e-20)
(-23.5587 29.2814 0)
(-31.8953 39.8626 0)
(-31.7842 45.4955 0)
(-22.5777 44.5886 7.33841e-19)
(-10.4342 39.5621 0)
(-1.50802 33.9857 -1.63016e-19)
(3.37123 29.9458 -4.3052e-17)
(5.95766 27.707 8.94028e-17)
(7.31677 26.6787 -4.76284e-17)
(7.93322 26.254 0)
(8.02981 25.789 4.89398e-19)
(7.85495 24.7757 -5.38409e-19)
(7.53328 23.1167 0)
(7.07066 20.8662 -3.60533e-17)
(6.53092 18.2153 6.80548e-17)
(6.08178 15.3808 -5.12785e-18)
(5.89096 12.5317 -2.69332e-17)
(6.05305 9.79006 -4.27666e-19)
(6.57687 7.25018 0)
(7.41138 4.97152 1.26277e-17)
(8.4783 2.9771 -1.26985e-17)
(9.69167 1.2603 8.13998e-18)
(10.9579 -0.201173 -8.22382e-18)
(12.1995 -1.43082 -5.56615e-18)
(13.3534 -2.4515 5.4746e-18)
(14.3788 -3.25824 0)
(15.2721 -3.86231 3.50445e-18)
(16.0268 -4.29093 -3.53791e-18)
(16.6256 -4.55976 -1.3804e-19)
(17.0452 -4.6781 2.62366e-18)
(17.2606 -4.65605 -2.76148e-18)
(17.2524 -4.5084 5.62851e-20)
(17.0123 -4.25739 2.57275e-20)
(16.5446 -3.93386 1.8098e-18)
(15.866 -3.57416 -1.81809e-18)
(15.0018 -3.21533 -1.22404e-18)
(13.9823 -2.88968 2.56292e-19)
(12.8387 -2.62082 9.72464e-19)
(11.6012 -2.42126 0)
(10.2991 -2.29192 -8.65888e-21)
(8.96174 -2.22338 -8.61732e-20)
(7.61859 -2.19957 4.52797e-19)
(6.29883 -2.20381 -8.56751e-19)
(5.03581 -2.21665 5.1313e-19)
(3.85462 -2.2242 0)
(2.77921 -2.21416 9.54361e-21)
(1.83301 -2.17888 -8.38596e-19)
(1.04241 -2.11118 7.7816e-19)
(0.429979 -2.00742 -8.26889e-20)
(0.0120383 -1.86663 -3.16379e-19)
(-0.196996 -1.69038 3.1623e-19)
(-0.182902 -1.4807 3.57128e-19)
(0.0507847 -1.25274 1.09735e-18)
(0.498845 -1.0221 -1.45802e-18)
(1.12201 -0.821515 2.37681e-18)
(1.87368 -0.66739 -2.5273e-18)
(2.68854 -0.578291 0)
(3.4985 -0.567926 2.03177e-19)
(4.25378 -0.632773 3.0703e-18)
(4.92757 -0.755816 -2.61382e-18)
(5.51073 -0.914639 -7.66206e-19)
(6.00448 -1.08766 0)
(6.4148 -1.25756 -2.82116e-18)
(6.74955 -1.41222 2.40849e-18)
(7.01712 -1.54409 3.21821e-19)
(7.22589 -1.64915 3.28608e-19)
(7.38398 -1.72586 -6.09744e-19)
(7.4991 -1.7744 2.18714e-20)
(7.57847 -1.79614 2.50209e-18)
(7.62878 -1.79329 -2.15122e-18)
(7.65621 -1.76863 2.64598e-19)
(7.6664 -1.72537 0)
(7.6645 -1.66697 2.27623e-18)
(7.65526 -1.59678 -1.77613e-18)
(7.64294 -1.51898 0)
(7.6298 -1.44766 1.58632e-18)
(-8.78218 5.75329 3.77046e-19)
(-21.1597 11.1556 -1.95399e-17)
(-22.4667 12.2314 2.32191e-17)
(-20.573 7.6613 -4.9256e-17)
(-17.3067 4.51 2.615e-17)
(-13.8797 2.27202 4.69234e-19)
(-9.46153 0.533844 3.24927e-17)
(-3.40673 -1.58202 -3.38669e-17)
(3.74085 -4.50206 -4.66763e-19)
(10.7652 -7.83027 -2.96885e-19)
(17.007 -10.8084 -3.74759e-17)
(22.2091 -12.7434 -3.75821e-17)
(25.6569 -12.9683 7.75713e-17)
(25.9212 -10.6308 -7.31606e-17)
(21.6223 -5.28799 1.42246e-16)
(13.1262 2.11671 -6.99068e-17)
(3.24479 9.4876 0)
(-4.54292 14.9885 0)
(-8.42657 17.9777 4.5348e-17)
(-8.7182 18.9148 -6.01217e-18)
(-6.78198 18.5841 -4.01289e-17)
(-3.93437 17.5974 2.88089e-17)
(-1.01095 16.3652 -5.29354e-17)
(1.60932 15.1078 2.39787e-17)
(3.84972 13.8719 1.47283e-17)
(5.77534 12.6099 -3.73418e-18)
(7.50944 11.2872 -1.14148e-17)
(9.1566 9.88277 8.24591e-20)
(10.7795 8.39931 -7.55327e-20)
(12.3793 6.88552 1.45774e-19)
(13.9138 5.39341 0)
(15.3176 3.97088 1.59336e-18)
(16.5169 2.66447 -2.90994e-18)
(17.444 1.52089 1.31305e-18)
(18.0411 0.580285 0)
(18.2662 -0.128105 -5.9057e-19)
(18.101 -0.59528 5.96169e-19)
(17.5586 -0.837312 0)
(16.6859 -0.892687 0)
(15.5572 -0.815398 -2.78047e-19)
(14.2628 -0.667158 2.62074e-19)
(12.8957 -0.511392 -1.3814e-19)
(11.5416 -0.408336 0)
(10.2703 -0.407483 -6.07305e-20)
(9.12611 -0.535814 -7.95347e-20)
(8.12376 -0.790034 1.51034e-19)
(7.25483 -1.13727 1.10648e-21)
(6.49753 -1.52412 -8.25726e-21)
(5.82917 -1.89301 0)
(5.23624 -2.19716 5.35985e-19)
(4.71601 -2.40846 -1.23357e-18)
(4.27426 -2.51757 6.87938e-19)
(3.91978 -2.52802 1.13088e-20)
(3.65917 -2.45117 9.86665e-19)
(3.49815 -2.30386 7.23289e-20)
(3.44066 -2.10654 -2.25466e-18)
(3.48725 -1.88161 8.8671e-19)
(3.63685 -1.65296 0)
(3.88171 -1.44226 0)
(4.20847 -1.26875 -2.06443e-19)
(4.59637 -1.14533 -2.10534e-19)
(5.01923 -1.07507 0)
(5.45144 -1.05257 -3.04816e-18)
(5.87208 -1.06754 2.98805e-18)
(6.26624 -1.10826 3.54796e-18)
(6.62437 -1.1637 3.97752e-19)
(6.94112 -1.22462 -2.66069e-18)
(7.21411 -1.28382 2.91279e-18)
(7.44307 -1.33613 -2.84496e-18)
(7.62924 -1.37812 2.57924e-20)
(7.77497 -1.40782 -2.28617e-18)
(7.88345 -1.42446 2.23175e-18)
(7.95855 -1.42817 2.0981e-18)
(8.00462 -1.41973 -2.62059e-18)
(8.02633 -1.40037 1.91225e-18)
(8.02847 -1.37162 -2.11338e-18)
(8.01578 -1.33507 1.972e-18)
(7.99283 -1.29223 -3.78438e-18)
(7.96341 -1.24609 3.76348e-20)
(7.92903 -1.20735 3.64943e-20)
(-1.37941 2.1878 2.53455e-17)
(-9.34498 9.75982 2.21195e-19)
(-18.5511 16.9404 -3.47338e-17)
(-23.0256 21.5146 6.80959e-17)
(-23.5285 21.8932 -3.35246e-17)
(-21.8473 21.0725 2.8386e-17)
(-19.2933 20.0209 -2.13938e-18)
(-16.6829 18.9306 -2.74577e-17)
(-14.5655 17.7049 2.30734e-17)
(-13.2768 16.2803 -2.26925e-17)
(-13.0038 14.675 1.78149e-17)
(-13.9114 12.9599 -1.82368e-17)
(-16.2668 11.3595 1.24114e-17)
(-20.3982 10.2832 -1.22762e-17)
(-26.3406 10.123 3.42181e-19)
(-33.2062 10.8066 2.99192e-19)
(-38.8739 11.4446 4.55533e-18)
(-41.0124 10.806 -4.6406e-18)
(-39.033 8.61778 -3.78905e-19)
(-34.4946 5.82584 -1.42058e-19)
(-29.3894 3.2636 3.14595e-19)
(-24.7241 1.05317 -5.01167e-19)
(-20.5508 -0.914898 0)
(-16.7015 -2.58555 2.26403e-20)
(-13.018 -3.8932 0)
(-9.4166 -4.84822 0)
(-5.84334 -5.49049 -3.43915e-20)
(-2.28677 -5.87015 -3.89769e-18)
(1.20838 -6.03068 3.98416e-18)
(4.54233 -6.0058 5.82051e-18)
(7.58272 -5.82282 -6.02567e-18)
(10.2068 -5.51079 1.46005e-19)
(12.3245 -5.11218 -1.47387e-19)
(13.8922 -4.67017 0)
(14.9012 -4.20476 -2.01489e-19)
(15.3645 -3.70829 0)
(15.3143 -3.16832 0)
(14.8073 -2.58982 -1.58146e-19)
(13.9253 -1.99395 0)
(12.7613 -1.40307 0)
(11.3961 -0.831098 4.03308e-18)
(9.89156 -0.281275 -3.93106e-18)
(8.30183 0.243526 0)
(6.69687 0.728161 0)
(5.17428 1.13517 0)
(3.84368 1.40287 -3.16628e-22)
(2.80025 1.4847 -1.10509e-21)
(2.09537 1.3743 -3.24685e-19)
(1.72187 1.10609 3.39948e-19)
(1.62555 0.741794 -8.78428e-19)
(1.72863 0.343442 1.01541e-18)
(1.95381 -0.0424144 -1.58593e-19)
(2.24627 -0.38074 -1.08194e-19)
(2.57386 -0.649168 0)
(2.91967 -0.842168 0)
(3.27742 -0.966068 1.39152e-18)
(3.64671 -1.03324 2.6546e-19)
(4.02956 -1.05795 -1.6758e-18)
(4.42739 -1.05432 1.78459e-18)
(4.83908 -1.03484 -1.80175e-18)
(5.2602 -1.00925 -3.416e-18)
(5.68318 -0.984147 -4.84047e-20)
(6.09854 -0.963164 6.88443e-18)
(6.49634 -0.947565 -3.50941e-18)
(6.86744 -0.937033 -2.30013e-19)
(7.20431 -0.930386 -4.04039e-19)
(7.50145 -0.92613 -3.25532e-18)
(7.75549 -0.922819 6.3307e-18)
(7.96502 -0.919282 -3.07501e-18)
(8.13037 -0.91473 -3.5426e-19)
(8.25331 -0.908793 -2.80266e-18)
(8.33687 -0.901483 3.08187e-18)
(8.38508 -0.893112 0)
(8.40268 -0.884159 2.98276e-19)
(8.39491 -0.875133 0)
(8.36714 -0.866438 -2.2168e-18)
(8.32461 -0.858243 4.57374e-20)
(8.27219 -0.850417 2.04034e-18)
(8.21361 -0.843994 -1.39874e-18)
(8.15034 -0.84412 -4.25831e-19)
(-0.552725 -0.180314 2.54388e-17)
(-13.227 2.08817 -3.82576e-17)
(-31.3969 11.5351 -2.01447e-19)
(-45.1494 14.3937 -3.46858e-17)
(-45.1402 12.2606 3.55509e-17)
(-38.2102 6.26032 -3.23073e-17)
(-31.5739 0.775975 6.38881e-17)
(-27.9215 -2.5806 -3.16328e-17)
(-26.7548 -4.11392 2.86954e-17)
(-27.1232 -4.4665 -2.92148e-17)
(-28.4089 -4.11436 0)
(-30.1816 -3.38515 -8.9378e-20)
(-32.019 -2.54691 1.26343e-19)
(-33.4051 -1.86624 0)
(-33.6884 -1.63096 0)
(-32.1961 -2.14584 0)
(-28.59 -3.60951 0)
(-23.3746 -5.84781 1.81248e-20)
(-17.9524 -8.24578 0)
(-13.5698 -10.3069 8.29495e-18)
(-10.2737 -12.1071 -8.18174e-18)
(-7.34124 -13.9482 -8.21379e-18)
(-4.20978 -15.9244 8.41544e-18)
(-0.832286 -17.8504 2.56379e-18)
(2.63768 -19.5489 -2.4171e-18)
(5.99901 -20.9423 -1.20242e-18)
(9.06513 -21.983 1.25342e-18)
(11.6416 -22.6434 -3.33493e-18)
(13.5172 -22.8875 -6.76728e-19)
(14.5149 -22.6877 4.26706e-18)
(14.6071 -22.0396 0)
(13.9982 -20.9926 3.04302e-19)
(13.046 -19.6694 2.5459e-19)
(12.071 -18.1986 0)
(11.1863 -16.6527 2.05534e-19)
(10.3016 -15.0559 0)
(9.27823 -13.4333 0)
(8.0685 -11.8421 3.19644e-18)
(6.73848 -10.3547 -5.53531e-18)
(5.40271 -9.01907 2.49165e-18)
(4.16103 -7.8465 1.42465e-18)
(3.07989 -6.82212 -1.39217e-18)
(2.19438 -5.92182 5.71845e-20)
(1.51668 -5.12678 0)
(1.04985 -4.42604 -6.65625e-19)
(0.798782 -3.80845 5.21867e-19)
(0.759879 -3.26717 0)
(0.90844 -2.81146 0)
(1.20618 -2.44666 1.57551e-18)
(1.60802 -2.16817 -1.91732e-18)
(2.07151 -1.95886 -2.32206e-18)
(2.56167 -1.79469 2.13818e-18)
(3.0515 -1.66034 2.31956e-18)
(3.52413 -1.54478 -4.44589e-18)
(3.9738 -1.44004 2.23204e-18)
(4.40233 -1.34067 5.81959e-19)
(4.81545 -1.24379 0)
(5.21933 -1.14872 -3.2657e-19)
(5.61814 -1.05592 1.93113e-18)
(6.01276 -0.966352 -4.1818e-18)
(6.40067 -0.881027 2.1806e-18)
(6.7767 -0.80075 0)
(7.13427 -0.726061 2.41352e-19)
(7.46655 -0.657245 0)
(7.76741 -0.594375 2.29939e-19)
(8.0319 -0.537387 2.50095e-19)
(8.25647 -0.486155 4.79091e-19)
(8.43906 -0.44059 3.46099e-18)
(8.579 -0.400737 -2.94286e-18)
(8.67696 -0.366847 4.17061e-19)
(8.73494 -0.339408 3.0298e-18)
(8.75619 -0.319118 -3.68078e-18)
(8.74508 -0.306765 2.75051e-18)
(8.7069 -0.303058 -2.67487e-18)
(8.64756 -0.308404 2.80578e-18)
(8.57315 -0.322703 -2.1051e-18)
(8.48956 -0.345164 -2.22993e-18)
(8.40199 -0.374265 2.16171e-18)
(8.31413 -0.408917 -4.91078e-19)
(8.22732 -0.448794 4.67536e-19)
(-14.4298 6.78639 -1.03196e-17)
(-32.2811 14.3974 -1.47096e-17)
(-42.0785 18.1331 2.94841e-17)
(-47.0162 19.6889 -2.70508e-17)
(-44.9605 18.6568 1.29217e-17)
(-35.9708 14.2296 1.66268e-19)
(-23.9064 7.93675 -6.24452e-18)
(-12.393 1.48324 1.02606e-17)
(-3.20514 -3.93982 -2.92989e-18)
(3.20652 -7.961 -1.39802e-18)
(7.01788 -10.6169 -3.27873e-19)
(8.60733 -12.0599 -6.5215e-18)
(8.37751 -12.4591 6.68971e-18)
(6.73664 -11.9938 -1.16314e-17)
(4.09635 -10.8764 1.18605e-17)
(0.802309 -9.35463 1.52177e-17)
(-2.90343 -7.68014 -1.55076e-17)
(-6.76982 -6.13688 -1.81089e-20)
(-10.2879 -5.13346 0)
(-12.6829 -5.14831 -1.64258e-17)
(-13.2487 -6.40915 1.65396e-17)
(-11.6133 -9.0033 2.82113e-19)
(-8.02607 -12.6411 1.46275e-17)
(-3.26015 -16.7906 -1.51006e-17)
(1.77932 -20.9192 -7.2266e-21)
(6.39096 -24.6246 0)
(10.2175 -27.6658 -1.5297e-19)
(13.1939 -29.978 -3.40421e-19)
(15.4267 -31.6069 -2.09332e-17)
(17.1074 -32.6278 2.12966e-17)
(18.4847 -33.0486 1.59481e-17)
(19.8195 -32.7722 -1.63999e-17)
(21.1855 -31.6465 -2.60819e-19)
(22.3222 -29.6097 -6.11615e-18)
(22.7442 -26.8004 9.32135e-18)
(22.1205 -23.4981 -3.12538e-18)
(20.5211 -20.0077 1.03747e-18)
(18.3148 -16.6197 -1.24179e-18)
(15.9244 -13.5713 -2.29226e-19)
(13.6406 -10.9869 2.31914e-19)
(11.5833 -8.86529 -3.5996e-20)
(9.7745 -7.12899 4.21838e-18)
(8.20778 -5.69165 4.89617e-21)
(6.87951 -4.49313 -4.28626e-18)
(5.79335 -3.49785 4.38523e-18)
(4.95454 -2.68368 -4.2355e-18)
(4.36144 -2.03491 0)
(3.99887 -1.53755 -4.29293e-18)
(3.83786 -1.17597 4.13424e-18)
(3.84062 -0.930252 -3.59046e-18)
(3.96625 -0.776736 2.60704e-19)
(4.17903 -0.690681 7.97229e-20)
(4.45138 -0.650518 7.67414e-20)
(4.76378 -0.636851 7.41324e-20)
(5.10425 -0.634131 3.31234e-18)
(5.46571 -0.631335 -1.16919e-19)
(5.84298 -0.621432 0)
(6.23046 -0.600448 3.24924e-18)
(6.62107 -0.566749 -2.56347e-18)
(7.00635 -0.520495 0)
(7.37727 -0.463134 2.95947e-18)
(7.72521 -0.396941 -2.22038e-18)
(8.04271 -0.32462 0)
(8.32385 -0.248959 3.07074e-19)
(8.56435 -0.172593 0)
(8.76147 -0.0978611 3.92332e-18)
(8.9138 -0.0267743 -8.27703e-18)
(9.02116 0.0389258 3.88834e-18)
(9.08443 0.0976528 -4.37277e-19)
(9.10563 0.147844 -4.16938e-19)
(9.08795 0.187864 3.24989e-18)
(9.03584 0.215987 -2.78824e-18)
(8.95499 0.230499 3.7896e-19)
(8.85218 0.229914 3.58211e-19)
(8.73489 0.213284 -6.61175e-19)
(8.61078 0.180539 -3.05633e-19)
(8.48698 0.132781 -2.64049e-18)
(8.36938 0.072391 5.98426e-20)
(8.26168 0.00217766 2.4065e-18)
(8.16455 -0.072472 5.08136e-19)
(-3.01339 3.84853 0)
(-9.53951 10.7311 -1.3584e-19)
(-14.7948 18.3428 -4.75802e-20)
(-17.3239 24.0745 -5.03924e-17)
(-15.7244 26.8266 1.01799e-16)
(-12.2833 27.5366 -1.01092e-16)
(-9.65599 27.671 5.06525e-17)
(-8.75491 28.3074 0)
(-9.32231 29.8128 3.32055e-19)
(-11.0273 32.0389 -4.01407e-17)
(-13.601 34.715 4.13161e-17)
(-16.7404 37.6126 3.27455e-17)
(-20.0818 40.5429 -6.20773e-17)
(-23.2428 43.3429 4.7501e-18)
(-25.8973 45.9048 4.5189e-18)
(-27.8454 48.2001 2.09694e-17)
(-29.0298 50.2397 -1.04248e-19)
(-29.4778 52.0254 -1.00989e-17)
(-29.2148 53.5381 1.04109e-17)
(-28.2368 54.7016 1.76712e-19)
(-26.6084 55.5475 -1.4164e-19)
(-24.3876 55.9562 -5.37625e-19)
(-21.5866 55.7584 -5.18562e-19)
(-18.1731 54.8083 1.18829e-18)
(-14.1651 53.0398 -7.11005e-19)
(-9.70629 50.444 -3.38665e-20)
(-5.0671 47.11 3.55407e-18)
(-0.665949 43.229 -7.56335e-18)
(3.1688 38.932 9.05602e-18)
(6.68526 34.1069 -5.05618e-18)
(11.0467 28.3149 0)
(17.5983 21.2445 1.11807e-17)
(25.8911 13.4086 -2.251e-17)
(33.3052 6.17516 1.12434e-17)
(37.0997 0.766115 -1.1568e-17)
(36.6439 -2.56057 1.18696e-17)
(33.1606 -4.23895 1.98419e-19)
(28.2192 -4.7898 0)
(23.0565 -4.64563 -1.00605e-19)
(18.4937 -4.20942 1.02674e-17)
(14.86 -3.77395 -1.08803e-17)
(12.0841 -3.44533 3.31046e-19)
(9.94689 -3.20138 -3.13877e-19)
(8.26473 -2.98842 0)
(6.93403 -2.77256 0)
(5.90486 -2.54614 -6.22942e-18)
(5.14931 -2.318 7.19174e-18)
(4.64271 -2.10091 3.16497e-19)
(4.35567 -1.9043 5.6088e-18)
(4.2561 -1.73344 -1.12724e-17)
(4.31245 -1.58845 4.91986e-18)
(4.49557 -1.46471 0)
(4.77917 -1.35659 -4.86441e-18)
(5.13919 -1.25785 4.50532e-18)
(5.55348 -1.16272 0)
(6.00132 -1.06647 -4.12856e-18)
(6.46338 -0.965817 3.85759e-18)
(6.92216 -0.859193 -3.5228e-18)
(7.36253 -0.746555 3.02274e-18)
(7.77231 -0.629039 0)
(8.1424 -0.508548 -7.57165e-19)
(8.46676 -0.387348 -3.39175e-19)
(8.74195 -0.267712 2.69527e-18)
(8.96662 -0.151666 -4.01189e-19)
(9.14095 -0.0408354 -2.49996e-18)
(9.26601 0.0635827 0)
(9.34344 0.160731 -2.62884e-19)
(9.37521 0.249911 0)
(9.36361 0.330341 0)
(9.31159 0.400932 3.63317e-18)
(9.22301 0.46012 -3.54228e-18)
(9.10313 0.505842 -2.82178e-18)
(8.9587 0.535675 -2.83848e-19)
(8.79799 0.547163 2.61535e-18)
(8.6303 0.538285 3.06112e-18)
(8.46521 0.508009 -2.64365e-18)
(8.31152 0.456794 3.01547e-19)
(8.17617 0.386857 2.2814e-18)
(8.06291 0.301953 -4.90145e-18)
(7.97123 0.211375 1.58552e-18)
(8.88739 -3.4979 -5.14874e-17)
(12.0723 -6.2528 3.85347e-17)
(-3.89978 4.02268 3.7681e-17)
(-37.342 18.206 -3.85554e-17)
(-67.3877 32.1354 5.5004e-20)
(-78.9758 37.2206 5.55494e-20)
(-71.5602 34.3059 0)
(-56.373 28.3671 -3.55118e-17)
(-42.3212 22.7105 3.63668e-17)
(-31.9301 18.2824 0)
(-24.69 14.9418 3.33063e-17)
(-19.5097 12.3812 -6.63282e-17)
(-15.4936 10.3739 1.51369e-18)
(-12.0764 8.78613 6.24159e-17)
(-9.00944 7.5518 -3.09486e-17)
(-6.32464 6.64706 -8.28136e-20)
(-4.2618 6.04754 -2.15979e-20)
(-3.0111 5.66817 0)
(-2.29161 5.34408 -2.45992e-17)
(-1.27232 4.96675 2.47946e-17)
(0.810606 4.71849 3.29806e-20)
(4.39056 5.00839 -1.62137e-17)
(9.82013 6.02481 1.66117e-17)
(16.9615 7.62038 -7.07035e-18)
(24.5947 9.67074 7.22755e-18)
(31.1111 12.0696 3.2555e-20)
(35.8174 14.6694 5.68929e-18)
(38.9609 17.4202 2.94186e-18)
(40.9688 20.4378 -1.94082e-17)
(41.8805 23.8045 -1.2084e-18)
(41.5387 27.2708 1.18702e-17)
(40.1146 30.3936 1.0755e-17)
(37.7486 32.4231 -1.1149e-17)
(34.3491 32.7877 0)
(29.9446 31.6349 -4.68744e-20)
(25.0362 29.3635 -1.47612e-19)
(20.5578 26.2374 0)
(17.157 22.5676 -7.95027e-18)
(14.6284 18.8816 8.35367e-18)
(12.3418 15.6292 3.40261e-19)
(9.98704 12.8716 0)
(7.74266 10.4428 -3.28284e-19)
(5.92708 8.22616 -1.08537e-17)
(4.68421 6.21134 1.09347e-17)
(3.95591 4.43363 0)
(3.61001 2.91975 8.17211e-18)
(3.51303 1.65586 -9.37596e-18)
(3.58968 0.636671 0)
(3.80008 -0.152171 0)
(4.11315 -0.743934 3.81969e-19)
(4.50543 -1.17029 3.58411e-19)
(4.95584 -1.46035 0)
(5.44459 -1.63991 -5.05619e-18)
(5.95296 -1.73093 5.32469e-18)
(6.46367 -1.75167 4.74367e-18)
(6.96128 -1.71726 -5.1517e-19)
(7.43258 -1.64036 -8.60765e-18)
(7.86695 -1.53164 8.09584e-18)
(8.25653 -1.40008 2.72796e-19)
(8.59615 -1.25339 -3.20972e-18)
(8.88318 -1.09811 4.01466e-19)
(9.11718 -0.939623 0)
(9.29943 -0.782196 0)
(9.43225 -0.628915 -2.73011e-18)
(9.51841 -0.481757 3.00632e-18)
(9.56056 -0.34174 0)
(9.56089 -0.209204 -2.90858e-19)
(9.52113 -0.0842025 0)
(9.44285 0.033081 -2.00186e-18)
(9.32812 0.141951 1.95342e-18)
(9.18018 0.240941 -4.52455e-19)
(9.00418 0.327737 -3.75069e-18)
(8.80749 0.399312 3.24432e-18)
(8.5997 0.452285 -3.76373e-19)
(8.39199 0.483458 0)
(8.19607 0.49048 0)
(8.0227 0.472506 0)
(7.88004 0.430663 2.62135e-18)
(7.77211 0.368746 2.11165e-19)
(7.69682 0.29662 -4.20729e-18)
(23.0328 -7.2612 -5.37685e-18)
(66.1077 -24.485 -6.76737e-18)
(87.9691 -28.4934 6.93875e-18)
(75.0964 -21.8694 -5.36814e-18)
(54.425 -9.17173 5.29763e-18)
(46.9329 -0.830467 -2.02125e-19)
(48.8095 4.07653 -2.05387e-19)
(49.6887 8.51768 0)
(46.983 12.8978 -1.4329e-19)
(42.6618 16.6608 0)
(38.5167 19.5625 -1.90262e-19)
(35.299 21.6178 -6.19773e-18)
(33.0836 22.9468 6.12621e-18)
(31.5154 23.7414 9.50658e-18)
(29.8387 24.246 -9.3664e-18)
(26.8564 24.7217 1.14331e-17)
(21.3604 25.3249 -1.20825e-17)
(14.0789 25.6815 0)
(9.444 24.6746 0)
(12.3407 21.8607 0)
(22.5231 18.7125 -7.38372e-18)
(35.633 16.6628 1.34438e-17)
(45.5346 15.8863 -1.86915e-18)
(46.6739 16.1035 -6.62108e-18)
(40.1927 16.9186 2.76961e-18)
(31.7246 17.5641 0)
(24.6165 17.0886 1.42032e-19)
(19.1319 15.4272 0)
(14.5742 13.122 -7.0133e-18)
(10.395 10.6033 6.92924e-18)
(6.42052 8.16149 1.23422e-19)
(2.27218 5.84585 0)
(-2.27467 3.76526 5.8644e-18)
(-6.98304 2.05306 -9.91845e-18)
(-11.2525 0.723039 4.26008e-18)
(-14.2645 -0.349893 -1.56619e-18)
(-15.4747 -1.26023 2.13305e-18)
(-15.1051 -2.03747 -5.58762e-19)
(-13.9039 -2.69385 0)
(-12.4585 -3.19802 0)
(-10.9499 -3.5321 0)
(-9.35596 -3.72048 -2.43439e-18)
(-7.6654 -3.81111 8.12149e-18)
(-5.93411 -3.85354 -5.42994e-18)
(-4.24754 -3.88678 0)
(-2.65635 -3.91885 6.4492e-18)
(-1.19418 -3.94077 -6.19447e-18)
(0.137414 -3.94857 -6.19922e-18)
(1.34524 -3.94335 4.61934e-19)
(2.44117 -3.92274 1.29537e-19)
(3.44052 -3.88211 1.59794e-19)
(4.35508 -3.81861 5.6886e-18)
(5.19279 -3.73008 0)
(5.95813 -3.61531 0)
(6.65271 -3.47433 4.48009e-18)
(7.27613 -3.3084 -4.7189e-18)
(7.82692 -3.12006 0)
(8.3035 -2.91306 0)
(8.70516 -2.69218 -2.38835e-19)
(9.03276 -2.46282 -4.52668e-19)
(9.28909 -2.23074 0)
(9.47889 -2.00139 0)
(9.6083 -1.77934 3.74059e-19)
(9.68409 -1.56777 3.51259e-19)
(9.7126 -1.36827 -2.94303e-18)
(9.69892 -1.18092 5.00931e-18)
(9.64649 -1.00465 1.92846e-19)
(9.55719 -0.837891 -4.40617e-18)
(9.43211 -0.67918 4.39005e-18)
(9.2726 -0.527784 -3.87975e-18)
(9.0815 -0.384069 7.46181e-19)
(8.86408 -0.249636 1.74154e-18)
(8.62856 -0.127198 -3.16224e-18)
(8.38596 -0.0202307 9.90706e-20)
(8.14933 0.0675563 5.69444e-18)
(7.93231 0.132876 -3.05475e-18)
(7.74731 0.173546 0)
(7.60342 0.18918 -5.92119e-19)
(7.50467 0.182532 0)
(7.4479 0.159825 2.0912e-18)
(18.3014 -4.02846 0)
(44.3418 -12.5702 5.91077e-20)
(55.4948 -15.9782 -5.62649e-20)
(53.8213 -17.1861 -5.53164e-17)
(49.9593 -15.9136 1.11345e-16)
(46.5542 -14.2155 -5.56807e-17)
(39.963 -11.4044 1.99758e-19)
(28.4124 -7.6225 0)
(14.8842 -5.34217 0)
(2.59247 -5.60314 0)
(-7.19976 -7.03376 1.85311e-19)
(-14.6826 -8.27528 1.05189e-19)
(-20.6883 -8.8992 0)
(-26.262 -8.86378 4.41263e-20)
(-32.7292 -8.03625 -2.49034e-19)
(-42.4174 -5.982 2.40559e-17)
(-57.4866 -1.80591 -2.40171e-17)
(-71.107 2.99407 9.49303e-21)
(-65.7047 2.13005 0)
(-37.7034 -6.58558 -4.40764e-20)
(-7.92263 -16.1012 -1.3822e-19)
(6.50689 -20.9934 7.08407e-18)
(6.72043 -22.9452 -9.75416e-19)
(1.30492 -24.2648 -6.2804e-18)
(-3.56891 -25.0292 -1.23547e-19)
(-6.54412 -25.3329 -2.46635e-20)
(-8.51552 -25.442 -6.06377e-18)
(-10.0803 -25.1639 6.06747e-18)
(-11.3053 -24.4387 -1.3024e-20)
(-12.0949 -23.5484 2.09304e-19)
(-12.3944 -22.6581 2.06936e-19)
(-12.2946 -21.7813 -3.80214e-18)
(-11.8379 -20.8283 3.83551e-18)