/*--------------------------------*- C++ -*----------------------------------*\
| =========                 |                                                 |
| \\      /  F ield         | OpenFOAM: The Open Source CFD Toolbox           |
|  \\    /   O peration     | Version:  2012                                  |
|   \\  /    A nd           | Website:  www.openfoam.com                      |
|    \\/     M anipulation  |                                                 |
\*---------------------------------------------------------------------------*/
FoamFile
{
    version     2.0;
    format      ascii;
    class       volScalarField;
    location    "0.42";
    object      p;
}
// * * * * * * * * * * * * * * * * * * * * * * * * * * * * * * * * * * * * * //

dimensions      [0 2 -2 0 0 0 0];


internalField   nonuniform List<scalar> 
42400
(
3521.58
3475.99
3432.24
3387.87
3322.64
3242.15
3100.83
2845.76
2474.48
2031.69
1570.31
1133.65
755.798
457.323
240.594
89.1664
-21.798
-114.14
-200.825
-284.694
-362.967
-431.739
-487.502
-527.943
-552.238
-562.128
-560.775
-551.66
-537.829
-521.483
-504.023
-486.824
-470.717
-456.216
-442.925
-429.581
-414.573
-396.578
-374.974
-349.986
-322.499
-293.761
-265.113
-237.798
-212.836
-190.869
-172.044
-156.032
-142.225
-129.997
-118.882
-108.606
-98.8643
-89.5448
-80.694
-72.3445
-64.5428
-57.3378
-50.7637
-44.8324
-39.5323
-34.8332
-30.693
-27.0638
-23.8978
-21.1503
-18.7823
-16.7606
-15.0583
-13.6547
-12.5345
-11.6849
-11.1004
-10.7773
-10.7157
-10.9211
-11.4065
-12.1963
-13.3444
-15.0495
-13514.8
-12960.8
-12313.1
-11717.4
-11190.8
-10782.4
-10434.6
-10068.5
-9639.22
-9154.64
-8645.82
-8124.31
-7570
-6955.15
-6272.01
-5539.8
-4797.62
-4095.13
-3481.18
-2989.45
-2627.53
-2377.39
-2206.54
-2080.81
-1972.44
-1862.8
-1741.78
-1605.96
-1456.82
-1299.44
-1141.16
-989.348
-849.559
-724.949
-616.937
-525.435
-449.227
-386.388
-334.826
-292.637
-258.251
-230.464
-208.368
-191.112
-178.403
-169.389
-162.67
-156.489
-149.315
-140.461
-130.167
-119.219
-108.29
-97.8914
-88.1626
-79.2153
-71.0517
-63.6903
-57.1518
-51.4188
-46.4469
-42.1671
-38.4955
-35.3461
-32.6401
-30.3109
-28.3044
-26.5782
-25.0996
-23.8483
-22.8025
-21.9497
-21.2834
-20.8025
-20.5121
-20.424
-20.5551
-20.9238
-21.559
-22.5864
7064.46
6918.47
6655.74
6176.01
5443.75
4542.4
3621.62
2820.35
2190.25
1691.27
1252.41
828.876
411.478
12.2099
-353.158
-671.588
-931.07
-1120.89
-1232.62
-1262.51
-1215.61
-1107.29
-959.55
-794.323
-628.953
-475.08
-339.408
-225.659
-137.148
-77.989
-51.0125
-53.4171
-77.4583
-111.55
-146.225
-175.007
-195.306
-207.193
-211.859
-210.711
-205.202
-196.612
-186.243
-176.005
-166.344
-157.934
-151.127
-145.718
-141.166
-136.914
-132.535
-127.549
-121.592
-114.191
-105.17
-94.8176
-84.0697
-73.8108
-64.8436
-57.3994
-51.5077
-46.9795
-43.525
-40.8781
-38.8314
-37.2298
-35.9608
-34.9369
-34.021
-33.2321
-32.5282
-31.8782
-31.2713
-30.7127
-30.2215
-29.828
-29.5699
-29.4844
-29.6095
-29.9921
-989.288
-987.4
-971.648
-879.427
-680.387
-400.876
-138.324
24.6963
66.1224
10.3808
-107.96
-261.952
-425.558
-567.989
-653.466
-642.683
-503.775
-232.89
129.14
501.413
805.53
1003.77
1099.74
1115.55
1073.39
990.524
880.598
755.104
622.106
484.729
343.295
199.239
59.9718
-65.5329
-167.819
-243.566
-293.446
-320.874
-330.488
-326.946
-314.663
-297.973
-279.666
-260.813
-243.088
-227.516
-213.894
-200.829
-186.243
-168.484
-147.295
-123.911
-100.366
-78.6727
-60.2435
-45.7999
-35.3825
-28.7773
-25.3516
-24.4695
-25.3495
-27.2588
-29.622
-32.0362
-34.2583
-36.1647
-37.7026
-38.8673
-39.7626
-40.3005
-40.5224
-40.4722
-40.1941
-39.7425
-39.1842
-38.5947
-38.0525
-37.6288
-37.3914
-37.2846
-8486.26
-8322.34
-8104.44
-7810.84
-7445.71
-7062.31
-6715.74
-6447.31
-6283.89
-6238.75
-6316.21
-6513.24
-6811.38
-7169.36
-7525.05
-7801.62
-7919.84
-7826.58
-7531.31
-7092.44
-6563.98
-5969.26
-5324.32
-4655.47
-3991.72
-3354.24
-2756.64
-2208.6
-1718.72
-1295.07
-941.57
-657.373
-437.817
-274.259
-158.811
-84.1055
-43.8051
-30.9369
-37.4902
-55.5225
-78.2902
-100.69
-119.851
-134.112
-143.462
-147.663
-146.683
-140.709
-130.275
-116.351
-100.295
-83.7013
-68.1677
-55.0041
-44.9674
-38.1581
-34.1252
-32.1554
-31.5686
-31.8931
-32.8562
-34.2938
-36.0728
-38.062
-40.1308
-42.1571
-44.0324
-45.6663
-46.9644
-47.9084
-48.4719
-48.6576
-48.5003
-48.0632
-47.4327
-46.7099
-45.9978
-45.388
-44.9505
-44.5972
3759.26
3423.06
3021.63
2587.67
2028.44
1397.98
726.354
55.3502
-574.183
-1133.94
-1609.91
-1996.47
-2287.82
-2479.17
-2581.07
-2632.76
-2686.6
-2772.62
-2866.36
-2901.83
-2822.01
-2616.35
-2315.26
-1965.66
-1608.42
-1268.91
-958.56
-680.364
-433.569
-218.53
-38.5221
102.869
203.362
263.889
288.532
283.813
258.042
219.814
176.398
133.223
93.8654
60.1659
32.8401
10.8827
-5.90761
-18.3189
-26.9753
-32.2476
-34.5767
-34.5341
-32.7904
-30.0725
-27.094
-24.4689
-22.6374
-21.8301
-22.0829
-23.2927
-25.2806
-27.844
-30.8058
-34.0106
-37.3251
-40.6321
-43.8254
-46.807
-49.4876
-51.7878
-53.6428
-55.0115
-55.878
-56.259
-56.205
-55.7972
-55.14
-54.3484
-53.5336
-52.7871
-52.1466
-51.6391
3440.4
3820.93
4354.18
4901.77
5463.6
6026.91
6587.28
7052.51
7325.87
7370.47
7206.93
6898.33
6530.4
6160.41
5775.92
5324.86
4786.98
4197.55
3613.74
3079.82
2618.44
2235.68
1921.02
1660.97
1439.04
1239.98
1052.08
868.024
685.615
509.048
346.192
205.749
94.7095
17.5129
-24.3294
-34.3419
-20.3906
6.26482
34.4389
56.9263
71.4067
78.4411
79.3118
75.9394
69.9083
62.4337
54.4151
46.4468
38.8631
31.8028
25.2685
19.1798
13.4179
7.86068
2.40709
-3.00963
-8.41985
-13.8233
-19.1976
-24.5067
-29.7055
-34.7449
-39.5708
-44.1247
-48.3437
-52.1626
-55.5177
-58.3499
-60.6143
-62.2857
-63.3651
-63.8849
-63.9086
-63.5265
-62.8451
-61.9748
-61.0158
-60.0418
-59.0999
-58.3181
7218.31
7072.81
6912.96
6730.46
6517.68
6311.46
6086.07
5777.33
5339.55
4767.27
4067.4
3235.5
2297
1390.55
711.435
311.972
77.6787
-91.8662
-206.951
-252.882
-226.542
-131.5
21.3801
212.986
421.173
623.549
802.956
950.384
1063.64
1142.09
1184.59
1189.15
1154.73
1083.91
983.285
863.614
737.736
617.938
512.382
424.464
353.162
295.851
249.443
211.268
179.312
152.142
128.753
108.419
90.5856
74.8086
60.7176
48.0043
36.418
25.7589
15.8739
6.648
-2.00361
-10.1421
-17.8096
-25.0327
-31.8236
-38.181
-44.0912
-49.5286
-54.4583
-58.8392
-62.6284
-65.7886
-68.2935
-70.1351
-71.3303
-71.9235
-71.9853
-71.6042
-70.8736
-69.8795
-68.6929
-67.3713
-65.9987
-64.6895
-5855.21
-5623.42
-5336.54
-5018.85
-4656.45
-4292.76
-3924.65
-3544.57
-3153.08
-2773.53
-2451.6
-2224.82
-2088.43
-1977.63
-1806.31
-1553.35
-1285.3
-1080.66
-967.144
-931.039
-948.123
-995.514
-1051.81
-1097.04
-1117.15
-1103.18
-1054.11
-970.126
-851.465
-701.709
-529.218
-346.163
-167.188
-6.12269
126.285
223.989
286.588
318.944
327.896
319.946
301.094
275.708
247.12
217.752
189.198
162.414
137.87
115.706
95.8501
78.1049
62.2144
47.9104
34.9534
23.1037
12.1931
2.08009
-7.34285
-16.1529
-24.4024
-32.1235
-39.3312
-46.026
-52.1964
-57.8209
-62.8707
-67.312
-71.1116
-74.2418
-76.6867
-78.4486
-79.5546
-80.0586
-80.0363
-79.571
-78.7352
-77.5788
-76.1337
-74.4396
-72.5808
-70.6612
-5092.46
-4991.24
-4899.64
-4827.81
-4750.07
-4710.46
-4750.3
-4884.14
-5070.87
-5241.43
-5342.58
-5349.63
-5259.18
-5079.99
-4825.48
-4514.47
-4165.31
-3795.72
-3422.2
-3058.25
-2713.25
-2392.42
-2098.7
-1833.51
-1597.94
-1394.75
-1224.22
-1084.05
-970.861
-880.988
-809.846
-750.445
-694.096
-632.693
-560.654
-478.088
-389.712
-302.46
-222.232
-152.891
-96.1458
-51.9829
-19.3116
3.47697
18.1407
26.3709
29.6807
29.3548
26.4368
21.7343
15.8539
9.23247
2.17787
-5.09616
-12.4396
-19.745
-26.9314
-33.9348
-40.7007
-47.1804
-53.3282
-59.0985
-64.4447
-69.3247
-73.6918
-77.5012
-80.7116
-83.2897
-85.217
-86.4974
-87.1647
-87.2837
-86.9405
-86.2201
-85.1797
-83.8367
-82.1831
-80.2267
-78.0203
-75.6807
-3135.45
-2723.66
-2244.35
-1796.97
-1295.46
-766.931
-256.605
195.723
588.534
940.894
1263.25
1548.78
1781.05
1947.59
2047.55
2091.44
2096.44
2079.9
2053.85
2021.19
1974.98
1902.55
1794.09
1648.11
1476.47
1300.23
1138.25
997.458
874.518
763.428
660.605
564.948
476.848
397.212
326.847
265.9
214.013
170.49
134.595
105.557
82.4432
64.175
49.6353
37.7611
27.815
19.2147
11.4976
4.3516
-2.41968
-8.93434
-15.2579
-21.4243
-27.4504
-33.3425
-39.0994
-44.7135
-50.1706
-55.4511
-60.5305
-65.379
-69.9632
-74.2469
-78.1927
-81.7552
-84.8911
-87.5563
-89.7079
-91.3104
-92.3442
-92.8158
-92.7668
-92.2749
-91.4393
-90.3508
-89.06
-87.564
-85.8247
-83.8178
-81.5607
-79.1612
15736.3
15112.2
14236.9
13188.6
12079.3
11202.3
10561.5
10067.3
9652.69
9273.93
8896.83
8489.8
8027.14
7498.02
6910.98
6289.58
5664.78
5066.56
4515.93
4021.42
3581.38
3188.51
2833.36
2507.06
2203.5
1921.87
1662.88
1425.89
1208.74
1009.77
828.847
666.996
524.938
402.681
300.029
215.817
147.992
94.1892
52.215
20.3735
-3.03563
-20.0026
-32.0512
-40.5093
-46.7115
-51.4872
-55.383
-58.7315
-61.722
-64.4619
-67.0175
-69.4356
-71.7536
-74.0027
-76.2079
-78.386
-80.5449
-82.6823
-84.7867
-86.839
-88.8136
-90.6788
-92.3975
-93.9278
-95.2239
-96.238
-96.9224
-97.2363
-97.1546
-96.6789
-95.8469
-94.7313
-93.4241
-92.0071
-90.522
-88.9582
-87.2689
-85.4133
-83.3872
-81.2606
-1087.93
-1177.44
-1221.73
-1217.25
-1219.15
-1259.27
-1358.65
-1525.02
-1743.19
-1984.25
-2215.37
-2405.77
-2533.09
-2597.36
-2623.5
-2648.14
-2687.38
-2717.63
-2707.2
-2652.93
-2566.21
-2453.22
-2313.76
-2148.43
-1960.97
-1756.63
-1541.44
-1321.66
-1103.5
-894.098
-701.554
-532.841
-391.646
-278.978
-194.418
-135.672
-99.0959
-80.1013
-73.7985
-75.4808
-81.0282
-87.5907
-93.7886
-99.1331
-103.522
-106.978
-109.568
-111.392
-112.559
-113.177
-113.345
-113.16
-112.706
-112.064
-111.299
-110.47
-109.62
-108.78
-107.973
-107.208
-106.487
-105.802
-105.137
-104.47
-103.774
-103.013
-102.154
-101.164
-100.018
-98.7104
-97.258
-95.7012
-94.0954
-92.4934
-90.9267
-89.3919
-87.8528
-86.2667
-84.6173
-82.9269
-14835.2
-13824.1
-12535.2
-11187.9
-9717.41
-8299.99
-7009.68
-5902.33
-5016.23
-4372.96
-3969.5
-3785.06
-3780.68
-3866.2
-3912.63
-3848.84
-3728.35
-3632.7
-3566.6
-3487.67
-3378.91
-3248.84
-3105.29
-2948.21
-2775.9
-2587.65
-2384.44
-2170.35
-1952.71
-1739.69
-1537.23
-1348.27
-1173.39
-1012.45
-865.985
-735.471
-622.921
-529.106
-453.218
-393.423
-347.054
-310.888
-282.615
-260.297
-242.453
-227.863
-215.604
-205.006
-195.602
-187.077
-179.233
-171.95
-165.16
-158.824
-152.919
-147.429
-142.338
-137.628
-133.281
-129.273
-125.582
-122.182
-119.049
-116.156
-113.475
-110.976
-108.626
-106.391
-104.241
-102.151
-100.108
-98.1161
-96.1956
-94.3737
-92.6709
-91.0861
-89.5921
-88.1505
-86.7415
-85.3551
12031.5
11893.9
11620.2
11120
10408.1
9593.64
8737.7
7874.2
7022.3
6192.86
5400.65
4664.78
4008.96
3461.75
3045.87
2756.44
2554.1
2375.55
2167.89
1910.41
1609.37
1287.13
972.04
689.25
452.148
255.422
81.2608
-85.7256
-248.614
-398.707
-523.29
-610.234
-651.527
-651.003
-623.681
-585.965
-547.087
-510.747
-476.453
-443.965
-413.651
-385.845
-360.634
-337.83
-317.103
-298.11
-280.59
-264.369
-249.346
-235.46
-222.666
-210.916
-200.152
-190.308
-181.313
-173.089
-165.56
-158.657
-152.313
-146.471
-141.082
-136.105
-131.507
-127.256
-123.325
-119.685
-116.308
-113.163
-110.218
-107.448
-104.835
-102.373
-100.074
-97.9561
-96.0351
-94.3072
-92.7457
-91.3135
-89.9837
-88.7316
-6910.98
-6762.58
-6483.72
-6064.21
-5515.15
-4936.6
-4395.3
-3928.95
-3541.47
-3223.36
-2965.77
-2762.26
-2604.75
-2481.18
-2375.08
-2265.33
-2127.16
-1936.73
-1679.36
-1356.12
-981.107
-579.362
-184.073
166.791
439.132
611.433
681.744
667.665
593.405
484.645
360.778
236.38
120.076
15.4598
-76.9437
-157.177
-223.944
-275.904
-312.331
-334.165
-343.575
-343.329
-336.457
-325.604
-312.751
-299.001
-285.135
-271.556
-258.482
-246.033
-234.267
-223.206
-212.844
-203.16
-194.124
-185.699
-177.844
-170.519
-163.685
-157.306
-151.349
-145.786
-140.593
-135.747
-131.228
-127.016
-123.09
-119.43
-116.013
-112.827
-109.862
-107.123
-104.619
-102.36
-100.342
-98.544
-96.9334
-95.4725
-94.1288
-92.8771
-12332.4
-11693.9
-10868
-9972.8
-8983.17
-8052.12
-7261.45
-6619.79
-6084.76
-5627.3
-5254.3
-4981.4
-4806.47
-4707.38
-4651.68
-4604.29
-4534.12
-4418.92
-4246.74
-4016.51
-3732.88
-3401.72
-3030.85
-2633.7
-2231.51
-1852.11
-1520.76
-1249.69
-1037.9
-876.096
-752.67
-657.311
-582.337
-522.316
-473.369
-432.878
-399.478
-371.275
-348.075
-328.985
-313.566
-301.351
-291.463
-282.945
-275.026
-267.2
-259.214
-251.001
-242.601
-234.111
-225.641
-217.293
-209.149
-201.267
-193.686
-186.429
-179.506
-172.918
-166.663
-160.735
-155.125
-149.826
-144.827
-140.119
-135.693
-131.539
-127.646
-124.006
-120.613
-117.462
-114.55
-111.875
-109.432
-107.211
-105.192
-103.353
-101.664
-100.099
-98.6333
-97.2533
19191.8
18848.1
18291.7
17420.7
16229.3
14929.1
13603.1
12272
10934.6
9575.87
8173.52
6709.73
5180.7
3610.41
2070.5
672.896
-477.422
-1334.52
-1918.42
-2285.62
-2492.6
-2580.6
-2577.57
-2503.38
-2375.82
-2211.78
-2026.24
-1831.02
-1635.21
-1445.67
-1267.52
-1104.4
-958.686
-831.575
-723
-631.965
-556.582
-494.512
-443.477
-401.663
-367.296
-338.786
-314.915
-294.752
-277.569
-262.797
-249.976
-238.732
-228.762
-219.821
-211.71
-204.27
-197.376
-190.93
-184.855
-179.096
-173.61
-168.369
-163.352
-158.546
-153.942
-149.537
-145.328
-141.314
-137.497
-133.875
-130.448
-127.216
-124.174
-121.321
-118.651
-116.158
-113.832
-111.665
-109.642
-107.749
-105.974
-104.303
-102.725
-101.232
-5722.33
-5863.62
-5955.79
-5807.54
-5435.87
-4816.26
-4000.44
-3037.58
-1981.97
-903.522
129.353
1059.72
1841.08
2440.1
2845.11
3067.11
3127.31
3044.96
2839.17
2539.32
2184.88
1814.26
1456.08
1127.75
837.716
588.534
379.627
208.892
73.4379
-30.2543
-106.341
-159.475
-194.448
-215.771
-227.318
-232.179
-232.716
-230.662
-227.269
-223.794
-220.442
-217.16
-213.951
-210.772
-207.572
-204.323
-201.018
-197.667
-194.283
-190.879
-187.461
-184.026
-180.571
-177.09
-173.579
-170.039
-166.475
-162.898
-159.322
-155.764
-152.24
-148.768
-145.367
-142.049
-138.83
-135.718
-132.723
-129.851
-127.105
-124.488
-121.999
-119.637
-117.399
-115.278
-113.271
-111.369
-109.566
-107.853
-106.223
-104.668
-8356.15
-7793.32
-6988.85
-6030.58
-4977.38
-4084.1
-3406.34
-2884.66
-2462.83
-2127.46
-1878.02
-1709.45
-1604.88
-1521.64
-1396.35
-1183.93
-892.133
-569.928
-267.129
-11.9165
185.681
327.388
420.828
475.229
499.044
499.21
481.902
452.739
416.266
375.279
331.517
286.093
239.795
193.351
147.55
103.25
61.2782
22.2657
-13.2716
-44.4948
-71.397
-94.2097
-113.095
-128.328
-140.286
-149.409
-156.152
-160.947
-164.172
-166.141
-167.104
-167.255
-166.748
-165.707
-164.233
-162.409
-160.307
-157.987
-155.504
-152.901
-150.218
-147.488
-144.742
-142.002
-139.291
-136.624
-134.016
-131.478
-129.017
-126.639
-124.346
-122.14
-120.02
-117.987
-116.038
-114.172
-112.386
-110.678
-109.044
-107.479
-5604.56
-5442.58
-5243.83
-5017.57
-4743.53
-4451.89
-4152.09
-3845.73
-3526.71
-3187.16
-2824.19
-2441.24
-2045.74
-1647.9
-1261.06
-901.764
-588.819
-339.343
-162.724
-56.2369
-0.802404
25.4193
40.6676
52.1801
60.3435
65.5429
69.8537
74.3402
77.4005
77.7
76.869
77.1034
78.1283
78.2345
76.807
74.7353
73.1806
72.8121
73.8898
76.5612
80.7709
86.021
91.5271
96.5299
100.557
103.385
104.931
105.266
104.57
103.073
100.991
98.5228
95.8113
92.9654
90.0642
87.1634
84.3019
81.5058
78.791
76.1644
73.6259
71.1693
68.7844
66.4582
64.1762
61.9235
59.685
57.4462
55.1932
52.9131
50.5946
48.2276
45.8044
43.3197
40.7713
38.1617
35.4997
32.7898
30.0532
27.3212
-7371.01
-7076.63
-6658.66
-6122.26
-5484.98
-4805.03
-4104.82
-3403.66
-2725.86
-2099.69
-1549.91
-1092.63
-733.135
-466.861
-284.398
-174.632
-125.319
-121.473
-143.483
-168.296
-175.703
-156.082
-111.945
-49.9092
20.8322
92.6831
160.583
221.824
275.176
319.686
354.262
378.014
390.905
394.001
389.107
378.164
362.858
344.559
324.399
303.325
282.091
261.257
241.253
222.455
205.194
189.688
175.983
163.967
153.444
144.204
136.016
128.702
122.098
116.068
110.499
105.305
100.423
95.8087
91.4293
87.2619
83.2877
79.4892
75.8486
72.3474
68.9656
65.6822
62.4759
59.3251
56.2086
53.1064
49.9998
46.8724
43.7106
40.5047
37.2498
33.9458
30.5962
27.2008
23.8094
20.5246
10032.8
9608.64
9074.79
8449.8
7644.64
6849.38
6152.17
5567.02
5070.39
4638.65
4259.5
3924.02
3617.06
3316.94
3004.4
2673.43
2338.29
2035.52
1805.49
1654.16
1542.98
1433.57
1323.1
1223.01
1137.95
1065.13
1000.34
940.369
883.04
826.578
770.815
716.802
665.779
618.602
575.501
536.131
499.802
465.75
433.345
402.199
372.196
343.434
316.137
290.561
266.908
245.286
225.695
208.059
192.249
178.111
165.479
154.186
144.067
134.969
126.748
119.277
112.446
106.159
100.337
94.9118
89.8261
85.0307
80.483
76.1448
71.9817
67.9613
64.0534
60.2293
56.4622
52.7269
49.0007
45.2637
41.4996
37.6972
33.8511
29.9624
26.0357
22.0712
18.1233
14.3205
14994.2
14769.9
14491.1
14083
13467.4
12719.2
11895.6
11020.7
10094.2
9114.9
8102.67
7097.71
6144.71
5276.01
4506.03
3834.66
3254.5
2756.5
2332.92
1976.79
1683.04
1447.18
1260.83
1112.01
990.518
890.11
806.637
736.137
675.45
622.439
575.323
533.081
495.079
460.728
429.527
401.037
374.879
350.735
328.355
307.559
288.22
270.261
253.623
238.248
224.064
210.983
198.904
187.721
177.331
167.64
158.568
150.049
142.029
134.463
127.313
120.549
114.14
108.06
102.284
96.7876
91.5458
86.5338
81.7261
77.0971
72.6204
68.2695
64.0181
59.8401
55.7103
51.6049
47.5019
43.3827
39.2321
35.0403
30.804
26.5278
22.2226
17.8971
13.5942
9.40711
-9189.53
-8665.86
-8019.41
-7322.26
-6519.33
-5638.4
-4657.14
-3596.49
-2528.61
-1545.43
-716.598
-59.6941
450.554
849.883
1159.76
1378.09
1486.27
1466.12
1321.18
1090.5
834.751
604.152
420.805
285.481
189.615
122.499
75.3405
42.686
21.6794
10.4571
7.62566
11.6466
20.8164
33.6408
48.7435
64.8904
81.0845
96.4475
110.38
122.469
132.371
140.098
145.77
149.542
151.591
152.139
151.374
149.487
146.656
143.053
138.849
134.202
129.254
124.125
118.913
113.691
108.513
103.417
98.4258
93.5504
88.7949
84.1562
79.6267
75.1952
70.8476
66.5679
62.3387
58.1418
53.959
49.7726
45.5663
41.3265
37.0429
32.7102
28.3294
23.9092
19.4673
15.0247
10.6157
6.27137
-10055.9
-10076.5
-10176.7
-10308.7
-10450.3
-10516.3
-10461.9
-10266.9
-9936.82
-9495.48
-8975.19
-8405.73
-7808.51
-7193.66
-6562.75
-5915.21
-5257.09
-4605.89
-3986.03
-3419.9
-2918.51
-2478.4
-2088.12
-1737.62
-1422.41
-1142.61
-900.448
-697.384
-531.775
-399.273
-294.346
-211.135
-144.28
-89.5004
-43.6281
-4.72841
28.2737
56.0637
78.8943
96.8453
110.297
119.583
125.594
128.895
130.208
130.252
129.504
128.195
126.282
123.806
120.837
117.494
113.905
110.17
106.351
102.485
98.592
94.6837
90.7674
86.8483
82.9299
79.0145
75.1023
71.1919
67.2798
63.3609
59.4283
55.4739
51.4889
47.4643
43.3921
39.2659
35.0823
30.8421
26.5521
22.2261
17.8868
13.5665
9.30584
5.11535
7033.96
6945.41
6783.76
6494.25
6058.65
5527.42
4945.65
4359.84
3808.13
3308.5
2857.7
2435.9
2018.91
1590.09
1146.39
701.181
280.048
-87.878
-381.136
-594.069
-735.171
-819.792
-862.263
-872.236
-855.344
-815.902
-758.587
-688.05
-608.948
-525.843
-442.994
-363.9
-290.763
-224.651
-166.058
-114.847
-70.6894
-33.1023
-1.41479
25.2963
47.6343
65.5808
78.6639
87.689
93.4926
96.8516
98.4876
98.9582
98.6523
97.8331
96.6736
95.2775
93.6944
91.9393
90.0122
87.9112
85.6385
83.2008
80.608
77.8719
75.0049
72.0193
68.9263
65.7356
62.4548
59.09
55.6449
52.122
48.5222
44.846
41.0942
37.2683
33.372
29.4123
25.401
21.3554
17.3003
13.2698
9.30826
5.42701
3010.43
3418.64
3959.22
4463.75
4939.97
5372.98
5765.89
6084
6299.02
6402.54
6402.21
6318.45
6176.88
5999.16
5796.33
5568.65
5311.22
5019.54
4695.56
4346.73
3983.98
3618.13
3257.08
2904.79
2562.07
2228.49
1904.32
1592.06
1296.57
1024.23
781.184
571.623
396.736
256.097
148.021
68.9232
14.0446
-21.3053
-41.0532
-48.4596
-46.4868
-37.4534
-23.2135
-5.96198
12.4553
30.523
46.9728
60.8003
71.3818
78.5898
82.7693
84.5581
84.6607
83.6849
82.076
80.1215
77.985
75.7467
73.4359
71.056
68.6001
66.0593
63.427
60.699
57.8741
54.9523
51.9351
48.8245
45.623
42.3337
38.9605
35.5086
31.9851
28.4
24.7672
21.1053
17.4387
13.7985
10.2254
6.7531
866.776
628.38
336.284
15.705
-407.74
-889.822
-1405.26
-1925.76
-2424.08
-2872.99
-3240.22
-3494.74
-3620.16
-3622.36
-3521.41
-3338.84
-3093.04
-2801.77
-2484.37
-2160.56
-1848.89
-1564.05
-1314.25
-1099.75
-914.167
-748.258
-594.211
-448.091
-309.795
-183.77
-75.2517
11.1573
74.4304
116.21
139.249
147.158
143.84
133.077
118.142
101.615
85.4699
71.2219
59.9829
52.3667
48.4031
47.5526
48.8728
51.2925
53.8996
56.1277
57.778
58.9094
59.6865
60.2616
60.7166
61.057
61.2348
61.1821
60.8406
60.1774
59.188
57.8891
56.3092
54.48
52.4319
50.1915
47.7815
45.2213
42.5274
39.7143
36.7954
33.7834
30.6914
27.5337
24.327
21.091
17.8495
14.6306
11.4676
8.41176
-8720.36
-8595.9
-8474.55
-8309.46
-8044.77
-7649.6
-7121.14
-6477.4
-5745.74
-4960.42
-4176.42
-3463.61
-2871.73
-2406.69
-2052.2
-1798.6
-1639.25
-1557.73
-1527.73
-1523.03
-1524.27
-1520.71
-1508.32
-1485.83
-1451.13
-1400.59
-1330.62
-1239.92
-1131.07
-1008.9
-880.264
-751.312
-626.844
-510.541
-405.562
-313.916
-236.271
-172.271
-120.411
-79.0989
-46.5372
-21.0682
-1.3008
13.8957
25.4212
33.9884
40.1759
44.481
47.3576
49.2259
50.456
51.3408
52.0769
52.7643
53.4229
54.0169
54.4809
54.7435
54.7446
54.4461
53.8342
52.9157
51.7117
50.2504
48.5615
46.673
44.6098
42.3934
40.0423
37.5729
35
32.3373
29.5987
26.7983
23.9517
21.0767
18.1939
15.3274
12.503
9.77269
1024.82
1034.16
1094.9
1260.54
1491.33
1784.78
2089.68
2352.02
2536.85
2632.34
2640.6
2565.45
2411.06
2191.12
1932.56
1664.75
1409.64
1182.19
991.646
842.427
732.224
651.317
585.366
521.344
453.125
381.649
311.006
245.137
186.79
137.55
97.8954
67.3872
44.9756
29.3384
19.1077
13.0512
10.1684
9.65879
10.9304
13.576
17.2991
21.8278
26.8755
32.1478
37.3428
42.1667
46.3704
49.7883
52.3571
54.1125
55.1678
55.6809
55.8183
55.7235
55.497
55.1882
54.8009
54.3084
53.6726
52.8606
51.8542
50.6512
49.2617
47.7024
45.9915
44.1458
42.1799
40.1059
37.934
35.6731
33.3317
30.9178
28.4401
25.9078
23.3318
20.725
18.1029
15.4843
12.8893
10.3603
11393.9
10744.7
9800.51
8633.42
7321.01
6128.93
5109.73
4227.87
3443.58
2739.08
2112.8
1570.67
1120.61
767.545
509.84
340.633
248.128
215.325
222.761
249.377
279.577
305.189
324.067
336.812
344.126
346.107
342.701
334.098
320.792
303.536
283.253
260.923
237.461
213.616
189.945
166.86
144.685
123.822
105.016
88.7802
75.4125
65.2267
58.241
54.0739
51.9872
51.2737
51.2611
51.4706
51.634
51.6663
51.592
51.4681
51.3408
51.2286
51.1208
50.9844
50.7754
50.4492
49.9693
49.3118
48.466
47.4325
46.2197
44.8404
43.309
41.64
39.847
37.943
35.9395
33.8473
31.676
29.4342
27.1302
24.7715
22.3663
19.9239
17.4552
14.9745
12.4962
10.0536
-9411.77
-8749.55
-7861.36
-6817.47
-5563.33
-4252.85
-3000.71
-1876.08
-899.225
-79.3026
575.094
1065.47
1406.81
1620.28
1727.2
1747.27
1698.56
1597.99
1460.13
1295.93
1114.43
925.057
738.515
564.912
411.388
281.329
174.315
88.2591
19.93
-34.1075
-76.9181
-110.829
-137.246
-156.729
-169.307
-174.852
-173.369
-165.015
-150.841
-131.044
-106.708
-80.1492
-53.7965
-29.7326
-9.21773
7.31847
20.0633
29.5324
36.3449
41.1152
44.383
46.5862
48.0466
48.9812
49.5242
49.7484
49.6857
49.3475
48.7415
47.8828
46.7978
45.5211
44.0894
42.5351
40.8835
39.1516
37.3498
35.4837
33.5561
31.5688
29.5227
27.4192
25.2598
23.0471
20.7847
18.4782
16.135
13.7662
11.3795
9.01055
7110.42
6965.11
6754.49
6432.68
6000.66
5517.06
5010.84
4492.14
3961.63
3413.01
2836.7
2224.01
1568.97
872.888
146.398
-583.886
-1263.69
-1811.49
-2154.08
-2276.47
-2227.86
-2083.72
-1899.88
-1703.04
-1504.31
-1311.05
-1129.61
-964.103
-815.931
-684.906
-571.081
-475.45
-398.507
-338.556
-291.996
-254.706
-223.229
-194.977
-167.645
-141.129
-115.101
-90.0979
-67.6714
-48.3796
-32.2328
-18.9142
-7.91568
1.27035
9.05088
15.7826
21.4913
26.3617
30.4609
33.8315
36.5161
38.5608
40.0188
40.9504
41.4171
41.4766
41.1796
40.5708
39.6913
38.5804
37.2752
35.8098
34.2137
32.5109
30.7199
28.8543
26.9238
24.9357
22.8958
20.8095
18.6825
16.5212
14.3323
12.1259
9.89468
7.70326
-6295
-5964.4
-5564.81
-5183.32
-4784.57
-4405.43
-4027.36
-3625.55
-3181.92
-2698.29
-2202.68
-1738.82
-1345.66
-1045.38
-846.307
-746.938
-735.251
-788.182
-874.557
-962.303
-1026.81
-1055.89
-1048.39
-1008.98
-943.488
-857.974
-759.79
-656.644
-553.956
-453.974
-357.949
-269.414
-193.341
-131.871
-83.12
-43.5192
-10.1291
18.4057
42.3476
61.6463
75.4111
83.6815
87.686
88.3259
86.7804
83.4617
79.0155
74.017
68.8576
63.7933
58.9951
54.5788
50.6242
47.1882
44.2991
41.9487
40.0872
38.628
37.4599
36.4676
35.5507
34.634
33.6697
32.6317
31.5088
30.298
29.0002
27.618
26.1547
24.6144
23.0024
21.3248
19.5892
17.8044
15.9798
14.1248
12.2459
10.3558
8.42339
6.56535
-232.525
-175.677
-83.1228
24.6212
117.843
129.915
66.0954
-29.7241
-115.496
-169.291
-191.315
-195.961
-198.979
-207.926
-220.983
-230.959
-229.977
-212.368
-176.098
-125.279
-69.1864
-16.8957
26.5379
55.1979
65.2157
65.5537
71.5257
88.796
112.162
137.503
167.128
203.3
242.419
277.216
301.812
313.909
313.998
304.009
286.447
263.859
238.491
212.274
186.736
162.869
140.836
121.169
103.773
88.9626
76.564
66.3019
57.9376
51.245
45.9949
41.953
38.8843
36.5563
34.7511
33.2854
32.0253
30.8872
29.8248
28.812
27.8298
26.8599
25.884
24.8848
23.8478
22.7624
21.6214
20.4216
19.1629
17.8478
16.4812
15.069
13.6176
12.1316
10.6137
9.07644
7.47966
5.9384
2836.05
2741.61
2625.85
2487.89
2321.29
2121.1
1891.91
1658.4
1441.15
1242.76
1062.13
906.092
778.339
670.777
571.092
471.644
370.776
270.761
168.468
46.6891
-115.486
-306.728
-485.629
-612.291
-650.805
-579.42
-427.171
-260.745
-130.487
-44.4043
10.1266
45.0217
67.2914
80.6119
87.98
91.3251
91.6084
89.3339
84.9699
78.9219
71.5509
63.222
54.314
45.2042
36.2546
27.9708
21.0457
15.2872
10.791
7.68511
5.74289
4.97264
5.19539
6.17591
7.66538
9.41934
11.2241
12.9173
14.3958
15.6112
16.5547
17.2409
17.6945
17.9417
18.0066
17.9095
17.6673
17.2933
16.7986
16.1921
15.4814
14.6734
13.775
12.7955
11.7524
10.6342
9.43872
8.1823
6.87221
5.52741
-8181.11
-7896.56
-7510.36
-7005
-6363.68
-5611.47
-4763.41
-3846.05
-2933.02
-2127.64
-1479.41
-963.647
-553.165
-249.254
-52.4218
50.1208
76.1099
45.6538
-18.0114
-102.434
-205.567
-309.752
-380.002
-399.002
-369.533
-294.398
-184.472
-66.1157
36.4028
114.03
168.109
202.311
220.216
225.67
221.433
209.196
190.958
168.941
145.324
121.824
99.4521
78.638
59.5516
42.3499
27.2287
14.3655
3.87181
-4.25663
-10.1956
-14.1301
-16.0333
-16.3594
-15.3992
-13.4556
-10.8432
-7.85929
-4.76394
-1.76316
0.996729
3.43276
5.51226
7.23924
8.63946
9.7479
10.6004
11.2287
11.659
11.9112
11.9998
11.935
11.7241
11.3724
10.8852
10.2732
9.52258
8.6576
7.69386
6.64559
5.53592
4.27915
4295.37
3821.74
3138.16
2342.44
1474.8
799.753
355.065
39.7855
-263.454
-567.148
-799.659
-916.329
-921.775
-829.6
-653.668
-414.116
-136.575
151.052
422.969
656.859
837.245
958.614
1026.21
1051.27
1045.46
1016.16
966.373
898.037
814.933
722.288
625.532
529.588
438.299
354.018
277.327
208.816
149.05
98.4773
57.2336
24.8982
0.436457
-17.585
-30.6349
-39.9373
-46.3919
-50.6189
-53.0296
-53.8987
-53.4091
-51.7331
-49.3057
-45.961
-41.9944
-37.6019
-32.9719
-28.2866
-23.7069
-19.3627
-15.3471
-11.7152
-8.48885
-5.66296
-3.21643
-1.11957
0.659147
2.14881
3.37385
4.35324
5.10089
5.62671
5.93831
6.04295
5.94889
5.65977
5.20005
4.58962
3.84885
2.99865
2.0705
0.965643
7452.06
7452.31
7435.12
7344.6
7146.8
6856.05
6504.21
6103.84
5631.89
5081.91
4504.59
3966.15
3513.03
3172.4
2951.05
2835.09
2794.53
2787.46
2768.71
2696.97
2542.88
2299.26
1981.02
1615.9
1231.48
850.939
493.207
174.012
-94.62
-305.371
-455.885
-547.749
-587.039
-583.512
-549.326
-497.525
-439.528
-383.086
-332.132
-287.945
-250.544
-219.443
-193.852
-172.801
-155.313
-140.541
-127.803
-116.567
-106.425
-97.0709
-88.2964
-80.0862
-72.3117
-64.8933
-57.8378
-51.1696
-44.921
-39.1241
-33.8029
-28.968
-24.6161
-20.7314
-17.2906
-14.2638
-11.6221
-9.33762
-7.38538
-5.74419
-4.39626
-3.32652
-2.52217
-1.97273
-1.66606
-1.59254
-1.74095
-2.09822
-2.64644
-3.35444
-4.16979
-5.06323
22.2383
16.037
11.8673
9.82487
9.70886
10.9543
12.8677
14.8154
16.3741
17.3973
17.9509
18.1754
18.2006
18.1161
17.9744
17.8079
17.6359
17.4695
17.3149
17.175
17.0504
16.9399
16.8412
16.7504
16.6635
16.5765
16.4855
16.3879
16.2821
16.1668
16.0416
15.9065
15.7615
15.6068
15.4438
15.2723
15.0947
14.9132
14.7289
14.5417
14.353
14.1629
13.9706
13.7752
13.5752
13.3694
13.1569
12.9374
12.7115
12.4804
12.2463
12.0121
11.7807
11.5551
11.3374
11.1291
10.9305
10.7409
10.5589
10.3825
10.2097
10.0386
9.86792
9.69629
9.52253
9.34531
9.16299
8.97357
8.7747
8.56364
8.33724
8.09191
7.82384
7.52954
7.20673
6.85566
6.48055
6.09037
5.69783
5.31624
4.95571
4.62094
4.31173
4.02541
3.7593
3.5122
3.28475
3.07909
2.89844
2.74758
2.62851
2.54379
2.49478
2.48148
2.50258
2.55561
2.63716
2.74317
2.86929
3.0111
3.16435
3.32514
3.48997
3.65582
3.82012
3.98075
4.13593
4.28425
4.42457
4.55601
4.67784
4.78946
4.89038
4.98018
5.05855
5.12525
5.18008
5.22294
5.25379
5.27268
5.27972
5.27506
5.25896
5.23181
5.19417
5.14669
5.09004
5.02487
4.95175
4.87138
4.78465
4.69287
4.59781
4.50174
4.40733
4.31754
4.23547
4.16418
4.10648
4.06485
4.04126
4.03709
4.05301
4.08905
4.14458
4.21842
4.30892
4.41405
4.53152
4.65888
4.79362
4.93329
5.07559
5.2184
5.35986
5.49838
5.63263
5.76155
5.88431
6.00027
6.10895
6.20995
6.30294
6.38762
6.46368
6.53074
6.58835
6.63588
6.67255
6.69739
6.70927
6.70685
6.68868
6.65318
6.59874
6.52378
6.42682
6.30655
6.16193
5.99225
5.79718
5.57685
5.33195
5.06372
4.77409
4.46561
4.14154
3.80578
3.46279
3.11749
2.77508
2.44077
2.11938
1.81491
1.52981
1.26413
1.01449
0.771208
0.518775
0.256658
14.5618
7.52348
3.09139
1.38471
2.02765
4.31444
7.41624
10.5801
13.2637
15.2186
16.4728
17.1988
17.5779
17.7474
17.7872
17.7553
17.6842
17.5933
17.4933
17.3905
17.2884
17.1883
17.09
16.9923
16.8927
16.7887
16.6777
16.5574
16.4268
16.2851
16.1324
15.9691
15.796
15.6142
15.4252
15.2318
15.034
14.8348
14.6361
14.4363
14.2392
14.0445
13.8512
13.6576
13.462
13.2622
13.0563
12.8429
12.6214
12.3925
12.1578
11.9197
11.6817
11.447
11.2189
10.9996
10.7903
10.5908
10.3999
10.2156
10.0356
9.85779
9.68032
9.50178
9.32095
9.13653
8.94693
8.75015
8.5437
8.32466
8.08967
7.83489
7.55624
7.24981
6.91287
6.54515
6.15049
5.73777
5.31995
4.91092