/*--------------------------------*- C++ -*----------------------------------*\
| =========                 |                                                 |
| \\      /  F ield         | OpenFOAM: The Open Source CFD Toolbox           |
|  \\    /   O peration     | Version:  2012                                  |
|   \\  /    A nd           | Website:  www.openfoam.com                      |
|    \\/     M anipulation  |                                                 |
\*---------------------------------------------------------------------------*/
FoamFile
{
    version     2.0;
    format      ascii;
    class       surfaceScalarField;
    location    "0.42";
    object      phi;
}
// * * * * * * * * * * * * * * * * * * * * * * * * * * * * * * * * * * * * * //

dimensions      [0 3 -1 0 0 0 0];
oriented        oriented;


internalField   nonuniform List<scalar> 
84340
(
-0.000144771
0.000551964
-0.000407194
-0.000133215
0.00110056
-0.00111211
0.000167793
0.00130273
-0.00160374
0.000691433
0.00132993
-0.00185357
0.00128339
0.00131214
-0.0019041
0.00174733
0.00134333
-0.00180727
0.00194471
0.00145018
-0.00164756
0.00189559
0.00152168
-0.00147257
0.00168986
0.00150439
-0.00129866
0.00141821
0.00140444
-0.00113278
0.00113982
0.00125433
-0.000975942
0.000880191
0.00108053
-0.000820904
0.000649825
0.000892854
-0.000662488
0.000436081
0.000690215
-0.000476471
0.000244714
0.000462462
-0.000271096
9.70192e-05
0.000187608
-3.99131e-05
3.54321e-05
-0.000159447
0.000221034
0.000125237
-0.000584084
0.000494278
0.000411618
-0.00104904
0.000762656
0.000893054
-0.00147419
0.000992757
0.00151391
-0.00177397
0.00115311
0.00218016
-0.00189789
0.00123165
0.00278976
-0.00184815
0.00123854
0.00325289
-0.00166654
0.00120342
0.00351962
-0.00140948
0.00114275
0.0035711
-0.00112851
0.00107703
0.00341489
-0.000860851
0.00101707
0.00307637
-0.000628192
0.000966708
0.00259134
-0.000439507
0.000924536
0.00200066
-0.000294401
0.000885086
0.0013567
-0.000189242
0.000833207
0.00070297
-0.000117875
0.0007716
8.32973e-05
-7.45921e-05
0.000694264
-0.000469214
-5.04385e-05
0.00060295
-0.000931985
-4.29265e-05
0.000505697
-0.001294
-5.21589e-05
0.000414178
-0.00155541
-7.56052e-05
0.000337014
-0.00172788
-0.000106209
0.000278677
-0.0018268
-0.000137714
0.000236633
-0.00186756
-0.000165494
0.000206252
-0.00186439
-0.000186702
0.000183537
-0.00183041
-0.000199832
0.000165851
-0.00177739
-0.000203793
0.000150773
-0.00171539
-0.000197367
0.000135367
-0.00165347
-0.000178901
0.000116977
-0.00159891
-0.000148608
9.4051e-05
-0.00155542
-0.000110274
6.67815e-05
-0.0015213
-7.03783e-05
3.62623e-05
-0.00149043
-3.46351e-05
3.76005e-06
-0.001456
-4.80893e-06
-2.96206e-05
-0.00141084
1.86314e-05
-6.37948e-05
-0.00135535
4.09282e-05
-9.64135e-05
-0.00128712
6.1413e-05
-0.000129647
-0.00120547
7.83468e-05
-0.000159999
-0.00111308
9.52313e-05
-0.000187617
-0.00101256
0.000111348
-0.000211865
-0.00090682
0.000126502
-0.000232246
-0.000798917
0.000140514
-0.000248417
-0.000691787
0.000153045
-0.000260175
-0.000587971
0.0001636
-0.000267416
-0.000489425
0.000171559
-0.000270106
-0.000397442
0.000176257
-0.000268241
-0.00031265
0.000177025
-0.000261817
-0.000235053
0.000173219
-0.000250815
-0.000164101
0.000164218
-0.00023517
-9.87405e-05
0.00014941
-0.000214771
-3.74521e-05
0.000128167
-0.000189456
2.17253e-05
9.98307e-05
-0.000159008
8.1154e-05
6.3729e-05
-0.000123157
0.000143722
1.90183e-05
-8.15858e-05
0.000211852
-3.42089e-05
-3.39212e-05
0.000288928
-9.70497e-05
1.99733e-05
0.000377779
-0.000169442
8.05905e-05
0.000480965
-0.000251193
0.000148006
0.000600483
-0.000341673
0.000222156
0.000737563
-0.000439776
0.000302696
0.00089256
-0.000543935
0.000388938
0.00106497
-0.000652175
0.000479768
0.00125359
-0.000761897
0.00057327
-0.000862847
0.000661802
0.00145464
0.000818487
-0.000266523
0.00221218
-0.000293139
0.00380522
-0.00029031
0.0056941
-0.000558945
0.00794894
-0.000942703
0.0104378
-0.00114549
0.0129372
-0.00104928
0.0152552
-0.000796277
0.017302
-0.000542423
0.0190814
-0.000374958
0.0206233
-0.000287611
0.0219335
-0.000229631
0.0229899
-0.000163557
0.0237491
-6.90204e-05
0.0241535
5.81035e-05
0.0241328
0.000208352
0.0236119
0.000361454
0.0225315
0.000496311
0.0208796
0.000602802
0.0187195
0.000685888
0.0161879
0.000757661
0.0134623
0.000827713
0.0107182
0.000895917
0.00810099
0.00095071
0.00571689
0.000974612
0.00363629
0.000952086
0.00190144
0.000873996
0.000535206
0.000738046
-0.00045369
0.000549389
-0.00107768
0.000329586
-0.00138319
0.000116265
-0.0014415
-5.95598e-05
-0.00133109
-0.000185005
-0.00111691
-0.000264614
-0.000853047
-0.000306792
-0.000582374
-0.000322832
-0.000336855
-0.000321124
-0.000135646
-0.000307417
1.11289e-05
-0.000284489
9.90496e-05
-0.000253415
0.000126646
-0.000214298
9.37674e-05
-0.000166953
-3.64552e-08
-0.00010999
-0.000142584
-5.48194e-05
-0.00032762
6.13552e-06
-0.000538582
6.23528e-05
-0.000751328
0.000102472
-0.00093801
0.000116303
-0.00107515
0.000102508
-0.00115157
7.16055e-05
-0.0011716
3.86657e-05
-0.00114826
1.75921e-05
-0.00109533
8.47875e-06
-0.00102726
1.02804e-05
-0.000949882
1.78516e-05
-0.000868624
3.00905e-05
-0.000785843
4.37215e-05
-0.000703958
5.86286e-05
-0.000625622
7.47105e-05
-0.000552917
9.08951e-05
-0.000487208
0.00010585
-0.000428939
0.000117988
-0.000377624
0.00012571
-0.000332017
0.000127612
-0.000290278
0.00012248
-0.000250089
0.000109222
-0.000208729
8.68075e-05
-0.000163098
5.41996e-05
-0.000109474
1.01057e-05
-4.50802e-05
-4.53752e-05
3.41735e-05
-0.000113462
0.000131126
-0.000194002
0.000248191
-0.000286506
0.000386846
-0.000389848
0.000547392
-0.000502218
0.000728767
-0.00062115
0.000928445
-0.000743613
0.00114243
-0.000866163
0.00136566
-0.000985127
-0.00108942
0.00159223
-0.000437301
0.000170778
-0.00085692
0.00012648
-0.000933072
-0.000214158
-0.000699537
-0.00079248
-0.000223611
-0.00141863
0.000494492
-0.0018636
0.00145604
-0.00201083
0.00257372
-0.00191395
0.00374055
-0.00170925
0.00486711
-0.00150152
0.00589508
-0.00131558
0.00682696
-0.0011615
0.00769179
-0.00102839
0.00852625
-0.000903481
0.0093618
-0.000777445
0.0102032
-0.000633085
0.0110274
-0.00046267
0.0117766
-0.000252939
0.0123651
1.42917e-05
0.0127152
0.000335802
0.0127975
0.00067537
0.01264
0.000985178
0.012302
0.00123392
0.0118413
0.0014114
0.0112984
0.00151753
0.0106941
0.00155644
0.0100341
0.00153393
0.00931564
0.00145653
0.00853477
0.00133026
0.00769717
0.00116719
0.00681848
0.00099495
0.00595125
0.000807677
0.00513221
0.000634031
0.00440469
0.000462906
0.00377785
0.000320052
0.00325698
0.000198039
0.00283923
9.66232e-05
0.00251412
1.76932e-05
0.00226648
-3.68496e-05
0.00207658
-6.35183e-05
0.00192378
-6.14937e-05
0.00178674
-2.99178e-05
0.00166157
1.51861e-05
0.00151657
9.01735e-05
0.00134531
0.000177399
0.00114419
0.00026347
0.000915239
0.000331425
0.000664862
0.00036668
0.000402929
0.000364441
0.000142145
0.000332389
-0.000104093
0.000284903
-0.000319475
0.000232974
-0.000493306
0.00018231
-0.000615697
0.000132672
-0.000681408
8.3562e-05
-0.000690455
3.91366e-05
-0.000654424
7.69033e-06
-0.000588919
-6.87669e-06
-0.000512357
-1.85169e-06
-0.000437371
1.59081e-05
-0.000372917
4.13954e-05
-0.000322332
6.7403e-05
-0.000284306
8.76843e-05
-0.000255084
9.83905e-05
-0.000229925
9.73214e-05
-0.000203795
8.30917e-05
-0.000171724
5.47372e-05
-0.000131206
1.36811e-05
-7.33958e-05
-4.77046e-05
3.09441e-06
-0.000121866
0.000100955
-0.000211324
0.000222071
-0.000315119
0.000367136
-0.000431571
0.000535531
-0.000558242
0.000725258
-0.000691944
0.000932934
-0.000828826
0.00115386
-0.000964536
0.00138218
-0.00109449
0.00161131
-0.00121426
-0.00131403
0.00183593
0.000193444
-2.26655e-05
0.000541224
-0.0002213
0.00076119
-0.000434125
0.000645263
-0.000676553
0.000184726
-0.000958091
-0.000427434
-0.00125144
-0.000965285
-0.00147298
-0.00132248
-0.00155676
-0.00151773
-0.001514
-0.00162104
-0.00139821
-0.0016819
-0.00125473
-0.00173336
-0.00111004
-0.00178341
-0.000978349
-0.00182782
-0.00085907
-0.00187371
-0.000731555
-0.00191532
-0.000591472
-0.00193873
-0.000439258
-0.0019532
-0.00023847
-0.00193548
-3.42895e-06
-0.00185043
0.00025075
-0.0016807
0.000505639
-0.00143444
0.000738922
-0.00113564
0.000935115
-0.000810846
0.00108661
-0.000484196
0.00119088
-0.000175774
0.00124802
9.76601e-05
0.00126049
0.000322094
0.0012321
0.000488141
0.00116421
0.000600005
0.00105533
0.000688683
0.000906272
0.000779296
0.000717064
0.000920539
0.000492787
0.00110561
0.000277832
0.00135182
7.3848e-05
0.00164427
-9.44104e-05
0.00196623
-0.000225343
0.00229717
-0.000313241
0.00261612
-0.0003558
0.00291243
-0.000359829
0.00318824
-0.000337309
0.00344102
-0.00028269
0.00365932
-0.000203114
0.00386292
-0.000113434
0.00405998
-1.96573e-05
0.00424794
7.55122e-05
0.00441116
0.000168202
0.00452307
0.000254772
0.00455455
0.00033296
0.00448538
0.000401561
0.00431164
0.000458635
0.00404423
0.00050039
0.00370476
0.00052178
0.00331863
0.0005188
0.00291001
0.000492181
0.00249994
0.000449206
0.0021052
0.000402438
0.00173499
0.000363327
0.00139637
0.000336769
0.00109249
0.000319788
0.000828123
0.000305764
0.000606777
0.000288749
0.000429246
0.000265216
0.00029418
0.000233456
0.000199135
0.000192366
0.000141466
0.00014076
0.000119109
7.70938e-05
0.000132265
5.25337e-07
0.000173542
-8.89812e-05
0.000245186
-0.00019351
0.000345655
-0.000311792
0.000473039
-0.000442502
0.000624838
-0.000583369
0.000797798
-0.000731203
0.000987849
-0.000881995
0.00119011
-0.00103109
0.00139899
-0.00117342
0.00160832
-0.00130381
0.00181147
-0.00141742
-0.00150764
0.00200508
0.000259042
-0.000281708
0.000348977
-0.000311235
-9.45065e-05
9.35858e-06
-0.00110894
0.000337878
-0.00260245
0.000535421
-0.00447322
0.000619338
-0.0065979
0.000651698
-0.00883904
0.000684381
-0.0110788
0.000725764
-0.0132401
0.000763094
-0.0152814
0.000786563
-0.0171804
0.000789014
-0.018905
0.000746216
-0.0203834
0.000619354
-0.0215222
0.000407248
-0.0222639
0.000150168
-0.0226358
-6.73462e-05
-0.0226744
-0.000199862
-0.0224093
-0.000268527
-0.0218481
-0.00031042
-0.0210108
-0.000331695
-0.01992
-0.000351912
-0.0186224
-0.000362443
-0.0171691
-0.00036671
-0.0156047
-0.000373481
-0.0139708
-0.000385886
-0.0123061
-0.000404185
-0.0106413
-0.00043274
-0.00900443
-0.000472659
-0.00743616
-0.000512944
-0.00597089
-0.000558996
-0.00464174
-0.000612088
-0.0034792
-0.000669758
-0.00247097
-0.000730392
-0.00160946
-0.000787669
-0.000874736
-0.00082913
-0.000261097
-0.000838981
0.000231329
-0.000805668
0.000604965
-0.000729435
0.000868253
-0.000623118
0.0010345
-0.000503556
0.00113386
-0.000382048
0.00118962
-0.000258872
0.00122924
-0.000153052
0.00125811
-4.85368e-05
0.00128538
4.82507e-05
0.00131009
0.000143489
0.00132957
0.000235291
0.00134132
0.000321213
0.00134419
0.000398692
0.00133802
0.000464805
0.0013219
0.000516503
0.00129246
0.000551225
0.00124342
0.000567837
0.00116813
0.000567475
0.0010638
0.00055353
0.000935649
0.00053059
0.000796195
0.000502781
0.000660452
0.000472512
0.000539949
0.000440291
0.000440422
0.000405291
0.000363077
0.000366094
0.000307143
0.00032115
0.000271768
0.000268832
0.000256722
0.000207412
0.00026228
0.000135202
0.000288931
5.04427e-05
0.000336481
-4.70248e-05
0.00040616
-0.000158659
0.000496623
-0.000283973
0.000606584
-0.000421752
0.000733931
-0.00056985
0.000875754
-0.000725191
0.00102845
-0.000883899
0.00118794
-0.00104148
0.00134987
-0.00119302
0.00150981
-0.00133336
0.00166331
-0.0014573
0.00180605
-0.00156016
-0.001638
0.0019364
-0.00053692
0.000255213
-0.00153184
0.000683682
-0.00252955
0.00100708
-0.00328788
0.00109621
-0.0037376
0.000985139
-0.00393291
0.000814649
-0.00393473
0.000653514
-0.00376442
0.000514073
-0.00342537
0.00038671
-0.00293548
0.000273213
-0.00233514
0.000186224
-0.00166858
0.000122445
-0.000963352
4.0992e-05
-0.000232995
-0.000111004
0.000521662
-0.000347409
0.00129021
-0.000618385
0.00207584
-0.000852971
0.00289074
-0.00101476
0.0037325
-0.00111029
0.00457681
-0.00115472
0.00539711
-0.00115199
0.00615067
-0.00110548
0.00681462
-0.0010264
0.00737661
-0.000928693
0.00782282
-0.000819695
0.0081371
-0.000700165
0.00830129
-0.000568373
0.00828753
-0.000418981
0.00807545
-0.000260578
0.0076718
-0.000109294
0.00708646
2.63405e-05
0.00633767
0.000136703
0.00545925
0.000208669
0.00449709
0.000231767
0.00350962
0.0001998
0.00256562
0.000114867
0.0017344
-7.76374e-06
0.0010619
-0.000133166
0.000553422
-0.000220957
0.000182787
-0.000252482
-8.47098e-05
-0.00023606
-0.000277575
-0.000189183
-0.000403362
-0.000133085
-0.000490281
-6.6133e-05
-0.000541909
3.0912e-06
-0.000565711
7.20526e-05
-0.000562336
0.000140114
-0.000533117
0.000206072
-0.000480446
0.000268542
-0.000407724
0.000325971
-0.000319593
0.000376674
-0.000222083
0.000418993
-0.000122419
0.000451561
-2.81865e-05
0.000473604
5.41444e-05
0.000485144
0.000120737
0.000486937
0.000171164
0.000480163
0.000207956
0.000465989
0.000235195
0.000445273
0.000257167
0.000418319
0.000277575
0.000384883
0.000299398
0.000344272
0.000325129
0.000295419
0.000356942
0.000237019
0.000396669
0.000167686
0.000445737
8.61337e-05
0.000504753
-8.57278e-06
0.000574611
-0.000116883
0.000654604
-0.000238652
0.000743462
-0.000372831
0.000839173
-0.000517464
0.000939035
-0.000669712
0.00103989
-0.000826047
0.00113854
-0.00098255
0.00123222
-0.00113516
0.00131887
-0.00127968
0.00139714
-0.00141163
0.00146606
-0.00152622
0.00152465
-0.00161874
-0.00168571
0.00157237
9.51655e-05
0.000160047
0.000270528
0.000508319
0.000602666
0.000674937
0.00109006
0.000608818
0.00162277
0.00045242
0.00212973
0.000307693
0.00254038
0.000242863
0.00278823
0.000266229
0.00283059
0.000344342
0.00265352
0.000450287
0.00229012
0.000549623
0.00185624
0.000556328
0.00161151
0.000285718
0.00179632
-0.000295811
0.00231568
-0.000866771
0.00277543
-0.00107813
0.00288383
-0.00096137
0.00262317
-0.000754108
0.00208836
-0.000575481
0.00136294
-0.000429303
0.000520906
-0.000309957
-0.000362051
-0.000222518
-0.00121798
-0.000170466
-0.00199455
-0.000152125
-0.00265392
-0.000160331
-0.00316871
-0.000185373
-0.00351754
-0.000219537
-0.00368635
-0.000250175
-0.00368703
-0.000259892
-0.00353557
-0.000260755
-0.00325456
-0.000254676
-0.00287561
-0.000242244
-0.00244647
-0.000220469
-0.00202808
-0.000186623
-0.00166738
-0.0001609
-0.00139639
-0.000156127
-0.00122348
-0.000180666
-0.00113431
-0.000222343
-0.00110246
-0.000252801
-0.00110293
-0.000252013
-0.00111815
-0.000220842
-0.00113548
-0.000171851
-0.00115176
-0.000116804
-0.00115617
-6.17243e-05
-0.00114406
-9.01563e-06
-0.00111277
4.07616e-05
-0.00106051
8.7851e-05
-0.000987097
0.00013266
-0.000893992
0.000175437
-0.000784126
0.000216104
-0.000661639
0.000254187
-0.000531509
0.000288864
-0.000399059
0.000319111
-0.000269352
0.000343897
-0.000146568
0.000362361
-3.35293e-05
0.000373898
6.84924e-05
0.000378142
0.000159618
0.000374864
0.000241053
0.000363837
0.000314645
0.000344727
0.00038251
0.000317018
0.000446784
0.000279998
0.000509408
0.000232794
0.000571981
0.000174446
0.000635604
0.000104063
0.000700848
2.08899e-05
0.000767665
-7.53897e-05
0.000835437
-0.000184655
0.000902811
-0.000306025
0.000967795
-0.000437815
0.00102784
-0.000577509
0.00108011
-0.000721984
0.00112204
-0.000867977
0.00115208
-0.00101259
0.00117033
-0.00115341
0.00117867
-0.00128802
0.00118009
-0.00141305
0.00117769
-0.00152381
0.00117376
-0.00161482
-0.00168263
0.00117068
-0.000272126
0.000432173
-0.000627647
0.00086384
-0.000990874
0.00103816
-0.00152675
0.0011447
-0.00234
0.00126567
-0.00338805
0.00135574
-0.00456153
0.00141634
-0.00574774
0.00145243
-0.00686464
0.00146125
-0.00786087
0.00144651
-0.00870962
0.00139837
-0.00938172
0.00122843
-0.00984621
0.000750209
-0.010072
-6.99844e-05
-0.0100559
-0.00088286
-0.00983767
-0.00129641
-0.00947581
-0.00132323
-0.00901835
-0.00121157
-0.0084961
-0.00109773
-0.00792341
-0.001002
-0.0072947
-0.000938659
-0.00661189
-0.000905333
-0.00588773
-0.000894625
-0.0051457
-0.000894153
-0.00439523
-0.000910805
-0.00365955
-0.000921054
-0.00295043
-0.000928651
-0.00225954
-0.00094107
-0.00155897
-0.000960458
-0.000839995
-0.000979734
-0.000112277
-0.000982394
0.0005913
-0.000945821
0.00122186
-0.000851027
0.00173485
-0.000699612
0.00208577
-0.000511829
0.00224891
-0.000319261
0.00221855
-0.000150311
0.00202845
-3.22359e-05
0.00173123
4.44119e-05
0.00139461
8.46054e-05
0.0010605
0.000113272
0.000757263
0.000131385
0.000497155
0.000143304
0.000283441
0.000151989
0.000115277
0.000159148
-9.7732e-06
0.000165812
-9.47534e-05
0.000172831
-0.000143129
0.000181035
-0.000158829
0.000191137
-0.000146268
0.000203542
-0.000110259
0.000218178
-5.58208e-05
0.000234425
1.21153e-05
0.000251175
8.8967e-05
0.000267045
0.000170814
0.000280513
0.000254577
0.000290135
0.000338078
0.000294641
0.000419991
0.000292952
0.00049968
0.000284149
0.000576998
0.000267409
0.000652076
0.00024194
0.000725123
0.000206951
0.000796257
0.00016166
0.000865434
0.000105269
0.000932303
3.71925e-05
0.000996152
-4.296e-05
0.00105595
-0.000135187
0.00111025
-0.000238958
0.00115724
-0.000353015
0.00119472
-0.000475289
0.00122023
-0.00060302
0.0012315
-0.00073325
0.00122717
-0.000863653
0.0012078
-0.000993217
0.00117643
-0.00112204
0.00113831
-0.0012499
0.00109969
-0.00137443
0.00106622
-0.00149034
0.00104228
-0.00159087
-0.00167118
0.00103082
0.000302447
0.000129727
0.000795769
0.000370518
0.00121831
0.000615628
0.00151059
0.000852409
0.00166505
0.00111121
0.00172501
0.00129578
0.00182992
0.00131143
0.00213032
0.00115204
0.00270923
0.000882341
0.00357796
0.000577779
0.00469329
0.000283038
0.00590902
1.27112e-05
0.00689902
-0.000239798
0.00731424
-0.000485203
0.00714078
-0.000709402
0.00671619
-0.000871819
0.00634607
-0.000953101
0.00611029
-0.000975793
0.0059857
-0.000973137
0.00595072
-0.000967023
0.00597801
-0.000965948
0.00604008
-0.0009674
0.00611059
-0.000965141
0.00617498
-0.000958541
0.00618863
-0.000924451
0.0061619
-0.000894328
0.00610505
-0.0008718
0.00602865
-0.000864667
0.005943
-0.000874811
0.00585472
-0.000891456
0.00576299
-0.000890665
0.00565871
-0.000841541
0.00552481
-0.000717128
0.00534923
-0.00052403
0.00511595
-0.000278543
0.00481659
-1.99015e-05
0.00444888
0.000217391
0.0040261
0.000390552
0.00357299
0.000497517
0.00310996
0.000547641
0.00266734
0.000555887
0.00226152
0.00053721
0.0019011
0.000503721
0.00158925
0.000463839
0.00132561
0.000422791
0.00110778
0.000383636
0.000932438
0.000348175
0.000795949
0.000317524
0.00069472
0.000292366
0.000625278
0.000272985
0.000584232
0.000259224
0.000568191
0.000250467
0.000573684
0.000245682
0.000597258
0.000243471
0.000635505
0.000242267
0.000685215
0.000240425
0.000743508
0.000236348
0.000807901
0.000228559
0.000876321
0.000215729
0.000947052
0.000196677
0.00101865
0.000170342
0.00108983
0.000135766
0.00115942
9.2078e-05
0.00122614
3.8542e-05
0.00128875
-2.5416e-05
0.00134599
-0.000100197
0.00139656
-0.000185761
0.00143911
-0.000281508
0.00147215
-0.000386053
0.00149399
-0.000497133
0.00150282
-0.000611843
0.00149699
-0.000727425
0.00147582
-0.00084248
0.00144045
-0.000957851
0.00139452
-0.0010761
0.00134388
-0.00119926
0.00129543
-0.00132598
0.00125551
-0.00145042
0.00122873
-0.00156409
-0.00165933
0.00121687
0.000244052
-0.000114325
0.00091062
-0.000296051
0.0017107
-0.000184452
0.00239933
0.000163782
0.00280786
0.000702679
0.00288076
0.00122288
0.00271731
0.00147488
0.00245975
0.0014096
0.00220958
0.00113251
0.00203123
0.000756124
0.00196854
0.000345734
0.00204518
-6.39369e-05
0.00224774
-0.000442352
0.00251976
-0.000757228
0.0027989
-0.000988537
0.00305699
-0.00112991
0.00329369
-0.0011898
0.00350198
-0.00118408
0.00365301
-0.00112417
0.00370371
-0.00101773
0.00361335
-0.000875581
0.00336241
-0.000716462
0.00294995
-0.000552683
0.00241756
-0.000426153
0.00185563
-0.000362522
0.0013119
-0.000350598
0.000789458
-0.000349354
0.0002635
-0.000338709
-0.000287598
-0.000323712
-0.000864105
-0.00031495
-0.00144768
-0.000307092
-0.0019928
-0.00029642
-0.00243173
-0.000278198
-0.00271009
-0.000245667
-0.00279527
-0.000193363
-0.0026913
-0.000123876
-0.00242702
-4.68827e-05
-0.00206506
2.85932e-05
-0.00166233
9.47826e-05
-0.00126242
0.000147732
-0.000893067
0.000186533
-0.000568156
0.000212299
-0.000291583
0.000227148
-6.12038e-05
0.000233459
0.0001282
0.000233387
0.000282958
0.000228879
0.000409463
0.000221669
0.000513753
0.000213235
0.000601353
0.000204765
0.000677228
0.00019711
0.000745689
0.000190763
0.00081031
0.000185846
0.000873877
0.000182116
0.00093833
0.000179017
0.00100485
0.000175745
0.00107394
0.000171333
0.00114556
0.000164732
0.00121924
0.000154878
0.00129423
0.000140736
0.00136959
0.000121322
0.00144421
9.57233e-05
0.00151688
6.30879e-05
0.0015865
2.24644e-05
0.00165178
-2.67431e-05
0.00171165
-8.52851e-05
0.00176512
-0.00015366
0.00181135
-0.000231996
0.00184964
-0.000319793
0.00187922
-0.000415637
0.00189913
-0.000517047
0.00190807
-0.000620776
0.00190446
-0.000723818
0.00188699
-0.000825006
0.00185541
-0.000926271
0.0018115
-0.0010322
0.00175948
-0.00114724
0.00170537
-0.00127187
0.00165543
-0.00140048
0.00161405
-0.00152271
-0.00162913
0.00158386
0.00051102
-0.000625345
0.00147166
-0.00125669
0.00275999
-0.00147278
0.00431341
-0.00138963
0.00594439
-0.000928302
0.00742912
-0.000261854
0.00861553
0.000288472
0.00944599
0.000579141
0.0098939
0.000684602
0.00997516
0.000674865
0.00973268
0.00058821
0.00922723
0.000441516
0.00852963
0.000255244
0.00771456
5.7842e-05
0.00684755
-0.000121525
0.00597771
-0.000260074
0.00513546
-0.00034755
0.00433558
-0.000384201
0.0035878
-0.000376389
0.00290342
-0.000333346
0.00229638
-0.000268537
0.00178314
-0.000203225
0.00139632
-0.000165867
0.00115114
-0.00018097
0.00103669
-0.000248073
0.00101701
-0.000330919
0.0010508
-0.000383142
0.00109571
-0.000383617
0.00111392
-0.000341928
0.00107786
-0.000278881
0.000982171
-0.000211407
0.000835669
-0.000149918
0.000656915
-9.9444e-05
0.000470996
-5.9748e-05
0.000304422
-2.67884e-05
0.000175106
5.43993e-06
8.82409e-05
3.99817e-05
4.1984e-05
7.48498e-05
3.23171e-05
0.00010445
5.53813e-05
0.000124669
0.000107516
0.000134399
0.000184317
0.000135498
0.000280829
0.000130637
0.000389073
0.000125215
0.000504361
0.000118098
0.000622645
0.000110596
0.000740392
0.000103921
0.000854948
9.86788e-05
0.000964642
9.50706e-05
0.0010688
9.2954e-05
0.00116754
9.20203e-05
0.00126151
9.18812e-05
0.00135159
9.2034e-05
0.00143871
9.18975e-05
0.00152364
9.08148e-05
0.00160692
8.80448e-05
0.00168883
8.28304e-05
0.0017693
7.44096e-05
0.00184801
6.20257e-05
0.00192445
4.48771e-05
0.0019979
2.22697e-05
0.00206763
-6.63624e-06
0.0021327
-4.26094e-05
0.0021924
-8.64444e-05
0.00224602
-0.000138906
0.00229297
-0.000200602
0.00233273
-0.000271759
0.00236485
-0.00035191
0.00238875
-0.000439543
0.00240362
-0.000531911
0.00240818
-0.00062534
0.00240073
-0.000716371
0.00237941
-0.000803683
0.00234297
-0.000889829
0.00229186
-0.000981086
0.00222895
-0.00108433
0.0021592
-0.00120213
0.00208811
-0.00132939
0.00201946
-0.00145406
-0.00156629
0.00195661
-0.000979289
0.000353944
-0.00268367
0.000447686
-0.00419034
3.38885e-05
-0.00511691
-0.000463058
-0.00532881
-0.000716402
-0.00487418
-0.000716481
-0.00397437
-0.000611342
-0.00287324
-0.000521986
-0.00172355
-0.000465095
-0.000626486
-0.000422196
0.00034686
-0.000385136
0.00113846
-0.000350082
0.00170715
-0.000313449
0.00204636
-0.000281372
0.00218911
-0.000264269
0.00217821
-0.000249174
0.00206629
-0.000235632
0.0019264
-0.000244308
0.00184042
-0.000290416
0.00186858
-0.000361504
0.00203411
-0.000434061
0.00232429
-0.000493408
0.00269617
-0.000537746
0.00307276
-0.000557559
0.00337041
-0.000545728
0.00353529
-0.000495798
0.003561
-0.000408851
0.00347139
-0.000294008
0.00329067
-0.000161206
0.00303707
-2.52862e-05
0.00272498
0.000100688
0.00237275
0.000202316
0.00199747
0.000275827
0.00161067
0.000327054
0.00122887
0.000355016
0.000871317
0.000362991
0.000558021
0.000353277
0.000305398
0.000327472
0.000121985
0.000287863
1.69192e-05
0.000229735
-8.08368e-06
0.000159402
3.33033e-05
9.41105e-05
0.000126061
3.78782e-05
0.000258214
-6.93776e-06
0.000415997
-3.96846e-05
0.000587713
-6.11197e-05
0.000764529
-7.2895e-05
0.000940212
-7.70039e-05
0.00111071
-7.54266e-05
0.00127362
-6.99589e-05
0.00142777
-6.21308e-05
0.00157285
-5.3199e-05
0.00170908
-4.41877e-05
0.00183692
-3.59432e-05
0.00195692
-2.91924e-05
0.00206956
-2.45929e-05
0.00217516
-2.27706e-05
0.00227392
-2.43479e-05
0.00236592
-2.9973e-05
0.00245111
-4.03147e-05
0.00252945
-5.60711e-05
0.0026008
-7.79767e-05
0.00266497
-0.000106785
0.00272177
-0.000143241
0.00277087
-0.000188011
0.00281182
-0.00024155
0.00284394
-0.000303873
0.00286629
-0.000374268
0.00287773
-0.000450983
0.00287693
-0.000531107
0.00286254
-0.000610946
0.00283346
-0.00068729
0.00278925
-0.000759476
0.00273062
-0.000831201
0.0026597
-0.000910166
0.00257973
-0.00100436
0.00249407
-0.00111647
0.00240515
-0.00124047
0.00231398
-0.00136289
-0.00147421
0.00222191
-0.000479181
0.000833125
-0.00184896
0.00181747
-0.00380086
0.00198579
-0.0059144
0.00165047
-0.00776917
0.00113837
-0.00905329
0.000567641
-0.00969878
3.41472e-05
-0.0098187
-0.000402065
-0.00955275
-0.000731043
-0.00900824
-0.000966714
-0.00827104
-0.00112234
-0.0074132
-0.00120792
-0.00647255
-0.00125409
-0.00549658
-0.00125735
-0.00452007
-0.00124078
-0.00356559
-0.00120366
-0.00265281
-0.0011484
-0.00179084
-0.00110628
-0.000978762
-0.00110249
-0.00023433
-0.00110594
0.000447453
-0.00111584
0.00106308
-0.00110903
0.00160227
-0.00107694
0.00206166
-0.00101695
0.00244292
-0.000926981
0.00275052
-0.000803398
0.00298502
-0.000643351
0.00314211
-0.000451101
0.00322161
-0.000240702
0.0032271
-3.07765e-05
0.00316328
0.000164508
0.00303045
0.00033514
0.00283107
0.000475214
0.00257991
0.000578205
0.00229528
0.000639654
0.00200306
0.000655205
0.00173214
0.000624202
0.00150719
0.00055242
0.00134013
0.000454926
0.00122869
0.000341171
0.00116475
0.000223338
0.00113632
0.000122541
0.00113644
3.77624e-05
0.00115937
-2.98714e-05
0.00120007
-8.03776e-05
0.00125459
-0.000115642
0.00131997
-0.000138272
0.00139398
-0.000151023
0.00147502
-0.00015646
0.00156185
-0.000156793
0.00165355
-0.000153832
0.00174935
-0.000148998
0.00184855
-0.000143383
0.00195042
-0.000137813
0.00205416
-0.000132936
0.00215886
-0.000129296
0.00226351
-0.000127411
0.00236697
-0.000127817
0.0024681
-0.000131102
0.00256571
-0.000137926
0.00265865
-0.000149007
0.00274577
-0.0001651
0.00282594
-0.000186956
0.00289796
-0.00021526
0.00296049
-0.000250541
0.00301197
-0.000293024
0.00305053
-0.000342437
0.00307407
-0.000397804
0.00308038
-0.000457295
0.00306762
-0.000518347
0.003035
-0.00057833
0.00298366
-0.000635951
0.00291716
-0.000692975
0.00284098
-0.000755015
0.00276066
-0.000829847
0.0026794
-0.000923107
0.00259664
-0.00103371
0.00250901
-0.00115284
0.00241336
-0.00126724
-0.00136948
0.00230863
0.000985346
-0.000152221
0.00259056
0.000212255
0.00401657
0.000559778
0.00500015
0.000666898
0.00553381
0.000604714
0.00565238
0.000449066
0.00541713
0.000269401
0.00489779
0.000117276
0.00416209
4.65032e-06
0.00327637
-8.09927e-05
0.00230611
-0.000152077
0.00131491
-0.000216723
0.000343481
-0.000282664
-0.000567319
-0.000346545
-0.0014218
-0.000386301
-0.00218376
-0.000441696
-0.00283237
-0.000499789
-0.00338035
-0.000558299
-0.00388037
-0.000602478
-0.00437036
-0.000615941
-0.00489089
-0.000595317
-0.00543859
-0.000561341
-0.00598983
-0.000525695
-0.00650343
-0.000503353
-0.00693588
-0.000494525
-0.00725206
-0.000487217
-0.00743221
-0.000463204
-0.00747215
-0.000411159
-0.00737979
-0.000333062
-0.00717224
-0.000238324
-0.00687107
-0.000136668
-0.00649303
-4.29005e-05
-0.00605406
3.62486e-05
-0.00556201
8.61512e-05
-0.00502073
9.83766e-05
-0.00444129
7.57587e-05
-0.00384933
3.22465e-05
-0.00326993
-2.69831e-05
-0.00272279
-9.22062e-05
-0.00222614
-0.000155486
-0.00179213
-0.000210668
-0.00141534
-0.000254255
-0.00109166
-0.000285913
-0.000814627
-0.000306905
-0.000575709
-0.000319296
-0.000366106
-0.000325245
-0.000177692
-0.000326685
-3.56283e-06
-0.000325153
0.000161749
-0.000321772
0.000322258
-0.000317303
0.000480658
-0.000312231
0.000638524
-0.000306864
0.000796562
-0.00030142
0.000954825
-0.000296077
0.00111291
-0.000291024
0.00127012
-0.000286501
0.00142553
-0.000282824
0.00157811
-0.000280397
0.00172673
-0.000279722
0.00187019
-0.00028138
0.00200719
-0.000286011
0.00213636
-0.000294274
0.00225619
-0.000306783
0.00236497
-0.000324038
0.00246076
-0.000346326
0.00254134
-0.000373609
0.00260433
-0.000405428
0.0026474
-0.000440873
0.00266884
-0.000478733
0.00266844
-0.000517945
0.00264849
-0.000558384
0.00261429
-0.000601748
0.00257324
-0.000651927
0.00253231
-0.000714088
0.00249467
-0.000792209
0.00245765
-0.000886086
0.00241392
-0.000989976
0.00235562
-0.00109454
0.00227931
-0.00119093
-0.00127611
0.00218594
-0.000313365
0.000161145
-0.000110637
9.52627e-06
0.000696507
-0.000247366
0.00171259
-0.000349185
0.00270167
-0.000384367
0.00356096
-0.000410219
0.00426509
-0.000434734
0.00483581
-0.000453441
0.00530661
-0.000466155
0.0056994
-0.00047378
0.00602147
-0.000474144
0.00626776
-0.000463012
0.00642183
-0.000436734
0.00647283
-0.000397547
0.00644868
-0.000362156
0.00636568
-0.000358689
0.00626942
-0.000403527
0.00618822
-0.0004771
0.00612075
-0.000535014
0.00605654
-0.000551725
0.00595224
-0.000491024
0.00573597
-0.000345063
0.00532393
-0.00011366
0.00464637
0.000174203
0.00369519
0.000456661
0.00254493
0.000663038
0.00133226
0.000749464
0.000198817
0.000722289
-0.000758664
0.000624419
-0.00150285
0.000505862
-0.00204214
0.000402622
-0.00241599
0.000330946
-0.00266546
0.000285721
-0.00282561
0.000246299
-0.00291809
0.000190863
-0.00295105
0.000108718
-0.00292085
2.0403e-06
-0.00283467
-0.000113159
-0.00270043
-0.000226447
-0.00252933
-0.000326581
-0.00233663
-0.000403374
-0.00213509
-0.000455797
-0.00193358
-0.000487419
-0.00173668
-0.000503805
-0.00154582
-0.000510154
-0.00136062
-0.000510446
-0.0011801
-0.000507211
-0.00100321
-0.000502038
-0.000829104
-0.00049588
-0.000657146
-0.000489261
-0.000486947
-0.00048243
-0.000318328
-0.000475483
-0.000151296
-0.000468452
1.40022e-05
-0.000461376
0.000177317
-0.00045434
0.000338319
-0.000447503
0.000496601
-0.000441105
0.00065167
-0.000435466
0.000802926
-0.000430978
0.000949629
-0.000428083
0.00109086
-0.000427243
0.00122549