/*--------------------------------*- C++ -*----------------------------------*\
| =========                 |                                                 |
| \\      /  F ield         | OpenFOAM: The Open Source CFD Toolbox           |
|  \\    /   O peration     | Version:  2012                                  |
|   \\  /    A nd           | Website:  www.openfoam.com                      |
|    \\/     M anipulation  |                                                 |
\*---------------------------------------------------------------------------*/
FoamFile
{
    version     2.0;
    format      ascii;
    class       volVectorField;
    location    "0.42";
    object      U;
}
// * * * * * * * * * * * * * * * * * * * * * * * * * * * * * * * * * * * * * //

dimensions      [0 1 -1 0 0 0 0];


internalField   nonuniform List<vector> 
42400
(
(-17.6696 16.2016 3.15445e-17)
(-37.5497 33.6981 4.62238e-17)
(-41.5231 39.875 -4.74477e-17)
(-40.4378 41.0139 0)
(-39.4348 44.7443 0)
(-38.8059 48.5872 4.27591e-19)
(-38.5692 50.2518 0)
(-37.2205 48.5734 -4.25218e-19)
(-34.2125 44.3705 0)
(-30.4154 39.0555 -4.36565e-19)
(-26.3562 33.3071 -4.42526e-19)
(-21.6935 27.0469 4.46083e-19)
(-15.8935 19.9938 -1.01456e-17)
(-8.80751 11.9398 1.03481e-17)
(-0.496733 2.75822 4.0842e-19)
(9.02735 -7.52868 0)
(19.7904 -18.7111 0)
(31.569 -30.1277 0)
(43.4203 -40.3745 0)
(53.6943 -47.6725 0)
(60.7626 -50.7262 0)
(63.8659 -49.3871 4.35235e-19)
(63.2759 -44.6025 1.06606e-17)
(59.8593 -37.8503 1.08416e-18)
(54.6077 -30.5414 -1.12445e-17)
(48.3736 -23.6916 4.00496e-19)
(41.7642 -17.8726 3.85761e-19)
(35.1511 -13.2916 -7.32913e-19)
(28.7358 -9.91137 0)
(22.6174 -7.55476 0)
(16.8527 -5.97844 -1.11838e-17)
(11.5476 -4.96351 1.131e-17)
(6.85661 -4.40516 -4.75816e-19)
(2.9815 -4.25574 1.04745e-17)
(0.0561364 -4.4738 -1.01812e-17)
(-1.89655 -4.98649 0)
(-2.98756 -5.67304 0)
(-3.432 -6.38728 0)
(-3.47321 -7.0032 0)
(-3.31085 -7.43559 8.17494e-18)
(-3.08573 -7.64302 -8.20687e-18)
(-2.88592 -7.62317 6.8417e-18)
(-2.76069 -7.40212 -1.04886e-18)
(-2.73229 -7.0212 -1.13808e-17)
(-2.80492 -6.52976 5.23449e-18)
(-2.96477 -5.98462 -4.17721e-18)
(-3.18157 -5.44102 8.20782e-18)
(-3.41759 -4.93715 -3.76905e-18)
(-3.63852 -4.48268 -2.21565e-19)
(-3.82134 -4.0622 3.01407e-18)
(-3.95458 -3.65146 -5.73563e-18)
(-4.0382 -3.23592 -1.00996e-19)
(-4.07497 -2.80936 2.7683e-18)
(-4.0632 -2.36946 -2.75255e-19)
(-4.00324 -1.92321 0)
(-3.89899 -1.48215 0)
(-3.75482 -1.05754 0)
(-3.57628 -0.659648 1.69668e-19)
(-3.36966 -0.297523 1.49159e-19)
(-3.14094 0.0214135 0)
(-2.89508 0.291723 1.59562e-18)
(-2.63568 0.510051 -1.66997e-18)
(-2.36486 0.675038 -1.19644e-18)
(-2.08336 0.787144 1.1739e-18)
(-1.79069 0.848305 0)
(-1.48525 0.861663 0)
(-1.16443 0.831298 -6.78446e-19)
(-0.824669 0.762017 6.63181e-19)
(-0.4615 0.659257 9.13826e-20)
(-0.0698557 0.529102 0)
(0.355388 0.377455 0)
(0.818955 0.210836 7.09048e-20)
(1.32483 0.0365632 6.64319e-20)
(1.87495 -0.138099 0)
(2.46861 -0.305828 6.05033e-20)
(3.102 -0.459413 3.35777e-19)
(3.76802 -0.592094 -3.25639e-19)
(4.45703 -0.696928 -1.17065e-19)
(5.15873 -0.76131 -3.88301e-19)
(5.79048 -0.786688 -4.96022e-19)
(-6.76101 9.46253 0)
(-17.6167 29.9904 -1.7033e-16)
(-24.4419 41.8589 1.74786e-16)
(-16.9845 48.7017 0)
(-4.84908 50.2885 0)
(5.32444 56.8558 -1.56678e-16)
(10.0342 69.5583 1.59391e-16)
(13.7326 82.705 4.32309e-19)
(20.7283 91.0586 0)
(31.1722 93.8343 4.43747e-19)
(42.9788 93.2748 4.49658e-19)
(54.1718 91.7775 1.29364e-16)
(63.6295 90.5869 -1.03604e-17)
(70.9283 89.6793 -1.25484e-16)
(76.3144 88.2676 -1.04549e-16)
(80.7009 85.0967 1.05358e-16)
(85.1991 78.723 0)
(90.2698 68.2588 -7.61487e-19)
(95.0128 54.2521 0)
(97.3616 38.8408 0)
(95.3117 24.7175 0)
(88.0577 13.7947 4.56062e-17)
(76.3417 6.55797 -3.46305e-18)
(61.9578 2.35451 -4.53456e-17)
(46.942 0.0757604 0)
(32.9618 -1.28441 -1.45134e-20)
(21.0726 -2.3744 -3.8911e-19)
(11.7592 -3.46863 7.38606e-19)
(5.09438 -4.57234 3.05864e-17)
(0.87354 -5.5426 -3.09344e-17)
(-1.33238 -6.22373 4.22192e-19)
(-2.05714 -6.52933 3.72918e-19)
(-1.84074 -6.45853 1.83469e-17)
(-1.11896 -6.0668 -1.83568e-17)
(-0.191 -5.44459 -1.38089e-17)
(0.75342 -4.70259 1.37716e-17)
(1.59499 -3.95072 0)
(2.27115 -3.27214 -2.21747e-19)
(2.75667 -2.72344 0)
(3.0528 -2.3376 -3.79589e-19)
(3.17356 -2.13356 5.57344e-18)
(3.12811 -2.11886 -5.94269e-18)
(2.90379 -2.2759 3.60402e-19)
(2.46734 -2.54429 -3.27053e-19)
(1.78557 -2.83716 3.54858e-20)
(0.860148 -3.07934 -2.75001e-19)
(-0.212543 -3.23585 2.55268e-19)
(-1.26068 -3.3115 3.48743e-18)
(-2.12777 -3.31941 -3.49204e-18)
(-2.74527 -3.24687 0)
(-3.1302 -3.07679 1.97287e-19)
(-3.33431 -2.81573 3.39883e-19)
(-3.40721 -2.49572 2.13687e-18)
(-3.38612 -2.15678 -2.14683e-18)
(-3.29607 -1.82736 -2.80817e-19)
(-3.15832 -1.51742 3.20711e-18)
(-2.99402 -1.22632 -3.63607e-18)
(-2.8208 -0.950754 -1.69576e-19)
(-2.65075 -0.691658 -1.49099e-19)
(-2.48909 -0.455187 2.13299e-18)
(-2.33509 -0.249135 -2.09915e-18)
(-2.18366 -0.0810055 1.01403e-19)
(-2.0273 0.0438907 1.06095e-19)
(-1.85775 0.123225 0)
(-1.66664 0.157227 -1.07622e-18)
(-1.4455 0.147952 8.46459e-20)
(-1.18575 0.0987314 1.27225e-18)
(-0.87848 0.0137558 0)
(-0.514124 -0.102093 -2.26043e-19)
(-0.0859936 -0.2424 1.26807e-19)
(0.411662 -0.400163 7.75569e-19)
(0.982331 -0.56705 -8.26276e-19)
(1.62529 -0.734641 -7.5755e-19)
(2.33531 -0.894073 7.74635e-19)
(3.10233 -1.03652 -1.58832e-19)
(3.91152 -1.15388 6.16528e-19)
(4.74387 -1.23956 -4.15019e-19)
(5.57812 -1.28801 1.17052e-19)
(6.39491 -1.28984 -7.79062e-19)
(7.06841 -1.28449 5.89599e-19)
(-0.867163 -1.16532 -3.16444e-17)
(-1.34865 -3.81016 1.56003e-19)
(7.08986 -12.0758 -1.5219e-19)
(29.5714 -31.2196 1.45703e-19)
(57.0681 -52.0173 0)
(72.4512 -61.1342 -6.0216e-17)
(70.2433 -53.1633 1.10073e-16)
(56.995 -34.3861 -4.95494e-17)
(41.9031 -13.8891 3.04395e-17)
(29.5287 3.53968 -7.48586e-18)
(20.3637 17.4305 -2.38904e-17)
(13.3238 28.929 4.71438e-19)
(7.28334 39.2386 4.71075e-19)
(1.38448 49.2232 -2.8764e-18)
(-4.91984 59.4142 2.92891e-18)
(-11.9843 70.2385 7.71792e-19)
(-19.9856 81.8075 1.87579e-17)
(-28.7728 93.7539 3.73811e-18)
(-37.6911 105.102 -2.20807e-17)
(-45.6459 114.384 -1.13676e-19)
(-51.435 120.192 6.23413e-20)
(-54.2842 121.858 1.60127e-20)
(-54.0397 119.603 0)
(-50.9811 114.122 5.11012e-19)
(-45.5959 106.173 -1.14998e-17)
(-38.4231 96.4042 1.99912e-17)
(-29.9611 85.3227 -8.74286e-18)
(-20.6435 73.2965 3.95396e-18)
(-10.98 60.6804 -4.00701e-18)
(-1.7801 48.0771 -1.30042e-18)
(5.9236 36.4027 2.21588e-18)
(11.3806 26.5483 -1.25767e-19)
(14.5052 18.926 -1.17435e-18)
(15.7503 13.3899 0)
(15.7426 9.51138 0)
(15.0094 6.85372 -2.57676e-19)
(13.899 5.10069 0)
(12.6047 4.05478 2.43712e-20)
(11.1994 3.58308 5.05319e-18)
(9.69838 3.57256 -1.00916e-17)
(8.08168 3.92804 5.35795e-18)
(6.31624 4.55242 0)
(4.41103 5.36451 0)
(2.42542 6.23323 4.14807e-18)
(0.492346 6.9385 -3.88971e-18)
(-1.14152 7.25111 -2.91949e-19)
(-2.19584 6.95881 0)
(-2.50225 5.95387 0)
(-2.13561 4.34113 3.35446e-18)
(-1.4176 2.44164 -3.34279e-18)
(-0.734584 0.63311 -1.96423e-19)
(-0.318278 -0.817731 0)
(-0.191825 -1.82802 -3.11451e-18)
(-0.253938 -2.43639 2.76413e-18)
(-0.386476 -2.71361 -4.36614e-18)
(-0.51816 -2.73109 4.64547e-18)
(-0.627791 -2.5325 -3.3676e-18)
(-0.729627 -2.18119 6.65189e-18)
(-0.835669 -1.74184 -5.77102e-18)
(-0.949537 -1.28597 2.90851e-19)
(-1.06154 -0.867522 2.33524e-18)
(-1.15745 -0.523154 1.90758e-18)
(-1.21999 -0.269835 -1.97984e-18)
(-1.23114 -0.10906 0)
(-1.17503 -0.0338279 1.33679e-18)
(-1.03864 -0.033237 -5.60766e-20)
(-0.812029 -0.0954884 -1.72568e-18)
(-0.489385 -0.210143 0)
(-0.0639771 -0.361623 3.02591e-19)
(0.469057 -0.536691 1.04205e-18)
(1.10552 -0.725992 -9.81176e-19)
(1.83771 -0.918493 0)
(2.6532 -1.10275 0)
(3.53412 -1.26783 -1.02746e-19)
(4.45757 -1.4036 9.82778e-20)
(5.3966 -1.50132 6.36098e-19)
(6.32153 -1.55418 -1.04898e-18)
(7.20227 -1.55734 0)
(8.01334 -1.5056 1.7499e-19)
(8.64477 -1.43444 8.02236e-19)
(-1.10614 1.58319 8.6902e-18)
(11.1973 -6.84739 -1.33883e-17)
(36.6044 -23.3197 6.73224e-18)
(65.5352 -44.7535 5.10728e-18)
(89.894 -64.25 -5.61721e-18)
(106.539 -80.4561 0)
(114.617 -90.9576 8.72262e-19)
(114.962 -94.6705 -5.05477e-19)
(110.433 -93.1077 -6.04444e-19)
(104.073 -89.0427 6.15376e-19)
(97.6728 -84.5592 2.49625e-18)
(91.8818 -80.4902 -8.66237e-18)
(86.7889 -76.9655 1.35517e-17)
(82.2453 -73.8297 -1.88062e-17)
(78.1209 -70.9639 2.23064e-17)
(74.1965 -68.0956 -1.18862e-17)
(69.9602 -64.6414 -6.8285e-18)
(64.226 -59.7943 7.55317e-18)
(55.3913 -52.8613 -1.0148e-18)
(43.0101 -43.6267 1.12443e-19)
(28.758 -32.7343 8.04238e-19)
(15.0116 -21.4665 1.97949e-17)
(3.19382 -10.8874 -2.08985e-17)
(-6.46443 -1.57524 -5.06644e-20)
(-14.1122 6.28062 0)
(-19.9895 12.6807 -8.36772e-20)
(-24.3491 17.7526 0)
(-27.4123 21.6206 -1.49675e-17)
(-29.2657 24.2435 2.92327e-18)
(-29.8198 25.4392 1.20043e-17)
(-28.9192 25.1995 6.03698e-18)
(-26.4879 23.7173 -6.05454e-18)
(-22.7126 21.4582 -1.27557e-19)
(-17.9763 18.8325 -1.21477e-19)
(-12.7716 16.1595 -4.73558e-18)
(-7.57867 13.7339 4.89393e-18)
(-2.78832 11.769 0)
(1.31946 10.3584 7.87949e-18)
(4.60291 9.5126 -7.72678e-18)
(7.04321 9.16803 4.00524e-19)
(8.69914 9.24976 -2.93774e-19)
(9.67458 9.70032 0)
(10.0617 10.4375 0)
(9.95959 11.389 0)
(9.5095 12.5245 -2.90202e-19)
(8.84806 13.7791 5.58656e-18)
(8.09295 15.0292 -5.28594e-18)
(7.32414 16.121 0)
(6.56303 16.8933 0)
(5.79679 17.2176 3.74352e-18)
(5.02814 17.0214 -3.54317e-18)
(4.30801 16.297 2.63308e-18)
(3.72488 15.0824 -2.04805e-18)
(3.35864 13.4554 1.93218e-19)
(3.21648 11.5524 -1.06813e-18)
(3.18941 9.55669 1.40757e-18)
(3.0971 7.69754 -1.44581e-18)
(2.78405 6.14322 1.34471e-18)
(2.22014 4.94938 0)
(1.49955 4.05425 -7.63185e-20)
(0.770449 3.35762 -1.12227e-18)
(0.153663 2.77909 -8.77786e-21)
(-0.289437 2.27321 2.53074e-18)
(-0.543407 1.81824 -2.50364e-18)
(-0.613739 1.40293 1.13253e-18)
(-0.511321 1.01903 1.43841e-18)
(-0.246289 0.660069 -1.03741e-18)
(0.172859 0.322621 -1.96942e-19)
(0.732443 -0.000164943 -1.42777e-18)
(1.41817 -0.312281 1.42181e-18)
(2.21746 -0.607531 -3.50672e-19)
(3.11075 -0.880862 -1.5479e-18)
(4.07343 -1.12619 1.32327e-18)
(5.07678 -1.33614 0)
(6.08876 -1.50293 -1.20471e-18)
(7.07519 -1.61925 2.74107e-19)
(8.0015 -1.67923 2.52644e-18)
(8.83579 -1.67805 -1.06879e-18)
(9.54606 -1.621 1.02102e-18)
(10.082 -1.49633 -9.89715e-19)
(15.0238 -8.55431 3.81913e-17)
(27.7206 -16.3247 0)
(22.3768 -13.6784 0)
(12.7148 -10.9891 3.84631e-19)
(7.84597 -15.2778 0)
(8.30642 -26.1096 0)
(8.77993 -38.8466 0)
(4.42689 -49.2512 -1.87345e-21)
(-5.05217 -56.2402 0)
(-17.3616 -60.7705 -4.73759e-19)
(-30.3152 -64.1251 1.08045e-16)
(-42.3257 -67.3475 -2.25908e-16)
(-52.226 -71.0496 1.18382e-16)
(-59.6987 -75.1073 0)
(-65.4994 -78.4337 -5.92031e-19)
(-70.7007 -79.6551 -1.47195e-19)
(-75.6918 -78.1121 0)
(-79.7785 -74.7676 1.51283e-16)
(-81.7881 -71.5921 -3.02244e-16)
(-80.9546 -69.4925 8.25017e-18)
(-77.4561 -67.6259 1.40425e-16)
(-72.3129 -64.9808 8.14176e-19)
(-66.535 -61.4448 0)
(-60.5541 -57.335 -9.21642e-17)
(-54.2629 -52.848 9.53752e-17)
(-47.568 -48.1937 -6.75192e-17)
(-40.4922 -43.5933 6.8896e-17)
(-33.1218 -39.2008 4.45751e-17)
(-25.5804 -35.1329 -4.47271e-17)
(-18.0556 -31.4816 0)
(-10.7613 -28.1967 -1.85256e-17)
(-4.01095 -25.2787 1.8664e-17)
(1.83777 -22.6011 1.38418e-19)
(6.58214 -20.075 -5.0068e-18)
(10.1288 -17.5893 5.16391e-18)
(12.454 -15.0371 -1.96798e-19)
(13.6066 -12.3678 8.03493e-20)
(13.7005 -9.61188 -8.2364e-19)
(12.9351 -6.8821 8.26833e-19)
(11.57 -4.33177 1.64978e-18)
(9.86064 -2.08571 8.4892e-19)
(8.01865 -0.178406 -2.20972e-18)
(6.18702 1.42968 0)
(4.45035 2.82368 9.40966e-20)
(2.85448 4.05335 -3.14535e-18)
(1.41936 5.13527 7.26579e-18)
(0.156467 6.09036 -7.07932e-18)
(-0.938495 6.91246 3.35544e-18)
(-1.87288 7.58573 0)
(-2.64773 8.1001 1.13318e-19)
(-3.2538 8.44751 -2.28646e-18)
(-3.67566 8.61733 2.18581e-18)
(-3.90374 8.59778 -1.078e-19)
(-3.95063 8.38144 -1.2474e-18)
(-3.85946 7.97517 9.0754e-19)
(-3.69421 7.40483 -8.27338e-19)
(-3.5126 6.71843 -7.60874e-19)
(-3.34272 5.97643 1.56593e-18)
(-3.17935 5.23728 -1.39818e-18)
(-2.99874 4.54174 1.45457e-18)
(-2.77759 3.90781 0)
(-2.5021 3.33604 -8.09021e-20)
(-2.16605 2.81821 -1.52113e-18)
(-1.76457 2.34374 1.31414e-18)
(-1.29062 1.90242 3.93558e-19)
(-0.735393 1.48536 0)
(-0.0907114 1.08558 1.73693e-18)
(0.647794 0.697619 -1.47361e-18)
(1.48079 0.319845 -1.97221e-19)
(2.40033 -0.0454582 -2.28343e-19)
(3.3917 -0.395937 4.1812e-19)
(4.43418 -0.726629 -3.32465e-20)
(5.50118 -1.03077 -1.79757e-18)
(6.56158 -1.30067 1.5389e-18)
(7.58171 -1.5282 -1.98456e-19)
(8.52749 -1.70529 0)
(9.36639 -1.8246 -1.63758e-18)
(10.0706 -1.87871 1.29026e-18)
(10.6075 -1.87771 0)
(10.9984 -1.7618 -1.18258e-18)
(-3.41627 1.41949 7.41655e-19)
(-25.4951 7.50311 2.43993e-17)
(-53.5221 23.5996 -1.95552e-17)
(-80.1058 32.452 3.59653e-17)
(-96.0274 39.711 -1.6678e-17)
(-106.245 44.4837 -4.27836e-19)
(-111.376 47.3322 -2.55488e-18)
(-111.299 48.0282 2.66686e-18)
(-106.462 46.7218 4.15378e-19)
(-98.2426 44.1958 8.55059e-19)
(-88.3887 41.2875 -1.42696e-17)
(-78.0066 38.4128 -2.07675e-17)
(-66.5567 35.1613 3.65626e-17)
(-52.0846 30.3146 -4.38247e-17)
(-33.7011 23.1357 9.14765e-17)
(-13.7585 14.6718 -4.62703e-17)
(3.58225 7.38211 0)
(15.9463 3.21768 0)
(24.0195 2.42795 5.64068e-17)
(29.3182 4.11944 1.09983e-18)
(32.4413 7.29116 -5.63194e-17)
(33.6787 11.1131 4.93361e-17)
(33.7503 14.8329 -9.36325e-17)
(33.4896 17.9751 4.31188e-17)
(33.296 20.4094 2.92385e-17)
(33.1371 22.1807 -6.89877e-18)
(32.8107 23.3504 -2.46259e-17)
(32.1248 23.9332 -3.19363e-20)
(30.9402 23.8662 4.34298e-20)
(29.2311 23.0565 -1.01325e-19)
(27.1569 21.4881 0)
(24.9405 19.0952 -3.3679e-18)
(22.8713 15.8389 8.78782e-18)
(21.2513 11.8199 -5.43469e-18)
(20.0717 7.28214 0)
(19.0944 2.75264 6.51064e-18)
(17.8887 -1.08892 -6.56817e-18)
(16.0879 -3.72045 0)
(13.6237 -5.03579 0)
(10.7745 -5.31836 2.74477e-18)
(7.92703 -4.99726 -2.78542e-18)
(5.32957 -4.39681 1.3735e-19)
(3.06549 -3.66638 0)
(1.10395 -2.87601 -1.5927e-19)
(-0.608756 -2.07386 2.45221e-19)
(-2.1013 -1.26956 -4.22654e-19)
(-3.38176 -0.464307 2.10245e-20)
(-4.45087 0.329136 1.21248e-19)
(-5.30727 1.09582 0)
(-5.94826 1.81783 -9.29261e-19)
(-6.37241 2.47303 1.47206e-18)
(-6.58283 3.03721 -7.59039e-19)
(-6.59189 3.48755 -1.40955e-19)
(-6.42497 3.80731 -6.69282e-19)
(-6.12015 3.99088 1.28914e-19)
(-5.72198 4.04626 1.01455e-18)
(-5.27175 3.99362 -3.75002e-19)
(-4.79913 3.85907 0)
(-4.3187 3.66821 0)
(-3.83153 3.44138 7.11445e-20)
(-3.33081 3.19102 8.09312e-20)
(-2.80575 2.92325 0)
(-2.24378 2.64045 1.51507e-18)
(-1.63199 2.34291 -1.47996e-18)
(-0.958516 2.03 -2.00923e-18)
(-0.214093 1.70094 -3.5116e-19)
(0.606295 1.35532 1.61059e-18)
(1.50239 0.994442 -1.96226e-18)
(2.46782 0.621449 1.91621e-18)
(3.48932 0.239767 -3.18769e-20)
(4.5468 -0.145302 1.71317e-18)
(5.61428 -0.526792 -1.66725e-18)
(6.66163 -0.896708 -1.62077e-18)
(7.65701 -1.24634 2.02188e-18)
(8.56956 -1.56622 -1.49614e-18)
(9.37128 -1.84581 1.64489e-18)
(10.0377 -2.07356 -1.5493e-18)
(10.5478 -2.23862 2.98362e-18)
(10.8847 -2.3338 -1.5733e-20)
(11.0675 -2.32162 -9.0049e-21)
(-15.1717 8.26436 -1.54169e-17)
(-35.4476 24.3369 -1.90998e-19)
(-41.5901 26.1125 3.22147e-17)
(-24.9689 20.0401 -6.96495e-17)
(1.25284 6.67666 3.77697e-17)
(27.1987 -4.56904 -4.67617e-17)
(45.62 -12.1876 -5.14712e-18)
(55.2104 -16.4282 5.29455e-17)
(58.1848 -18.0687 -6.05686e-17)
(56.45 -18.0316 5.95342e-17)
(51.1122 -17.0113 -5.95825e-17)
(43.8175 -15.3825 6.01422e-17)
(37.586 -13.5327 -5.58119e-17)
(34.8415 -11.5381 5.6594e-17)
(35.4059 -9.47819 -2.27441e-19)
(36.8413 -7.76565 -1.94796e-19)
(37.2404 -6.82843 -8.45782e-17)
(36.2855 -6.8593 8.57968e-17)
(34.3215 -7.79022 1.12916e-19)
(31.4998 -9.48022 -4.32653e-19)
(27.99 -11.6328 -4.85747e-17)
(23.9941 -13.9143 4.84727e-17)
(19.6231 -15.9805 0)
(14.9152 -17.551 3.01347e-19)
(9.92755 -18.4148 0)
(4.76035 -18.4449 0)
(-0.448618 -17.6094 3.09637e-19)
(-5.47946 -15.9488 1.65608e-17)
(-10.0268 -13.6156 -1.70898e-17)
(-13.7526 -10.8769 -9.40957e-18)
(-16.3635 -8.02416 9.6247e-18)
(-17.7239 -5.2924 -1.09475e-19)
(-17.9447 -2.87076 1.06924e-19)
(-17.1771 -0.926788 0)
(-15.5663 0.275598 3.51265e-19)
(-12.9945 0.473079 0)
(-9.46617 -0.441288 0)
(-5.60904 -2.11346 2.34829e-19)
(-2.46537 -3.77147 0)
(-0.668094 -4.82164 0)
(-0.108805 -5.19749 -1.83441e-18)
(-0.327331 -5.12705 1.73417e-18)
(-0.912134 -4.83134 0)
(-1.62447 -4.42126 0)
(-2.34956 -3.93337 0)
(-3.03384 -3.38499 1.65184e-19)
(-3.65171 -2.78412 -2.10749e-20)
(-4.18807 -2.13876 -1.03543e-18)
(-4.63214 -1.46124 1.04165e-18)
(-4.97573 -0.769155 -6.93313e-19)
(-5.21284 -0.0841623 7.47869e-19)
(-5.34031 0.569971 -4.20636e-20)
(-5.35907 1.17008 -3.69231e-20)
(-5.27505 1.69658 0)
(-5.09894 2.13601 0)
(-4.84434 2.48231 -1.35506e-19)
(-4.52506 2.7364 -1.65965e-19)
(-4.1525 2.90427 2.48062e-19)
(-3.73399 2.9947 -4.8147e-19)
(-3.27214 3.01696 4.70388e-19)
(-2.76539 2.9793 1.29627e-18)
(-2.20926 2.88834 2.07569e-19)
(-1.59761 2.74902 -3.15269e-18)
(-0.924163 2.56479 1.6947e-18)
(-0.184117 2.33803 1.2764e-19)
(0.624441 2.07068 2.4067e-19)
(1.49925 1.76483 2.16634e-18)
(2.4329 1.42346 -4.33e-18)
(3.4124 1.05048 2.16065e-18)
(4.41862 0.6511 2.59907e-19)
(5.42682 0.231926 2.19878e-18)
(6.4085 -0.199472 -2.42738e-18)
(7.33467 -0.634976 0)
(8.1798 -1.06586 -2.37581e-19)
(8.92439 -1.48174 0)
(9.55427 -1.86902 1.84831e-18)
(10.0571 -2.21041 -2.81724e-20)
(10.4197 -2.48631 -1.71088e-18)
(10.6334 -2.67237 1.1793e-18)
(10.6766 -2.79154 3.88381e-19)
(-15.5213 6.78879 3.19985e-17)
(-35.5482 15.5693 -4.80022e-17)
(-44.429 19.3481 -4.21989e-20)
(-50.0508 19.1269 -4.63118e-17)
(-57.2958 19.683 4.7238e-17)
(-65.8778 19.4803 -4.51568e-17)
(-75.6818 18.3637 9.0814e-17)
(-85.5619 16.5354 -4.42228e-17)
(-93.6313 14.1478 3.99432e-17)
(-98.7868 11.2359 -3.93096e-17)
(-99.9002 6.9816 0)
(-91.1128 -2.42521 5.91532e-19)
(-60.7966 -22.9204 1.38509e-20)
(-9.28627 -51.6507 0)
(36.9884 -74.1458 0)
(52.5054 -80.5524 0)
(42.8883 -74.7067 0)
(27.9 -64.8842 8.73952e-20)
(16.037 -55.4771 0)
(6.82691 -47.3125 -1.94964e-18)
(-0.264355 -40.0659 2.8195e-18)
(-5.01774 -33.7193 1.50764e-18)
(-7.40989 -28.4597 -1.18861e-18)
(-7.64881 -24.3096 6.46814e-18)
(-6.15652 -21.11 -6.77158e-18)
(-3.55865 -18.6306 1.57689e-17)
(-0.516797 -16.5883 -1.62921e-17)
(2.48667 -14.6564 2.31422e-17)
(5.16278 -12.5499 2.20087e-18)
(7.34133 -10.1075 -2.54522e-17)
(8.92526 -7.3006 0)
(9.86988 -4.23567 -3.08524e-19)
(10.2279 -1.15238 -3.63678e-19)
(10.1655 1.65641 0)
(9.86559 3.87579 -3.57106e-19)
(9.49494 5.2735 0)
(9.06502 5.7881 0)
(8.42645 5.56653 -1.39231e-17)
(7.46102 4.87435 2.48203e-17)
(6.20295 3.99174 -1.14373e-17)
(4.79727 3.11198 -7.69876e-18)
(3.39426 2.33247 7.96941e-18)
(2.10142 1.69203 1.90613e-19)
(0.973867 1.19406 0)
(0.0276455 0.828395 -4.36304e-18)
(-0.746334 0.585652 3.91075e-18)
(-1.37126 0.459916 0)
(-1.87489 0.446183 0)
(-2.28281 0.536922 1.87321e-18)
(-2.6143 0.7199 -2.12008e-18)
(-2.88051 0.977491 -1.46687e-18)
(-3.08484 1.2875 1.35047e-18)
(-3.22513 1.62526 7.75033e-19)
(-3.29678 1.96648 -1.22152e-18)
(-3.29519 2.28969 4.85179e-19)
(-3.2176 2.5782 1.77431e-20)
(-3.06353 2.82078 0)
(-2.8342 3.0111 3.67758e-20)
(-2.5316 3.14667 -4.13056e-19)
(-2.15747 3.22736 1.01334e-18)
(-1.71286 3.25418 -6.06578e-19)
(-1.19805 3.22838 0)
(-0.613001 3.15099 -1.0792e-19)
(0.0418543 3.02275 0)
(0.764582 2.84429 -1.2753e-19)
(1.55082 2.61644 -1.53255e-19)
(2.39278 2.34067 -3.17924e-19)
(3.27828 2.01968 -2.49174e-18)
(4.19021 1.65766 2.1045e-18)
(5.10629 1.26044 -3.29028e-19)
(6.00039 0.835015 -2.47405e-18)
(6.84584 0.388588 3.0153e-18)
(7.62091 -0.0722427 -2.35156e-18)
(8.31376 -0.54103 2.28702e-18)
(8.92274 -1.0089 -2.46817e-18)
(9.44971 -1.46094 1.83855e-18)
(9.89053 -1.87442 1.98429e-18)
(10.2314 -2.2195 -1.9237e-18)
(10.4515 -2.47322 4.28258e-19)
(10.515 -2.67703 -4.11965e-19)
(-15.0674 8.27142 2.62304e-17)
(-31.7492 19.896 3.7195e-17)
(-38.9112 24.3078 -7.33091e-17)
(-41.1565 28.6516 7.03356e-17)
(-44.0795 30.7132 -3.46361e-17)
(-44.0735 31.0247 5.75076e-20)
(-40.597 29.5477 2.77855e-17)
(-34.5945 27.6461 -5.37481e-17)
(-27.6629 26.8762 2.48524e-18)
(-21.2543 27.7626 2.33953e-17)
(-15.8408 30.2954 -4.89599e-19)
(-10.7256 33.7912 -1.76115e-17)
(-4.10208 36.3856 1.79882e-17)
(5.60962 35.7892 -1.60823e-17)
(17.143 31.3406 1.63714e-17)
(27.0018 24.8083 1.25113e-17)
(33.2972 18.8225 -1.27363e-17)
(37.0318 14.6531 -8.35659e-20)
(40.0299 11.9048 0)
(43.5129 9.68036 -9.17973e-18)
(47.9394 7.41568 9.04491e-18)
(53.0457 5.03658 5.18613e-19)
(57.9557 2.90582 1.07005e-17)
(61.7164 1.39511 -1.13375e-17)
(63.7648 0.578393 3.24367e-19)
(64.2142 0.206935 0)
(63.7683 0.0221159 -3.77024e-19)
(63.1805 -0.179335 -3.4822e-19)
(62.7543 -0.496102 -1.66466e-17)
(62.2104 -0.795315 1.71966e-17)
(60.8058 -0.715357 9.84133e-18)
(57.5591 0.201925 -9.4744e-18)
(51.6627 2.23637 6.63561e-19)
(43.2873 5.28484 1.13913e-18)
(33.3886 8.84479 -5.47337e-18)
(23.347 12.1719 4.125e-18)
(14.5447 14.6271 7.25051e-18)
(7.75282 15.8877 -7.26077e-18)
(3.06034 15.9683 2.77091e-19)
(0.1306 15.1351 6.33153e-20)
(-1.51722 13.7439 -2.48927e-19)
(-2.33467 12.1189 6.38967e-18)
(-2.66883 10.4832 -8.98761e-19)
(-2.74694 8.9645 -5.69901e-18)
(-2.70003 7.62459 4.59364e-18)
(-2.5987 6.48427 -4.30747e-18)
(-2.48135 5.54373 0)
(-2.37076 4.79379 -2.69019e-18)
(-2.28078 4.22113 2.71091e-18)
(-2.21776 3.80989 -1.58108e-18)
(-2.1805 3.54148 4.54652e-19)
(-2.16092 3.39453 3.24958e-19)
(-2.14544 3.34615 2.93299e-19)
(-2.11814 3.37194 2.66648e-19)
(-2.06337 3.44746 4.11145e-19)
(-1.96711 3.55095 -2.51575e-20)
(-1.81848 3.6636 0)
(-1.60988 3.77001 -4.88368e-19)
(-1.33654 3.85824 3.87152e-19)
(-0.995851 3.91926 0)
(-0.586718 3.94632 -1.03383e-18)
(-0.109185 3.9343 7.56798e-19)
(0.43567 3.87927 0)
(1.04555 3.7782 -1.60734e-19)
(1.71647 3.62891 0)
(2.44225 3.43042 -2.53345e-18)
(3.21378 3.18351 5.5264e-18)
(4.01803 2.89089 -2.69851e-18)
(4.83719 2.55748 3.28725e-19)
(5.64863 2.19009 3.28759e-19)
(6.42707 1.79623 -2.75458e-18)
(7.15001 1.38209 2.36411e-18)
(7.80533 0.950852 -3.41605e-19)
(8.39643 0.503297 -3.29894e-19)
(8.9385 0.0421728 6.06288e-19)
(9.44496 -0.421437 2.769e-19)
(9.91267 -0.863945 2.48364e-18)
(10.3176 -1.25198 -5.01662e-20)
(10.6232 -1.56126 -2.27077e-18)
(10.7798 -1.82435 -4.88895e-19)
(-6.64394 3.15803 0)
(-16.4404 10.837 -2.79317e-19)
(-32.391 20.8523 -1.92322e-19)
(-49.0256 33.4252 -3.35571e-17)
(-67.4137 44.6207 6.83267e-17)
(-80.5747 51.6477 -6.96705e-17)
(-80.4511 50.6937 3.55063e-17)
(-65.7481 42.4371 0)
(-41.5191 30.3345 5.03941e-19)
(-13.9415 17.3152 -4.24221e-17)
(12.8875 5.12367 4.38494e-17)
(36.6994 -5.12599 4.43999e-17)
(55.849 -12.6477 -8.97631e-17)
(69.0796 -17.0572 1.6731e-18)
(76.1429 -18.6927 2.51265e-18)
(77.8377 -18.098 4.2234e-17)
(75.7343 -15.9616 1.49522e-19)
(71.4195 -12.9888 -3.40377e-17)
(65.7082 -9.64317 3.455e-17)
(58.8117 -6.22593 3.04188e-19)
(50.7406 -2.95608 5.72223e-20)
(41.4975 0.0700164 -4.56335e-19)
(31.4406 2.63646 -2.01362e-17)
(21.4047 4.46599 3.10746e-18)
(12.4513 5.44294 1.76247e-17)
(5.24934 5.69868 1.57773e-20)
(-0.147535 5.36969 -1.21428e-17)
(-3.96346 4.44748 2.43266e-17)
(-6.44247 2.87601 -2.20625e-17)
(-7.89072 0.728725 1.0416e-17)
(-8.72034 -1.75278 0)
(-9.3365 -4.21495 -1.68563e-17)
(-9.97453 -6.26821 3.19819e-17)
(-10.6046 -7.57985 -1.5376e-17)
(-11.2798 -7.96944 1.2247e-17)
(-11.919 -7.48528 -1.25069e-17)
(-12.2725 -6.32742 -3.87622e-20)
(-12.2203 -4.79921 0)
(-11.7637 -3.17785 7.34061e-20)
(-10.9896 -1.6525 -3.09424e-18)
(-10.0164 -0.323994 3.05725e-18)
(-8.95251 0.769864 4.66951e-21)
(-7.87931 1.63156 -1.16262e-20)
(-6.84959 2.28615 0)
(-5.89311 2.76794 0)
(-5.02559 3.11325 -6.50715e-19)
(-4.255 3.35646 7.15316e-19)
(-3.58449 3.52804 1.10346e-19)
(-3.01313 3.65406 5.84672e-19)
(-2.53583 3.75572 -1.04549e-18)
(-2.14325 3.8492 4.50982e-19)
(-1.82207 3.94563 0)
(-1.55589 4.05123 5.16576e-20)
(-1.32629 4.16757 -3.2723e-20)
(-1.11464 4.29251 0)
(-0.903212 4.42127 5.45352e-19)
(-0.676324 4.54739 -5.26277e-19)
(-0.421017 4.66374 8.31372e-19)
(-0.127268 4.76321 -6.80507e-19)
(0.212148 4.83914 0)
(0.601967 4.88552 2.87769e-19)
(1.04484 4.89697 1.37713e-19)
(1.54176 4.86901 -1.37601e-18)
(2.09221 4.79796 6.70349e-20)
(2.69408 4.68116 1.41513e-18)
(3.34328 4.51748 0)
(4.03285 4.30782 1.80046e-19)
(4.75161 4.05554 0)
(5.48278 3.76668 0)
(6.20379 3.44934 -3.07032e-18)
(6.88919 3.11177 2.99373e-18)
(7.5179 2.75933 2.54935e-18)
(8.0831 2.39146 3.23967e-19)
(8.5981 2.00178 -2.42431e-18)
(9.0905 1.58329 -2.92918e-18)
(9.58383 1.13762 2.53699e-18)
(10.0774 0.68258 -2.8819e-19)
(10.539 0.250245 -2.23484e-18)
(10.9183 -0.124569 4.79829e-18)
(11.1486 -0.470678 -1.55675e-18)
(30.2829 -10.6108 2.71932e-17)
(67.5283 -18.481 -1.97963e-17)
(70.712 -17.5121 -1.38176e-17)
(52.8805 -1.41132 1.41823e-17)
(17.8345 21.1001 1.71752e-19)
(-18.2736 44.0634 1.59265e-19)
(-40.2588 59.566 0)
(-46.8689 67.0688 -3.02298e-18)
(-44.8167 69.3623 3.40226e-18)
(-39.4163 68.5069 0)
(-32.6915 65.2533 1.15907e-17)
(-25.0838 59.9795 -2.58429e-17)
(-17.0342 53.2215 -1.48514e-18)
(-9.45143 45.8587 3.40665e-17)
(-3.1747 38.6587 -1.78538e-17)
(1.09587 32.2718 1.72437e-19)
(3.12676 26.9492 -7.12174e-19)
(3.0782 22.6951 0)
(1.22403 19.4397 -1.94383e-17)
(-2.0618 17.0624 1.98535e-17)
(-6.05846 15.2774 -4.86642e-19)
(-9.55557 13.683 -1.86625e-17)
(-10.8461 11.7239 1.85099e-17)
(-8.59722 9.08796 -1.62476e-17)
(-3.02752 5.9905 1.64945e-17)
(3.7434 3.17317 -1.58012e-20)
(9.16219 1.29606 -1.15929e-17)
(12.1162 0.436109 1.45345e-18)
(13.0344 0.216999 1.92323e-17)
(12.7453 0.226163 -8.74628e-19)
(11.7714 0.226398 -7.87157e-18)
(10.3428 0.150792 -6.01626e-18)
(8.57722 0.0259955 6.25651e-18)
(6.58681 -0.0854462 0)
(4.52177 -0.117278 8.65274e-20)
(2.53233 -0.0276552 7.90894e-20)
(0.751816 0.185236 0)
(-0.738403 0.48043 -3.6891e-18)
(-1.87828 0.818925 3.67321e-18)
(-2.65532 1.17014 -1.80056e-20)
(-3.09737 1.52335 0)
(-3.25915 1.87893 -4.66112e-21)
(-3.20585 2.23857 -1.06785e-18)
(-3.00244 2.59829 1.07296e-18)
(-2.70681 2.95215 0)
(-2.36313 3.29737 3.54378e-19)
(-2.00385 3.63124 -4.07284e-19)
(-1.65202 3.94996 0)
(-1.32215 4.25041 0)
(-1.02127 4.53105 9.62376e-21)
(-0.750608 4.79188 4.45275e-22)
(-0.50701 5.03399 0)
(-0.284078 5.25868 6.95822e-19)
(-0.0734436 5.46686 -7.07867e-19)
(0.134199 5.65865 -9.66491e-19)
(0.348268 5.83324 -3.85851e-20)
(0.577539 5.98891 2.25935e-18)
(0.829696 6.12318 -2.46478e-18)
(1.11108 6.233 -2.47877e-19)
(1.42666 6.31499 1.15461e-18)
(1.78018 6.36562 -1.63955e-19)
(2.17446 6.38145 0)
(2.61158 6.35912 0)
(3.09312 6.2957 1.67933e-18)
(3.6199 6.18911 -1.86882e-18)
(4.19103 6.03839 0)
(4.80242 5.84429 2.20959e-19)
(5.44467 5.60998 0)
(6.10103 5.34132 1.67473e-18)
(6.74699 5.04645 -1.63444e-18)
(7.35362 4.73399 4.05887e-19)
(7.89648 4.40958 3.45811e-18)
(8.36814 4.07195 -2.99993e-18)
(8.78706 3.71137 3.6203e-19)
(9.1928 3.31403 0)
(9.62428 2.87236 0)
(10.0919 2.39589 0)
(10.5625 1.91177 -2.6315e-18)
(10.9721 1.46259 -2.0899e-19)
(11.2487 1.02294 4.17721e-18)
(10.0065 -4.55207 -7.04893e-17)
(25.8625 -22.3171 -9.88999e-17)
(43.556 -33.1845 1.01307e-16)
(49.1959 -46.9407 -8.94466e-17)
(37.3324 -43.1034 9.2054e-17)
(9.03693 -30.761 2.88981e-19)
(-18.6575 -17.1395 2.73936e-19)
(-34.6875 -6.25798 0)
(-40.1289 1.61578 -3.18713e-19)
(-38.8704 7.16301 0)
(-33.1391 10.641 2.16796e-19)
(-24.3787 12.1382 7.02204e-17)
(-14.1332 11.9216 -7.1396e-17)
(-3.95196 10.4838 -6.34866e-17)
(4.88036 8.46636 6.43669e-17)
(11.5734 6.39352 -5.43753e-17)
(15.9328 4.55872 5.63875e-17)
(18.2724 3.11069 0)
(19.2524 2.19071 0)
(19.4851 1.96024 0)
(19.317 2.51097 3.39916e-17)
(18.9234 3.79357 -6.44685e-17)
(18.3864 5.61945 3.85654e-18)
(17.6707 7.70125 5.21702e-17)
(16.6236 9.69685 -2.48236e-17)
(15.0734 11.3169 0)
(12.9551 12.4352 -2.04672e-20)
(10.3805 13.0676 0)
(7.62203 13.2629 1.2637e-17)
(5.03227 13.0285 -1.27107e-17)
(2.94216 12.342 -2.40688e-19)
(1.57237 11.2024 0)
(0.978463 9.66636 -5.5489e-18)
(0.987282 7.86456 9.55092e-18)
(1.24027 5.98335 -4.16467e-18)
(1.34915 4.22771 2.1656e-18)
(1.12812 2.75893 -3.63536e-18)
(0.661383 1.63178 1.46293e-18)
(0.17874 0.820415 0)
(-0.141953 0.301275 0)
(-0.227729 0.0599485 0)
(-0.112239 0.0696879 3.17017e-19)
(0.13051 0.282443 -1.19706e-18)
(0.426377 0.660953 8.86502e-19)
(0.723284 1.16595 0)
(0.989479 1.75048 -1.31612e-18)
(1.21186 2.37498 1.30022e-18)
(1.38894 3.00859 1.46037e-18)
(1.52552 3.62847 -6.22764e-20)
(1.62974 4.21928 6.36165e-20)
(1.71072 4.7716 5.93616e-20)
(1.77754 5.28032 -1.61544e-18)
(1.83889 5.74334 0)
(1.90289 6.16029 0)
(1.97699 6.53162 -1.64516e-18)
(2.06799 6.85793 1.80715e-18)
(2.18187 7.13953 0)
(2.32381 7.37638 0)
(2.4983 7.5682 1.31922e-19)
(2.70912 7.71456 2.05243e-19)
(2.95948 7.81497 0)
(3.25217 7.86897 0)
(3.58969 7.87606 -2.53142e-19)
(3.97409 7.83586 -2.49504e-19)
(4.40654 7.74815 2.11044e-18)
(4.88617 7.61309 -3.71584e-18)
(5.4083 7.43161 -2.30077e-19)
(5.96214 7.20597 3.59203e-18)
(6.5288 6.94036 -3.72874e-18)
(7.08095 6.64113 3.40579e-18)
(7.58663 6.31596 -6.29517e-19)
(8.01925 5.9715 -1.59638e-18)
(8.3725 5.60967 3.02451e-18)
(8.6719 5.22498 -4.17732e-20)
(8.97075 4.80651 -5.58309e-18)
(9.32399 4.34593 3.02225e-18)
(9.75145 3.84764 0)
(10.2165 3.33068 6.00558e-19)
(10.6382 2.83183 0)
(10.948 2.33544 -2.10599e-18)
(-28.232 7.69712 0)
(-46.0318 8.43196 1.97234e-19)
(-18.8978 -8.2303 -1.85032e-19)
(23.1621 -32.3116 -8.58172e-18)
(56.7999 -53.5282 1.73962e-17)
(81.4202 -69.2823 -9.68486e-18)
(97.1236 -78.9379 -2.7048e-19)
(105.222 -83.0702 0)
(107.479 -83.0279 0)
(105.155 -79.8812 0)
(99.0442 -74.387 -2.12838e-19)
(89.7498 -67.0964 -3.98352e-19)
(78.2255 -58.5641 0)
(66.3209 -49.7243 2.16958e-19)
(55.7947 -41.5178 7.37499e-19)
(47.1558 -34.3033 2.37962e-17)
(40.891 -27.9163 -2.46095e-17)
(38.2464 -22.3698 -4.52686e-19)
(39.3365 -18.213 0)
(42.5306 -15.3891 4.53541e-19)
(46.0244 -13.0934 7.63704e-20)
(48.7777 -10.7983 2.33304e-17)
(50.3107 -8.45119 -1.09704e-18)
(50.3261 -6.07978 -2.26886e-17)
(48.5825 -3.60854 3.91746e-20)
(44.947 -0.950621 3.56597e-19)
(39.5095 1.88108 -1.59277e-17)
(32.6984 4.76157 1.49279e-17)
(25.1445 7.50426 5.24242e-19)
(17.4215 9.92802 -2.01005e-20)
(9.97321 11.8984 -2.2392e-20)
(3.15814 13.3457 -5.27613e-18)