/*--------------------------------*- C++ -*----------------------------------*\
| =========                 |                                                 |
| \\      /  F ield         | OpenFOAM: The Open Source CFD Toolbox           |
|  \\    /   O peration     | Version:  2012                                  |
|   \\  /    A nd           | Website:  www.openfoam.com                      |
|    \\/     M anipulation  |                                                 |
\*---------------------------------------------------------------------------*/
FoamFile
{
    version     2.0;
    format      ascii;
    class       volScalarField;
    location    "0.67";
    object      p;
}
// * * * * * * * * * * * * * * * * * * * * * * * * * * * * * * * * * * * * * //

dimensions      [0 2 -2 0 0 0 0];


internalField   nonuniform List<scalar> 
42400
(
8426.82
8337.83
8224.18
8045.55
7778.33
7424.47
6981.55
6460.35
5887.08
5294
4717.24
4188.87
3723.98
3318.58
2958.09
2630.81
2333.23
2067.53
1838.66
1648.21
1490.54
1353.57
1223.28
1089.47
950.873
815.56
693.776
589.829
501.749
426.776
364.074
313.407
274.114
244.349
221.558
203.214
187.417
172.879
158.965
144.728
129.898
114.132
98.0289
82.0376
66.3252
51.109
36.6375
23.1288
10.7642
-0.311067
-9.97819
-18.1096
-24.4617
-28.9687
-31.8291
-33.0955
-33.0641
-31.8206
-29.4801
-26.3587
-22.9151
-19.6413
-16.9193
-14.93
-13.6677
-13.0219
-12.8517
-13.0226
-13.4133
-13.9133
-14.427
-14.8831
-15.2468
-15.5223
-15.7417
-15.9457
-16.0936
-16.2991
-16.5634
-16.9665
-2266.68
-2144.66
-1980.08
-1805.43
-1607.79
-1444.52
-1335.38
-1276.45
-1236.12
-1183.57
-1123.71
-1082.35
-1072.58
-1089.71
-1120.91
-1151.84
-1171.37
-1172.84
-1154.24
-1115.69
-1057.76
-981.461
-887.081
-775.369
-650.275
-520.997
-401.398
-303.522
-231.798
-183.137
-150.737
-128.288
-111.62
-97.9482
-85.6881
-74.1092
-63.1704
-53.122
-44.299
-37.0232
-31.4686
-27.6934
-25.691
-25.3639
-26.5731
-29.1451
-32.8611
-37.4653
-42.6685
-48.1419
-53.518
-58.3972
-62.369
-65.0387
-66.0205
-65.3354
-62.7856
-58.4417
-52.7741
-46.4269
-40.0824
-34.2979
-29.3777
-25.362
-22.1272
-19.5153
-17.4127
-15.7638
-14.5452
-13.7318
-13.2784
-13.1216
-13.1919
-13.4261
-13.774
-14.1991
-14.7498
-15.313
-15.8763
-16.5122
-1736.47
-1757.65
-1748.47
-1676.51
-1514.52
-1352.58
-1267.61
-1287.06
-1405.81
-1619.13
-1906.25
-2205.08
-2433.72
-2539.55
-2529.28
-2440.61
-2309.45
-2159.91
-2007.03
-1860.96
-1726.65
-1602.92
-1484.46
-1363.67
-1233.87
-1092.31
-940.303
-783.852
-631.083
-491.282
-372.08
-276.599
-203.979
-151.405
-115.018
-90.8557
-75.4464
-66.0978
-60.9151
-58.6709
-58.6163
-60.295
-63.3912
-67.6056
-72.6201
-78.0862
-83.6252
-88.8528
-93.4133
-97.0063
-99.3995
-100.431
-99.9898
-98.0055
-94.4354
-89.2206
-82.6043
-74.8946
-66.1613
-57.2777
-48.8514
-41.2638
-34.7163
-29.2397
-24.7352
-21.0688
-18.1174
-15.7965
-14.0538
-12.8485
-12.1308
-11.8338
-11.8775
-12.1786
-12.662
-13.2666
-13.9484
-14.6668
-15.3935
-16.1707
-8502.43
-8238.18
-7885.61
-7427.5
-6801.33
-6181.27
-5717.52
-5430.25
-5241.44
-5098.3
-4983.53
-4869.85
-4721.69
-4515.85
-4243.01
-3903.29
-3512.21
-3102.74
-2711.88
-2361.69
-2056.56
-1791.12
-1557.74
-1349.82
-1163.71
-998.017
-852.603
-726.471
-617.559
-523.525
-442.352
-372.317
-312.446
-261.933
-220.107
-186.36
-159.813
-139.484
-124.396
-113.587
-106.139
-101.263
-98.307
-96.7301
-96.0796
-95.9814
-96.1298
-96.2677
-96.1743
-95.6594
-94.5599
-92.7396
-90.0951
-86.5497
-82.0682
-76.6943
-70.5136
-63.8865
-57.4399
-51.0725
-44.9032
-39.1213
-33.8705
-29.2258
-25.1863
-21.761
-18.9261
-16.6611
-14.9221
-13.6804
-12.8869
-12.4862
-12.4134
-12.6022
-12.99
-13.5217
-14.1504
-14.8379
-15.5515
-16.3181
1957.32
1928.66
1870.97
1822.54
1841.17
1931.48
2062.13
2198.99
2323.12
2434.99
2544.58
2661.54
2790.93
2932.7
3084.87
3243.09
3390.42
3492.89
3517.55
3452.04
3302.54
3079.79
2797.59
2475.19
2134.8
1796.83
1476.85
1185.03
926.869
704.091
515.77
359.406
231.774
129.347
48.5534
-13.9068
-61.2586
-96.3928
-121.775
-139.474
-151.159
-158.159
-161.554
-162.184
-160.685
-157.535
-153.085
-147.593
-141.254
-134.223
-126.629
-118.594
-110.234
-101.668
-93.0186
-84.4178
-76.0042
-67.921
-60.3053
-53.2449
-46.7964
-40.9897
-35.8298
-31.3066
-27.4193
-24.1175
-21.3683
-19.1388
-17.3933
-16.0894
-15.1858
-14.6307
-14.3727
-14.3602
-14.5432
-14.8757
-15.3166
-15.8305
-16.3888
-16.996
9715.06
9698.56
9595.44
9264.87
8666.52
7914.57
7142.4
6424.23
5781.98
5224.31
4761.24
4406.3
4177.07
4083.47
4121.6
4275.8
4479.87
4568.4
4366.16
3855.24
3168.77
2444.62
1763.4
1177.3
719.68
392.833
173.136
29.1004
-65.4389
-128.073
-169.799
-197.728
-216.668
-229.812
-238.998
-245.241
-249.203
-251.066
-250.982
-249.149
-245.467
-240.08
-233.2
-225.057
-215.878
-205.87
-195.214
-184.063
-172.549
-160.793
-148.912
-137.026
-125.268
-113.778
-102.699
-92.1705
-82.313
-73.2179
-64.9392
-57.4936
-50.8663
-45.0185
-39.8976
-35.446
-31.6076
-28.3289
-25.5628
-23.2672
-21.4022
-19.929
-18.8087
-18.0011
-17.4655
-17.1616
-17.0503
-17.0948
-17.2612
-17.5193
-17.8449
-18.2172
8.75921
187.51
239.573
-124.345
-822.888
-1609.75
-2298.79
-2904.45
-3462.32
-3970.57
-4425.2
-4820.12
-5137
-5339.76
-5386.8
-5250.67
-4926.37
-4452.43
-3905.86
-3360.9
-2857.66
-2411.3
-2027.38
-1706.12
-1443.63
-1233.42
-1068.89
-944.191
-852.528
-785.66
-735.235
-694.345
-658.15
-623.817
-590.154
-556.668
-523.19
-489.905
-456.982
-424.879
-394.213
-365.283
-338.221
-313.021
-289.565
-267.665
-247.098
-227.646
-209.126
-191.402
-174.401
-158.109
-142.575
-127.887
-114.165
-101.524
-90.0589
-79.8158
-70.786
-62.9082
-56.0813
-50.1833
-45.0891
-40.6841
-36.8719
-33.576
-30.7381
-28.3128
-26.2641
-24.5603
-23.1714
-22.0674
-21.2178
-20.5923
-20.1607
-19.8937
-19.7638
-19.7459
-19.8165
-19.9526
-9320.48
-8365.36
-7405.95
-6900.13
-6594.27
-6355.63
-6140.76
-5936.84
-5683.96
-5358.58
-4995.45
-4652.13
-4373.9
-4183.78
-4079.9
-4022.92
-3940.36
-3768.33
-3497.94
-3168.41
-2835.75
-2542.93
-2310.15
-2138.42
-2004.84
-1868.48
-1704.7
-1524.48
-1351.77
-1199.1
-1067.12
-952.425
-852.011
-763.711
-685.655
-616.717
-555.853
-502.178
-455.035
-413.753
-377.739
-346.441
-319.24
-295.503
-274.589
-255.852
-238.678
-222.529
-206.972
-191.702
-176.554
-161.501
-146.64
-132.173
-118.364
-105.489
-93.7827
-83.3901
-74.3463
-66.5829
-59.9599
-54.3046
-49.4459
-45.2357
-41.5585
-38.3285
-35.4877
-32.9961
-30.8249
-28.9512
-27.3543
-26.0137
-24.9078
-24.0146
-23.3117
-22.7767
-22.388
-22.1249
-21.9652
-21.8984
-76.5265
-18.3162
-57.9665
-273.396
-711.725
-1346.1
-2146.15
-3036.29
-3868.31
-4443.6
-4603.66
-4338.19
-3779.71
-3086.7
-2370.5
-1702.43
-1132.19
-696.972
-419.738
-302.539
-323.643
-442.933
-613.432
-791.101
-922.556
-950.786
-869.581
-734.659
-599.384
-485.281
-392.25
-317.782
-260.889
-220.23
-193.392
-177.309
-169.323
-167.326
-168.94
-172.262
-176.287
-180.348
-183.939
-186.686
-188.291
-188.486
-187.035
-183.751
-178.525
-171.356
-162.363
-151.805
-140.072
-127.669
-115.17
-103.148
-92.0843
-82.2944
-73.8885
-66.7975
-60.8456
-55.793
-51.4445
-47.6432
-44.2776
-41.2738
-38.5848
-36.1807
-34.0411
-32.1503
-30.4944
-29.0595
-27.8312
-26.7944
-25.9332
-25.2314
-24.6725
-24.2399
-23.9156
-23.6938
6574.33
6462.15
6290.26
6020.61
5666.89
5250.58
4776.37
4227.63
3595.45
2923.2
2292.09
1758.17
1329.72
1004.26
777.272
626.148
516.589
425.005
345.06
282.09
245.398
245.324
294.214
402.812
557.951
702.712
771.807
748.959
662.346
550.576
438.245
335.184
243.848
164.367
96.2606
38.8386
-8.81914
-47.8929
-80.0343
-106.378
-127.631
-144.337
-156.949
-165.847
-171.348
-173.723
-173.216
-170.067
-164.528
-156.891
-147.498
-136.757
-125.149
-113.221
-101.549
-90.681
-81.0499
-72.8909
-66.2074
-60.8084
-56.4037
-52.7048
-49.4882
-46.6081
-43.9812
-41.5649
-39.3393
-37.296
-35.4311
-33.742
-32.2256
-30.8776
-29.6923
-28.6624
-27.779
-27.0322
-26.4109
-25.903
-25.4948
-25.1814
-3372.31
-3179.33
-2893.13
-2564.93
-2197.16
-1839.93
-1492.62
-1146.17
-784.556
-393.8
12.1224
384.073
671.023
846.717
907.107
859.26
716.698
498.637
229.434
-63.5259
-353.553
-617.65
-837.006
-997.428
-1091.88
-1123.15
-1103.59
-1052.42
-986.442
-918.979
-857.86
-805.365
-759.657
-717.161
-674.615
-630.232
-583.354
-534.434
-484.543
-435.086
-387.581
-343.304
-303.13
-267.495
-236.42
-209.618
-186.605
-166.807
-149.642
-134.582
-121.181
-109.108
-98.1501
-88.2121
-79.2964
-71.4719
-64.8303
-59.4231
-55.1939
-51.9497
-49.406
-47.2809
-45.3693
-43.5592
-41.808
-40.1108
-38.4779
-36.9232
-35.4595
-34.0968
-32.8422
-31.6999
-30.6715
-29.7563
-28.9515
-28.2525
-27.6531
-27.1454
-26.7194
-26.3731
-614.893
-700.715
-797.526
-891.592
-992.516
-1100.32
-1216.81
-1338.65
-1461.92
-1584.05
-1701.59
-1809.44
-1902.66
-1979.44
-2043.26
-2099.93
-2155.54
-2214.06
-2274.74
-2333.71
-2386.43
-2426.85
-2448.61
-2445.19
-2410.37
-2340.34
-2234.83
-2097.78
-1937.02
-1761.96
-1581.68
-1403.73
-1233.54
-1074.61
-928.807
-796.506
-677.87
-572.613
-480.5
-401.281
-334.484
-279.306
-234.572
-198.842
-170.572
-148.283
-130.666
-116.625
-105.268
-95.8738
-87.8763
-80.8613
-74.5692
-68.8709
-63.7183
-59.1021
-55.0295
-51.5188
-48.5824
-46.1937
-44.2704
-42.6925
-41.3407
-40.1224
-38.9778
-37.8739
-36.7961
-35.742
-34.7169
-33.7296
-32.7899
-31.9071
-31.0887
-30.3398
-29.6632
-29.0598
-28.5279
-28.0637
-27.6619
-27.3244
33.9047
-52.938
-148.914
-248.696
-366.091
-527.968
-752.096
-1033.79
-1351.45
-1676.83
-1983.6
-2249.82
-2457.59
-2593.16
-2647.44
-2619.47
-2517.58
-2359.24
-2167.69
-1963.54
-1760.77
-1566.23
-1382.36
-1209.23
-1045.03
-887.232
-734.373
-588.928
-455.416
-338.41
-240.964
-164.021
-106.719
-66.9707
-42.0416
-28.7994
-23.9073
-24.7337
-28.6111
-33.2106
-37.1613
-39.9688
-41.506
-42.035
-41.9579
-41.7312
-41.7602
-42.1501
-42.9255
-44.0527
-45.3912
-46.7311
-47.8299
-48.469
-48.5005
-47.8935
-46.7581
-45.3127
-43.8009
-42.4027
-41.1929
-40.1581
-39.2429
-38.3905
-37.5618
-36.7374
-35.9126
-35.0917
-34.283
-33.4961
-32.7405
-32.0241
-31.3531
-30.7322
-30.1639
-29.6495
-29.1885
-28.7784
-28.4165
-28.106
-3977.79
-3585.16
-3059.03
-2487.1
-1869.62
-1291.92
-763.053
-275.883
182.406
623.821
1054.25
1473.13
1874.88
2251.03
2594.3
2898.43
3156.62
3362.93
3513.44
3607.17
3644.5
3622.91
3535.69
3378.34
3158.03
2893.9
2607.45
2316.61
2033.19
1763.85
1511.97
1279.24
1066.63
874.815
704.476
555.891
428.597
322.407
236.244
168.104
115.451
75.4063
45.113
22.3021
5.25553
-7.31425
-16.4024
-23.0838
-28.0896
-31.8415
-34.6367
-36.6981
-38.1924
-39.2345
-39.8953
-40.2208
-40.2552
-40.054
-39.6811
-39.1972
-38.6498
-38.0693
-37.4723
-36.8658
-36.2527
-35.6347
-35.0142
-34.3952
-33.7827
-33.1826
-32.6008
-32.0428
-31.5133
-31.0158
-30.5533
-30.1274
-29.7386
-29.3859
-29.0689
-28.7914
10927.9
10783.9
10597.9
10325.8
9944.68
9502.55
9031.91
8547.11
8047.7
7527.34
6982.11
6410.96
5814.17
5192.76
4547.99
3883.31
3204.7
2523.81
1863.23
1258.37
748.676
358.652
86.5348
-89.117
-196.302
-258.247
-290.13
-301.157
-297.169
-282.37
-260.401
-234.588
-206.311
-176.267
-144.566
-111.448
-78.1493
-47.4954
-22.224
-4.0713
6.68076
11.0033
10.3631
6.40747
0.694733
-5.59117
-11.761
-17.3803
-22.2972
-26.5028
-30.0147
-32.8633
-35.0967
-36.7754
-37.9667
-38.7397
-39.1627
-39.3016
-39.2176
-38.9646
-38.587
-38.1195
-37.5885
-37.0142
-36.4129
-35.7983
-35.1825
-34.5756
-33.9859
-33.42
-32.882
-32.3748
-31.8997
-31.4572
-31.0472
-30.6694
-30.3228
-30.0059
-29.7185
-29.4638
-3977.97
-4040.59
-4125.35
-4206.01
-4287.38
-4356.5
-4414.11
-4457.53
-4478.55
-4467.94
-4417.72
-4322.76
-4180.34
-3989.39
-3750.82
-3468.89
-3152.47
-2816.21
-2478.81
-2155.17
-1856.49
-1588.91
-1355.95
-1159.9
-1001.15
-876.811
-782.876
-711.118
-651.701
-596.661
-542.113
-488.657
-438.262
-391.686
-347.586
-304.078
-260.542
-218.07
-178.761
-144.571
-116.547
-94.7626
-78.5966
-67.0361
-58.9367
-53.2622
-49.238
-46.3619
-44.3392
-42.9706
-42.1083
-41.6176
-41.3743
-41.2742
-41.2336
-41.188
-41.0907
-40.9117
-40.6352
-40.2574
-39.7837
-39.2258
-38.6005
-37.9273
-37.2268
-36.5194
-35.8235
-35.1541
-34.5221
-33.934
-33.3919
-32.895
-32.4405
-32.0245
-31.6432
-31.2934
-30.972
-30.677
-30.4076
-30.1663
-10226
-9791.85
-9215.25
-8546.92
-7769.63
-6979.08
-6210.32
-5481.39
-4799.58
-4167.74
-3587.27
-3057.95
-2576.95
-2138.08
-1735.2
-1365.47
-1031.73
-741.82
-506.09
-333.089
-225.861
-181.131
-190.431
-241.974
-322.857
-419.52
-518.517
-606.308
-670.479
-702.566
-701.492
-674.121
-632.058
-583.401
-531.759
-478.001
-422.541
-366.55
-311.988
-261.108
-215.871
-177.51
-146.346
-121.879
-103.099
-88.843
-78.0464
-69.8569
-63.6378
-58.924
-55.3689
-52.7059
-50.7193
-49.2292
-48.0888
-47.1767
-46.3937
-45.6622
-44.9247
-44.1432
-43.2975
-42.3835
-41.4107
-40.399
-39.3749
-38.3671
-37.4027
-36.5035
-35.684
-34.9509
-34.303
-33.7342
-33.235
-32.7947
-32.4028
-32.0507
-31.7314
-31.4402
-31.1746
-30.9352
10568.8
10437.6
10243.7
9923.16
9470.73
8924.09
8311.29
7650.14
6955.21
6241.18
5521
4805.4
4103.39
3422.13
2769.38
2152.57
1577.67
1050.41
580.455
184.88
-117.517
-321.868
-446.455
-521.595
-570.811
-605.443
-627.331
-631.683
-614.833
-579.667
-533.39
-483.412
-435.709
-392.931
-354.957
-320.453
-288.182
-257.52
-228.436
-201.265
-176.449
-154.343
-135.11
-118.704
-104.926
-93.498
-84.1236
-76.5219
-70.4325
-65.6164
-61.859
-58.9703
-56.7646
-55.0658
-53.725
-52.6135
-51.6233
-50.6682
-49.6829
-48.6236
-47.4676
-46.2125
-44.8744
-43.484
-42.0819
-40.7116
-39.4145
-38.224
-37.1612
-36.2342
-35.4398
-34.7662
-34.196
-33.7105
-33.2919
-32.9249
-32.5977
-32.3021
-32.0329
-31.7887
2115.71
2136.87
2164.89
2157.16
2108.4
2042.1
2025.18
2087.49
2188.09
2267.15
2294.63
2267.25
2190.99
2076.26
1934.55
1774.92
1603.83
1426.75
1247.73
1070.1
897.738
734.567
583.676
446.195
321.773
210.554
113.21
30.6854
-35.9264
-86.3338
-121.596
-143.956
-155.559
-158.855
-156.188
-149.575
-140.625
-130.535
-120.163
-110.091
-100.688
-92.1603
-84.605
-78.058
-72.5026
-67.8945
-64.1667
-61.2295
-58.9752
-57.2953
-56.0948
-55.2628
-54.7054
-54.334
-54.0598
-53.7993
-53.4769
-53.0276
-52.4009
-51.5643
-50.5061
-49.237
-47.7903
-46.2183
-44.5849
-42.958
-41.402
-39.9695
-38.6962
-37.5963
-36.6677
-35.8951
-35.256
-34.7253
-34.2787
-33.8954
-33.5592
-33.2581
-32.9836
-32.733
-4370.46
-4312.35
-4230.14
-4115.46
-3964.1
-3792.92
-3600.72
-3374.04
-3100.5
-2782.51
-2450.05
-2153.26
-1937.66
-1808.99
-1735.2
-1673.97
-1595.98
-1490.47
-1362.3
-1223.25
-1083.66
-949.845
-824.819
-709.554
-603.679
-506.107
-415.408
-331.169
-253.127
-182.077
-119.57
-67.4213
-27.1317
1.3439
18.9185
27.3535
28.8693
25.6769
19.6801
12.3554
4.72169
-2.58346
-9.23001
-15.1124
-20.2436
-24.6921
-28.5626
-32.0682
-35.2335
-38.1037
-40.7204
-43.1112
-45.2735
-47.1879
-48.8244
-50.1478
-51.1226
-51.7181
-51.9141
-51.7057
-51.1067
-50.151
-48.9009
-47.4332
-45.8352
-44.1994
-42.6106
-41.1366
-39.8231
-38.6902
-37.7371
-36.9482
-36.2998
-35.7654
-35.3193
-34.939
-34.6065
-34.3081
-34.0333
-33.7792
-2676.46
-2807.51
-2969.25
-3119.66
-3244.57
-3292.59
-3270.72
-3229.4
-3217.26
-3245.43
-3298.27
-3355.73
-3406.24
-3449
-3486.5
-3513.13
-3518.09
-3497.82
-3454.22
-3386.61
-3294.44
-3182.58
-3057.88
-2923.33
-2778.19
-2619.21
-2445.95
-2259.64
-2064.67
-1869.33
-1682.81
-1511.26
-1351.52
-1194.15
-1035.8
-882.794
-743.297
-621.88
-519.609
-435.382
-366.397
-309.859
-263.585
-225.757
-194.597
-169.039
-148.064
-130.861
-116.677
-104.825
-94.7022
-85.8298
-77.8546
-70.536
-63.7268
-57.3539
-51.3982
-45.8794
-40.8432
-36.2915
-32.2066
-28.58
-25.3904
-22.6059
-20.1891
-18.1015
-16.3053
-14.7655
-13.4495
-12.3279
-11.3739
-10.5635
-9.87526
-9.29014
-8.79128
-8.36398
-7.99573
-7.67428
-7.3899
-7.11538
-3349.02
-3047.19
-2668.11
-2287.93
-1883.11
-1503.4
-1153.16
-843.196
-588.708
-396.655
-264.917
-185.051
-144.98
-134.399
-146.634
-172.442
-196.739
-214.065
-242.333
-294.152
-346.813
-370.977
-364.252
-340.414
-309.602
-284.966
-288.06
-334.281
-413.344
-499.712
-572.228
-619.919
-639.373
-632.648
-605.805
-566.364
-520.913
-474.29
-429.671
-388.69
-351.714
-318.376
-288.063
-260.202
-234.406
-210.556
-188.706
-168.921
-151.166
-135.287
-121.053
-108.202
-96.4872
-85.708
-75.7245
-66.4705
-58.0122
-50.3273
-43.4251
-37.3621
-32.1637
-27.8175
-24.2044
-21.2204
-18.7611
-16.733
-15.0589
-13.677
-12.5376
-11.6002
-10.8314
-10.203
-9.69119
-9.27567
-8.93914
-8.66689
-8.44678
-8.26816
-8.12084
-7.97528
3944.54
3842.55
3678.56
3433.72
3100.01
2708.99
2276.98
1826.49
1387.76
1001
716.29
573.03
574.563
685.602
852.613
1024.84
1163.51
1238.93
1221.4
1093.63
876.831
620.744
360.894
110.8
-117.913
-291.875
-359.447
-321.43
-255.198
-225.17
-231.487
-249.969
-266.918
-279.033
-286.139
-288.245
-285.325
-277.641
-265.898
-251.164
-234.651
-217.458
-200.397
-183.975
-168.481
-154.076
-140.832
-128.728
-117.655
-107.439
-97.8748
-88.7746
-79.9881
-71.4255
-63.0903
-55.0662
-47.4259
-40.3923
-34.1395
-28.7658
-24.2917
-20.645
-17.7545
-15.4931
-13.7336
-12.3725
-11.3256
-10.5259
-9.92
-9.4672
-9.13542
-8.89924
-8.73846
-8.63695
-8.58177
-8.56253
-8.57115
-8.60189
-8.6468
-8.67778
-3341.59
-3267.01
-3180.25
-3078.46
-2963.28
-2832.28
-2677.47
-2492.64
-2269
-1977.48
-1572.03
-1034.71
-404.98
249.964
868.19
1373.87
1659.76
1644.02
1358.42
940.44
522.555
160.374
-138.89
-372.993
-535.39
-616.618
-613.513
-554.115
-481.109
-422.724
-378.791
-338.486
-295.9
-251.992
-211.008
-176.568
-149.585
-128.667
-111.785
-97.5077
-85.2146
-74.7989
-66.291
-59.6335
-54.6156
-50.8933
-48.12
-45.904
-43.9181
-41.9026
-39.6715
-37.121
-34.2124
-30.9525
-27.4345
-23.8029
-20.2288
-16.8881
-13.9336
-11.4755
-9.56681
-8.17539
-7.23094
-6.64181
-6.31866
-6.18673
-6.18919
-6.29687
-6.45982
-6.6694
-6.91066
-7.17216
-7.44559
-7.72468
-8.00482
-8.28273
-8.55648
-8.82672
-9.08939
-9.32043
1031.26
1069.18
1115.72
1164.91
1230.36
1328.35
1461.97
1605.84
1698.36
1655.23
1417.9
1010.44
532.177
86.8028
-267.6
-516.312
-665.427
-726.378
-711.65
-634.311
-511.393
-363.135
-209.705
-67.4668
56.0239
162.04
254.976
335.523
399.746
443.488
465.417
467.198
452.663
426.553
393.309
356.557
319.137
283.106
249.809
219.876
193.334
169.871
149.045
130.433
113.7
98.6119
85.0163
72.8168
61.951
52.3707
44.0255
36.8507
30.7797
25.7065
21.4979
18.0078
15.0946
12.6296
10.4995
8.61465
6.9102
5.34266
3.88476
2.52088
1.24312
0.047732
-1.06766
-2.10588
-3.06958
-3.9629
-4.79008
-5.55563
-6.26429
-6.92094
-7.53052
-8.09793
-8.6283
-9.12907
-9.60132
-10.0272
4080.58
3889.71
3636.08
3370.08
3095.57
2862.98
2649.46
2436.09
2230.89
2038.04
1849.92
1683.46
1575.24
1517.83
1459.61
1373.18
1270.98
1163.65
1049.57
933.486
829.202
747.503
692.33
664.789
664.802
690.234
735.531
791.622
847.385
892.15
918.091
921.25
901.664
862.715
809.561
747.324
680.57
612.91
547.008
484.667
426.968
374.459
327.304
285.329
248.191
215.482
186.727
161.423
139.189
119.697
102.65
87.7864
74.8664
63.6715
53.9977
45.6555
38.4694
32.2776
26.933
22.305
18.28
14.7614
11.6688
8.9365
6.51149
4.35117
2.42078
0.691444
-0.861349
-2.25864
-3.51879
-4.65804
-5.69093
-6.6306
-7.48897
-8.27699
-9.00488
-9.68491
-10.3228
-10.9083
4983.65
4837.75
4641.64
4423.92
4193.34
3983.27
3783.25
3591.11
3425.78
3303.6
3220.51
3154.11
3084.63
3007.99
2925.12
2832.26
2724.59
2600.19
2459.06
2302.45
2133.57
1957.21
1779.02
1604.55
1438.67
1285.05
1146.09
1023.33
916.865
825.569
747.551
680.737
623.038
572.506
527.632
487.455
451.066
417.703
386.751
357.726
330.263
304.074
278.933
254.746
231.469
209.11
187.787
167.677
148.878
131.536
115.593
101.023
87.8
75.8781
65.1962
55.6823
47.2555
39.8279
33.3073
27.5994
22.6111
18.2526
14.4405
11.0993
8.16298
5.57444
3.28529
1.25443
-0.553005
-2.16682
-3.6127
-4.91302
-6.08743
-7.15332
-8.12616
-9.0198
-9.8466
-10.6202
-11.349
-12.0305
106.855
192.426
285.917
387.534
548.256
779.612
1072.5
1366.37
1584.4
1691.92
1702.99
1651.59
1560.66
1439.23
1289.34
1112.22
911.896
698.565
488.238
297.224
137.341
13.8902
-73.6776
-128.798
-156.034
-160.06
-145.395
-116.587
-77.6651
-32.6335
14.472
59.8702
100.439
134.154
160.201
178.771
190.634
196.834
198.494
196.629
192.085
185.531
177.315
167.866
157.649
146.944
135.939
124.812
113.724
102.733
92.0552
81.8257
72.1353
63.0567
54.6425
46.9241
39.9128
33.6002
27.9606
22.9542
18.5308
14.6341
11.2059
8.18892
5.52987
3.18036
1.0977
-0.755204
-2.41037
-3.89531
-5.23374
-6.44618
-7.5506
-8.56289
-9.49728
-10.3667
-11.1826
-11.9574
-12.6985
-13.4068
-2348.57
-2435.32
-2551.91
-2675.51
-2820.96
-2999.62
-3228.05
-3498.9
-3781.36
-4031.48
-4206.69
-4278.33
-4234.8
-4073.21
-3796.21
-3420.04
-2984.29
-2546.58
-2158.41
-1843.15
-1596.12
-1399.14
-1233.56
-1086
-948.428
-817.125
-691.526
-572.94
-463.333
-364.473
-277.401
-202.317
-138.896
-86.2988
-43.4063
-9.06496
17.8251
38.2755
53.2171
63.517
69.9628
73.3615
74.8796
74.9941
73.55
70.8443
67.2239
62.9531
58.2653
53.3514
48.3333
43.2706
38.2139
33.2445
28.4646
23.9651
19.8082
16.0278
12.631
9.60762
6.93126
4.56594
2.47243
0.612604
-1.0481
-2.53968
-3.88763
-5.11335
-6.23485
-7.26734
-8.22382
-9.11552
-9.95237
-10.7434
-11.4969
-12.2209
-12.923
-13.6117
-14.2921
-14.9656
-6116.77
-5584.33
-4906.05
-4256.86
-3631.07
-3088.98
-2610.3
-2187.89
-1822.76
-1516.87
-1269.77
-1076.82
-929.025
-812.328
-711.565
-614.748
-515.965
-416.598
-320.592
-229.088
-138.885
-46.7593
46.6006
136.355
216.102
280.805
327.124
354.169
363.363
357.498
340.003
314.509
284.282
251.928
219.275
187.42
157.057
128.787
103.218
80.8806
62.1345
47.1012
35.2485
26.0927
19.8873
16.0093
13.7867
12.6352
11.9737
11.2753
10.1693
8.51555
6.39415
4.01362
1.59809
-0.678865
-2.69964
-4.40222
-5.76963
-6.82584
-7.62566
-8.23916
-8.73021
-9.1512
-9.53957
-9.91918
-10.3034
-10.6985
-11.1069
-11.5288
-11.9636
-12.411
-12.8707
-13.3431
-13.8295
-14.3317
-14.8524
-15.3953
-15.9631
-16.5605
8745.01
8561.11
8304.98
7951.42
7490.33
7028.34
6621.58
6271.61
5951.3
5634.48
5309.75
4978.44
4646.83
4320.5
4004.35
3703.96
3424.96
3169.05
2930.25
2695.02
2447.59
2176.8
1879.59
1562.12
1235.89
914.131
611.122
339.906
110.059
-73.5886
-211.122
-306.315
-364.585
-391.571
-393.252
-376.574
-349.033
-317.107
-285.095
-255.207
-227.652
-202.369
-179.093
-157.554
-138.03
-120.512
-104.951
-91.3441
-79.7136
-70.0448
-62.2501
-56.1428
-51.4246
-47.703
-44.553
-41.6077
-38.6275
-35.5337
-32.3822
-29.3087
-26.4606
-23.95
-21.8351
-20.1209
-18.7765
-17.7518
-16.992
-16.4472
-16.076
-15.8458
-15.7315
-15.7138
-15.7784
-15.9145
-16.1147
-16.3746
-16.6919
-17.0662
-17.4974
-17.9987
1519.37
1337.32
1131.66
905.265
585.469
274.757
-4.7829
-263.36
-516.711
-776.355
-1042.62
-1309
-1565.6
-1802.73
-2014.82
-2200.11
-2355.62
-2472.36
-2537.8
-2540.96
-2483.34
-2377.89
-2236.8
-2067.68
-1876.03
-1669.13
-1456.82
-1249.46
-1055.88
-882.206
-732.63
-609.588
-512.427
-437.647
-380.716
-337.608
-304.944
-279.765
-259.862
-243.565
-229.654
-216.885
-204.455
-191.917
-179.095
-165.999
-152.849
-139.956
-127.599
-116.013
-105.393
-95.83
-87.2895
-79.6454
-72.7666
-66.5539
-60.8958
-55.6242
-50.5547
-45.5826
-40.7455
-36.203
-32.1518
-28.7335
-25.9858
-23.8512
-22.2222
-20.9857
-20.0484
-19.3418
-18.8181
-18.4441
-18.196
-18.0566
-18.0138
-18.0601
-18.1911
-18.4044
-18.6986
-19.0972
-10716.7
-9692.04
-8481.16
-7500.79
-6686.24
-6016.66
-5441
-4990.26
-4692.26
-4543.43
-4519.64
-4578.23
-4657.46
-4692.88
-4663.47
-4611.31
-4604.23
-4665.77
-4730.94
-4687.04
-4465.71
-4087.77
-3628
-3158.37
-2720.98
-2330.38
-1986.68
-1685.56
-1422.25
-1192.64
-994.086
-824.773
-682.985
-566.935
-474.284
-402.009
-346.9
-306.012
-276.12
-253.901
-237.005
-223.689
-212.595
-202.651
-192.991
-182.978
-172.287
-160.838
-148.771
-136.395
-124.112
-112.336
-101.416
-91.5747
-82.8811
-75.2357
-68.3981
-62.0698
-56.0184
-50.1755
-44.6423
-39.6079
-35.2402
-31.6144
-28.7008
-26.3999
-24.5899
-23.1618
-22.0328
-21.1442
-20.4534
-19.9282
-19.5426
-19.2764
-19.1144
-19.0468
-19.0689
-19.1785
-19.374
-19.6855
4636.69
4673.08
4656.99
4521.21
4282.88
3971.63
3638.28
3306.25
2978.46
2654.78
2340.03
2042.27
1768.99
1520.46
1285.22
1024.96
683.937
256.558
-158.002
-427.939
-516.306
-491.104
-438.091
-395.616
-365.617
-344.705
-333.948
-334.012
-342.897
-356.202
-369.229
-377.916
-379.661
-373.322
-359.127
-338.487
-313.742
-287.767
-263.267
-241.977
-224.299
-209.628
-197.006
-185.615
-174.895
-164.47
-154.09
-143.558
-132.714
-121.71
-110.698
-99.8899
-89.5346
-79.8901
-71.1704
-63.4975
-56.8899
-51.2741
-46.515
-42.4536
-38.9414
-35.864
-33.1488
-30.7538
-28.6495
-26.8089
-25.2079
-23.8289
-22.6605
-21.6928
-20.9133
-20.3055
-19.8497
-19.5257
-19.3154
-19.2049
-19.1852
-19.2517
-19.3999
-19.6525
4739.71
4832.69
4944.85
5017.47
5093.52
5133.03
5137.26
5108.08
5047.89
4964.05
4863.99
4751.04
4624.07
4479.17
4308.01
4099.12
3836.88
3506.22
3107.74
2670.7
2241.9
1856.62
1523.04
1231.11
969.478
732.377
519.296
332.981
176.473
51.3752
-42.0168
-105.551
-142.774
-158.281
-157.329
-145.347
-127.616
-109.125
-93.8782
-83.9565
-79.3608
-78.7263
-80.4387
-83.1094
-85.6844
-87.4248
-87.8479
-86.7122
-84.0819
-80.1774
-75.3979
-69.8743
-63.9814
-58.0868
-52.4939
-47.4283
-43.0231
-39.316
-36.2625
-33.7602
-31.6805
-29.9
-28.3205
-26.8767
-25.5335
-24.2804
-23.1239
-22.0798
-21.1648
-20.3909
-19.7618
-19.2731
-18.9143
-18.6712
-18.5291
-18.4751
-18.4997
-18.5973
-18.7623
-19.0014
-5373.82
-5260.8
-5115.24
-4968.81
-4766.61
-4538.19
-4281.52
-4006.36
-3726.32
-3447.24
-3164.56
-2870.6
-2565.04
-2256.3
-1957.51
-1679.76
-1428.85
-1203.29
-994.258
-788.563
-573.662
-347.901
-121.346
88.3295
264.099
395.84
482.274
528.478
542.401
532.378
505.163
465.283
415.663
358.992
298.529
238.118
180.559
127.464
80.1051
39.6412
7.23997
-17.2578
-34.7456
-46.4616
-53.6226
-57.2598
-58.2143
-57.1874
-54.771
-51.3472
-47.243
-43.0007
-38.8801
-35.0663
-31.6803
-28.7907
-26.4266
-24.5613
-23.1328
-22.0589
-21.2505
-20.6239
-20.1104
-19.6596
-19.24
-18.8371
-18.4495
-18.0844
-17.7534
-17.4683
-17.2389
-17.0717
-16.9691
-16.9307
-16.9534
-17.033
-17.1657
-17.349
-17.5808
-17.8587
-3174.84
-3019.17
-2766.17
-2444.41
-2072.71
-1717.92
-1395.4
-1113.13
-875.487
-681.588
-528.956
-418.671
-350.326
-321.762
-329.791
-367.81
-426.103
-495.741
-570.919
-645.512
-708.939
-748.613
-757.933
-739.481
-701.332
-652.424
-599.358
-545.93
-493.353
-441.167
-388.5
-335.768
-285.093
-238.603
-197.556
-162.779
-134.567
-112.967
-97.397
-86.7628
-79.4978
-73.8215
-68.6631
-63.4495
-57.9283
-52.0666
-45.9757
-39.8483
-33.9045
-28.3503
-23.356
-19.0507
-15.5061
-12.7403
-10.7327
-9.41999
-8.7
-8.46615
-8.60601
-9.01275
-9.59146
-10.2648
-10.9771
-11.6761
-12.3338
-12.928
-13.4455
-13.8816
-14.2385
-14.5249
-14.7543
-14.9435
-15.1104
-15.2714
-15.4398
-15.6253
-15.8341
-16.0706
-16.3381
-16.6411
7373.84
7169.5
6859.93
6397.89
5771.01
5089.58
4427.57
3804.72
3202.82
2618.08
2072.85
1589.12
1176.73
837.334
566.335
351.122
176.314
28.1657
-107.422
-244.028
-387.065
-529.457
-658.922
-766.205
-848.862
-906.487
-938.725
-944.148
-921.235
-870.841
-798.199
-714.131
-629.465
-551.206
-482.081
-422.182
-370.551
-325.92
-286.829
-251.433
-218.758
-188.183
-159.379
-132.313
-107.167
-84.2305
-63.8014
-46.1063
-31.2523
-19.2095
-9.82125
-2.83454
2.05859
5.18183
6.84634
7.33393
6.9194
5.83076
4.26818
2.41935
0.435662
-1.56989
-3.5123
-5.32828
-6.97767
-8.4421
-9.71868
-10.8113
-11.7261
-12.4727
-13.0673
-13.5337
-13.9009
-14.1988
-14.4548
-14.6907
-14.9222
-15.1604
-15.4129
-15.6961
-6786.92
-6599.35
-6404.97
-6237.17
-6054.27
-5848.71
-5623.55
-5406.09
-5219.41
-5060.72
-4905.06
-4724.71
-4503.28
-4236.2
-3925.96
-3580.49
-3211.08
-2828.77
-2443.98
-2069.81
-1722.52
-1416.55
-1158.91
-947.982
-777.846
-642.767
-537.257
-455.789
-392.473
-341.466
-299.377
-264.878
-238.689
-219.873
-206.033
-195.079
-184.98
-173.742
-160.394
-144.483
-126.075
-105.741
-84.3708
-62.9817
-42.5854
-24.0502
-8.00362
5.19424
15.4309
22.7934
27.5088
29.8878
30.2794
29.0515
26.5715
23.2139
19.507
15.8325
12.1739
8.76924
5.68602
2.89262
0.350783
-1.97747
-4.12362
-6.10331
-7.90946
-9.51713
-10.8974
-12.0315
-12.919
-13.5796
-14.0496
-14.3758
-14.6066
-14.7838
-14.9374
-15.0848
-15.2324
-15.4004
-1760.74
-1659.31
-1495.88
-1265.6
-974.319
-683.443
-434.916
-241.926
-95.7492
20.4449
124.243
227.832
334.201
439.142
536.132
619.158
683.935
727.959
749.456
746.682
717.096
659.685
577.927
479.472
376.326
283.061
210.728
160.697
125.57
97.088
72.4557
53.9146
44.262
43.0946
48.0064
56.72
67.5137
78.7047
89.2478
98.2997
105.099
109.383
110.932
109.76
105.933
99.6722
91.5071
82.1663
72.3885
62.8047
53.8683
45.8095
38.5978
32.3376
27.2142
23.0694
19.3001
15.4922
11.786
8.13042
4.59754
1.33824
-1.53466
-3.99693
-6.11152
-7.97147
-9.65041
-11.181
-12.5552
-13.737
-14.6839
-15.3705
-15.8061
-16.0356
-16.1258
-16.1429
-16.131
-16.1223
-16.1112
-16.0497
-6.57744
-5.87187
-5.30062
-4.79857
-4.3443
-3.9158
-3.50032
-3.08959
-2.67732
-2.24954
-1.82578
-1.4056
-1.02083
-0.682931
-0.399743
-0.175372
-0.0116914
0.0920284
0.138544
0.132853
0.0819308
-0.00550281
-0.119256
-0.24809
-0.380619
-0.506632
-0.618382
-0.711621
-0.786189
-0.845745
-0.896508
-0.945586
-0.999448
-1.06269
-1.13722
-1.22204
-1.31348
-1.40568
-1.49104
-1.56096
-1.60665
-1.61999
-1.59422
-1.52467
-1.40938
-1.24941
-1.0488
-0.814181
-0.554248
-0.279109
0.0007879
0.276045
0.5397
0.788
1.02013
1.23697
1.43943
1.62724
1.7988
1.95173
2.08378
2.19331
2.27955
2.34248
2.3826
2.40064
2.39727
2.37295
2.328
2.26267
2.17718
2.07178
1.94684
1.80271
1.6402
1.46101
1.26833
1.0695
0.86511
0.661856
0.46698
0.290205
0.140532
0.026499
-0.0442563
-0.0660821
-0.0363505
0.0438488
0.169515
0.332195
0.521106
0.72471
0.932254
1.13483
1.32573
1.50016
1.65479
1.78733
1.89645
1.98185
2.04431
2.08542
2.10716
2.11133
2.09929
2.07176
2.02898
1.97083
1.89707
1.80761
1.70276
1.5835
1.45146
1.30881
1.15789
1.00087
0.839493
0.675012
0.508296
0.340045
0.171033
0.00232646
-0.164562
-0.327634
-0.484476
-0.632424
-0.768758
-0.890898
-0.996492
-1.08358
-1.1496
-1.19434
-1.21703
-1.21748
-1.19601
-1.15336
-1.09068
-1.00944
-0.911381
-0.798417
-0.67255
-0.535797
-0.390159
-0.23761
-0.0800695
0.0806292
0.242791
0.404889
0.565576
0.723671
0.878143
1.0281
1.17281
1.31166
1.44417
1.56996
1.68876
1.80036
1.90462
2.00152
2.09104
2.17325
2.24821
2.31601
2.37672
2.43048
2.47741
2.51764
2.55127
2.57837
2.59899
2.61313
2.62082
2.62204