/*--------------------------------*- C++ -*----------------------------------*\
| =========                 |                                                 |
| \\      /  F ield         | OpenFOAM: The Open Source CFD Toolbox           |
|  \\    /   O peration     | Version:  2012                                  |
|   \\  /    A nd           | Website:  www.openfoam.com                      |
|    \\/     M anipulation  |                                                 |
\*---------------------------------------------------------------------------*/
FoamFile
{
    version     2.0;
    format      ascii;
    class       surfaceScalarField;
    location    "0.67";
    object      phi;
}
// * * * * * * * * * * * * * * * * * * * * * * * * * * * * * * * * * * * * * //

dimensions      [0 3 -1 0 0 0 0];
oriented        oriented;


internalField   nonuniform List<scalar> 
84340
(
-0.000216624
4.21798e-05
0.000174444
-0.000300273
-0.000196415
0.000280064
-6.16773e-05
-0.000555281
0.000316685
0.000388068
-0.000819715
0.00036997
0.00092624
-0.000973627
0.000435455
0.00149226
-0.0010812
0.000515187
0.00204483
-0.00117956
0.000626983
0.0025279
-0.00126896
0.000785891
0.00288262
-0.00131016
0.000955435
0.00303798
-0.00124743
0.00109208
0.00294755
-0.00108078
0.00117121
0.00265191
-0.000891927
0.00118756
0.00225443
-0.000745864
0.00114334
0.00186446
-0.000646585
0.00103655
0.00154006
-0.000553308
0.000877716
0.00129513
-0.000445561
0.000690486
0.00111624
-0.000326386
0.000505276
0.000951614
-0.000187254
0.000351883
0.000744702
-3.71751e-05
0.000244088
0.000454332
0.000115689
0.000174681
6.63966e-05
0.000265529
0.000122406
-0.000406588
0.000412476
6.05085e-05
-0.000931334
0.000562435
-3.76887e-05
-0.00146156
0.000722106
-0.000191882
-0.00194457
0.000879534
-0.000396525
-0.0023301
0.0009872
-0.000601667
-0.00258271
0.000987906
-0.000735297
-0.00269068
0.000868322
-0.000760353
-0.00266475
0.000672131
-0.000698056
-0.00252923
0.000462569
-0.000598094
-0.0023128
0.000285085
-0.000501507
-0.00204562
0.000159756
-0.000426935
-0.00174803
7.85878e-05
-0.000376184
-0.00143556
3.05872e-05
-0.00034306
-0.00112052
4.63705e-06
-0.000319676
-0.000814672
-5.67883e-06
-0.000300165
-0.000525238
-8.93628e-06
-0.000280498
-0.00025636
-1.12026e-05
-0.000257675
-9.85089e-06
-1.67842e-05
-0.000229725
0.000215533
-2.83775e-05
-0.000197007
0.000425344
-4.76111e-05
-0.000162199
0.00062019
-7.61136e-05
-0.000118732
0.000804239
-0.000110959
-7.30906e-05
0.000979754
-0.000148155
-2.73601e-05
0.00114882
-0.000184688
1.56206e-05
0.00131325
-0.000217027
5.25946e-05
0.00147446
-0.000241735
8.05317e-05
0.00163348
-0.000255986
9.69683e-05
0.00179095
-0.000257822
0.000100348
0.00194687
-0.000246175
9.02588e-05
0.00209981
-0.000220699
6.77542e-05
0.00224485
-0.000181481
3.64402e-05
0.00238132
-0.000128733
-7.73447e-06
0.0025124
-6.28096e-05
-6.82763e-05
0.00263089
1.54228e-05
-0.000133909
0.00273297
9.2621e-05
-0.000194699
0.00280532
0.000174928
-0.000247285
0.00283688
0.00025478
-0.000286335
0.00282116
0.000324964
-0.000309239
0.00275834
0.000379612
-0.000316792
0.00265663
0.000414866
-0.000313156
0.0025304
0.00043072
-0.00030449
0.00239588
0.000431622
-0.000297109
0.00226663
0.000424815
-0.000295557
0.00215079
0.000416787
-0.000300956
0.00205111
0.000410198
-0.000310511
0.00196668
0.000403257
-0.000318831
0.0018954
0.000391478
-0.000320199
0.00183558
0.000370317
-0.000310493
0.00178644
0.000337222
-0.000288086
0.00174777
0.0002925
-0.000253825
0.00171942
0.000238898
-0.000210548
0.00170111
0.000180637
-0.000162334
0.00169262
0.000121992
-0.000113501
0.00169411
6.60265e-05
-6.75106e-05
0.00170407
1.59485e-05
-2.59123e-05
0.00172901
-3.73148e-05
1.23763e-05
0.00176796
-8.79674e-05
4.90138e-05
0.00182246
-0.000141065
8.65714e-05
-0.000192796
0.000126645
0.00188861
0.000131291
-8.91109e-05
0.000152642
-0.000217766
-5.10678e-05
-0.000351571
-0.000434747
-0.000436035
-0.000953745
-0.000454629
-0.00158126
-0.000453684
-0.00232481
-0.000436009
-0.00318937
-0.000404403
-0.00413871
-0.00036082
-0.00510098
-0.000285166
-0.00602328
-0.000158476
-0.00686159
-5.36179e-05
-0.00759357
-1.3879e-05
-0.00822896
-1.11931e-05
-0.00877363
-8.6414e-06
-0.00922885
9.65611e-06
-0.00960348
4.82456e-05
-0.0098947
0.000103962
-0.0101011
0.000169222
-0.0102167
0.000231341
-0.0102217
0.000270454
-0.0100943
0.000285128
-0.00979948
0.000267597
-0.0092947
0.000217323
-0.00855522
0.000140051
-0.00759947
3.14478e-05
-0.00651812
-9.34453e-05
-0.00543891
-0.000210886
-0.00446401
-0.000302771
-0.00364146
-0.000359974
-0.00296726
-0.000389117
-0.00241301
-0.000394499
-0.00195352
-0.000380895
-0.00156442
-0.000358513
-0.00122623
-0.000333559
-0.000922239
-0.000309668
-0.000642141
-0.000289034
-0.000380244
-0.0002731
-0.000134064
-0.000262964
9.66952e-05
-0.000259137
0.000308531
-0.000259447
0.000497533
-0.000265115
0.000659957
-0.000273383
0.000793913
-0.00028211
0.000898816
-0.000289591
0.000975686
-0.000293897
0.00102725
-0.000293296
0.00105761
-0.000286353
0.00107182
-0.000272033
0.00107534
-0.000249689
0.00107359
-0.000218952
0.00107171
-0.000179597
0.00107463
-0.000131657
0.00108735
-7.55307e-05
0.00111352
-1.0743e-05
0.00114579
6.03523e-05
0.00118533
0.000135389
0.00123334
0.000206767
0.00128764
0.000270664
0.00134422
0.000323038
0.001398
0.000361085
0.00144443
0.000384293
0.00148124
0.000394812
0.0015096
0.000396447
0.00153351
0.000392885
0.00155757
0.000386136
0.00158485
0.000375972
0.00161578
0.000360546
0.00164843
0.000337675
0.00167959
0.000306061
0.00170618
0.000265906
0.00172631
0.000218767
0.00174011
0.000166844
0.00175001
0.00011209
0.00176047
5.55668e-05
0.00177904
-2.61831e-06
0.00180526
-6.35374e-05
0.00184442
-0.000127125
0.00189741
-0.00019406
-0.000257233
0.00196185
-0.000324396
0.000235285
-0.0010731
0.000530934
-0.00221899
0.000794319
-0.00351049
0.000855471
-0.00457639
0.000611266
-0.00526381
0.00023374
-0.00571921
1.93928e-05
-0.00615211
2.84907e-05
-0.0065901
7.71725e-05
-0.00690841
3.315e-05
-0.00699126
-7.56275e-05
-0.00684408
-0.000200803
-0.0065485
-0.00030946
-0.00617435
-0.000385341
-0.00574958
-0.000433409
-0.00526887
-0.000471051
-0.00471739
-0.000503235
-0.00409826
-0.000515168
-0.00342691
-0.000502135
-0.00272789
-0.000467679
-0.00202846
-0.00042897
-0.00134259
-0.000400745
-0.00068559
-0.000389401
-7.28163e-05
-0.000395451
0.000476802
-0.000409567
0.000925375
-0.000417126
0.00124422
-0.000412293
0.0014208
-0.000387462
0.00145819
-0.000340165
0.00137313
-0.000274907
0.00118643
-0.000202417
0.000923285
-0.000131357
0.000618873
-7.64836e-05
0.000301194
-4.08338e-05
-8.7136e-06
-2.36511e-05
-0.000296787
-2.15949e-05
-0.000554752
-3.10684e-05
-0.000779481
-4.83709e-05
-0.000972049
-7.0397e-05
-0.00113637
-9.4814e-05
-0.00127546
-0.00012036
-0.00139493
-0.000145645
-0.00149836
-0.000169951
-0.00158781
-0.000192658
-0.00166459
-0.000212813
-0.00172851
-0.000229981
-0.00177837
-0.000243428
-0.00181251
-0.000252216
-0.00182922
-0.000255326
-0.00182711
-0.000251801
-0.00180518
-0.000240879
-0.00176269
-0.000222085
-0.00169907
-0.000195275
-0.00161403
-0.000160575
-0.00150568
-0.000119089
-0.00137392
-7.14116e-05
-0.00121712
-2.14127e-05
-0.00104242
3.2068e-05
-0.00084361
7.18544e-05
-0.000632641
0.000112069
-0.000419592
0.000148037
-0.000212516
0.000177217
-1.71825e-05
0.000199478
0.000163757
0.000215508
0.000330667
0.000225975
0.000485677
0.000231127
0.000631088
0.000230561
0.000768188
0.000223447
0.000896926
0.000208937
0.00101639
0.000186598
0.00112578
0.000156514
0.00122531
0.00011924
0.00131662
7.55325e-05
0.0014026
2.61075e-05
0.00148661
-2.84449e-05
0.00157161
-8.76162e-05
0.00165892
-0.000150843
0.00174914
-0.000217346
0.00184164
-0.000286564
-0.00035126
0.00193567
0.000275453
-4.01679e-05
0.000571489
0.000234898
0.000606759
0.000759049
0.000340985
0.00112124
-0.000170784
0.00112303
-0.000796932
0.000859888
-0.00139779
0.000620249
-0.00190596
0.000536666
-0.00233365
0.000504858
-0.00274405
0.000443548
-0.00318908
0.000369406
-0.00369143
0.00030155
-0.00422155
0.00022066
-0.00468907
8.21749e-05
-0.00496135
-0.000161124
-0.00490988
-0.000522521
-0.00450247
-0.000910652
-0.00383927
-0.00117836
-0.00310411
-0.00123729
-0.00243393
-0.00113787
-0.00188664
-0.000976251
-0.00147829
-0.000809104
-0.00121606
-0.000651631
-0.00109408
-0.000517425
-0.00109641
-0.000407243
-0.00119334
-0.00032019
-0.00135262
-0.000253015
-0.00153992
-0.000200157
-0.00172381
-0.00015628
-0.00188029
-0.000118424
-0.00199682
-8.58927e-05
-0.00206874
-5.94377e-05
-0.00210595
-3.92704e-05
-0.00212116
-2.56284e-05
-0.00212624
-1.85635e-05
-0.00213284
-1.49975e-05
-0.00214627
-1.76426e-05
-0.00216778
-2.6858e-05
-0.00219693
-4.12505e-05
-0.00223189
-5.98512e-05
-0.00227161
-8.06381e-05
-0.00231392
-0.000103336
-0.00235667
-0.000127199
-0.002398
-0.000151331
-0.00243597
-0.000174842
-0.00246909
-0.000196864
-0.00249595
-0.000216568
-0.00251499
-0.000233171
-0.00252437
-0.000245952
-0.0025219
-0.000254265
-0.00250522
-0.000257563
-0.00247187
-0.00025543
-0.00241953
-0.000247621
-0.00234595
-0.000234156
-0.00224962
-0.000215417
-0.00212888
-0.000192149
-0.00198473
-0.000165566
-0.00181569
-0.000136967
-0.00163578
-0.00010806
-0.00144426
-7.94494e-05
-0.00124359
-5.26357e-05
-0.00103819
-2.81774e-05
-0.000832006
-6.70885e-06
-0.000628046
1.15482e-05
-0.00042695
2.48792e-05
-0.000229711
3.38876e-05
-3.66858e-05
3.75352e-05
0.000151607
3.51533e-05
0.000334345
2.61996e-05
0.000510605
1.03375e-05
0.000679799
-1.26798e-05
0.000841614
-4.25747e-05
0.000996227
-7.90809e-05
0.00114408
-0.000121748
0.00128563
-0.000169988
0.00142112
-0.000223114
0.00155065
-0.000280369
0.00167427
-0.000340968
0.0017922
-0.000404489
-0.000465043
0.00190598
0.000165757
-0.000205925
0.000789075
-0.00038842
0.00202401
-0.000475884
0.00362543
-0.000480175
0.00510365
-0.000355187
0.00614003
-0.000176496
0.00681468
-5.43983e-05
0.00734168
9.6651e-06
0.00781189
3.46524e-05
0.00821786
3.75792e-05
0.00855791
2.93507e-05
0.00885314
6.32601e-06
0.00913339
-5.95894e-05
0.00942201
-0.000206451
0.00971959
-0.000458706
0.00999909
-0.000802022
0.0102262
-0.00113772
0.0103495
-0.00130169
0.0103168
-0.00120457
0.0100899
-0.000911005
0.00964166
-0.000527998
0.00894489
-0.000112339
0.00800103
0.000292232
0.00684578
0.000637826
0.00555908
0.000879456
0.0042429
0.000995989
0.00298969
0.0010002
0.00186114
0.000928384
0.000884289
0.000820576
5.99199e-05
0.000705945
-0.000625236
0.000599263
-0.00118949
0.000504814
-0.00165034
0.000421579
-0.00202266
0.000346695
-0.00232092
0.000279699
-0.00255492
0.000218997
-0.00273571
0.000163146
-0.00287375
0.000111185
-0.0029775
6.25002e-05
-0.00305403
1.66826e-05
-0.00310801
-2.66632e-05
-0.00314348
-6.78607e-05
-0.00316364
-0.000107045
-0.00317063
-0.000144341
-0.00316572
-0.000179751
-0.00314946
-0.000213128
-0.00312185
-0.000244171
-0.00308258
-0.000272442
-0.00303113
-0.000297405
-0.00296693
-0.000318463
-0.00288947
-0.000335027
-0.00279832
-0.000346574
-0.00269321
-0.00035273
-0.00257404
-0.000353329
-0.00244098
-0.000348483
-0.00229454
-0.00033858
-0.00213582
-0.000324292
-0.00196621
-0.000306579
-0.00178779
-0.000286474
-0.00160214
-0.000265095
-0.0014112
-0.000243582
-0.00121645
-0.000222931
-0.00101911
-0.000204044
-0.000819838
-0.000187724
-0.000620219
-0.00017474
-0.000420615
-0.000165716
-0.000221834
-0.000161247
-2.48312e-05
-0.000161849
0.000169322
-0.000167953
0.000359503
-0.000179843
0.0005445
-0.000197677
0.000723379
-0.000221453
0.000895335
-0.000251037
0.00105976
-0.000286169
0.00121626
-0.000326487
0.00136469
-0.000371549
0.00150518
-0.000420861
0.0016381
-0.000473886
0.00176385
-0.000530237
-0.000585811
0.00188462
5.73608e-05
-0.000263286
0.000686586
-0.00101765
0.00213174
-0.00192104
0.0039838
-0.00233223
0.00564476
-0.00201615
0.00685701
-0.00138875
0.00765054
-0.00084793
0.00810909
-0.00044888
0.00828206
-0.000138316
0.00821398
0.000105655
0.00795124
0.000292096
0.00752541
0.000432153
0.0069602
0.000505615
0.00624041
0.000513341
0.00529759
0.000484115
0.00407431
0.000421264
0.00256696
0.000369621
0.000888291
0.000376977
-0.000745743
0.000429462
-0.00214567
0.000488917
-0.00323427
0.000560602
-0.00400812
0.000661517
-0.0044975
0.000781606
-0.00474688
0.000887207
-0.00480967
0.000942253
-0.00474311
0.000929426
-0.00460122
0.000858312
-0.0044281
0.000755265
-0.00425399
0.00064646
-0.00409591
0.000547869
-0.00396153
0.000464883
-0.00385243
0.000395716
-0.00376679
0.000335936
-0.00370137
0.000281274
-0.00365039
0.000228725
-0.00360725
0.000175851
-0.00357079
0.00012669
-0.00353735
7.77404e-05
-0.00350437
2.95185e-05
-0.00347393
-1.37498e-05
-0.0034414
-5.91948e-05
-0.00340511
-0.000104151
-0.0033641
-0.000148052
-0.00331763
-0.000190819
-0.00326487
-0.000232512
-0.00320485
-0.000273141
-0.00313647
-0.000312552
-0.00305855
-0.000350368
-0.00296996
-0.000385986
-0.00286983
-0.0004186
-0.00275759
-0.000447261
-0.0026332
-0.000470966
-0.00249716
-0.000488776
-0.00235053
-0.00049995
-0.00219493
-0.000504091
-0.00203224
-0.000501263
-0.00186449
-0.000492045
-0.00169357
-0.000477505
-0.00152097
-0.000459073
-0.00134769
-0.00043837
-0.00117428
-0.000416997
-0.00100082
-0.000396387
-0.000827151
-0.000377713
-0.000653004
-0.000361871
-0.000478236
-0.000349508
-0.000302879
-0.000341074
-0.000127245
-0.000336881
4.80816e-05
-0.000337176
0.00022224
-0.000342112
0.000394225
-0.000351829
0.000562964
-0.000366416
0.000727418
-0.000385907
0.00088665
-0.000410268
0.00103987
-0.000439386
0.00118644
-0.000473061
0.00132589
-0.000510994
0.00145781
-0.000552784
0.00158184
-0.000597912
0.00169745
-0.000645848
-0.000694036
0.00180568
-0.000410108
0.000146822
-0.00144671
1.8961e-05
-0.00282479
-0.000542965
-0.00434879
-0.000808232
-0.00593461
-0.000430329
-0.00744663
0.000123278
-0.00877524
0.000480676
-0.00989948
0.000675362
-0.0108327
0.000794938
-0.0115955
0.000868406
-0.0122084
0.000904979
-0.0126853
0.000909114
-0.0130629
0.000883157
-0.0133729
0.000823395
-0.0136062
0.000717386
-0.0137377
0.000552754
-0.0137206
0.00035255
-0.0135396
0.000195962
-0.0131978
8.76917e-05
-0.0127744
6.54864e-05
-0.0123289
0.000115082
-0.0118715
0.000204105
-0.0114067
0.000316825
-0.0109273
0.000407777
-0.0104141
0.000429105
-0.00983832
0.000353637
-0.00919195
0.000211941
-0.00851071
7.40312e-05
-0.00784836
-1.58892e-05
-0.00724558
-5.49116e-05
-0.00671893
-6.17638e-05
-0.00626604
-5.71752e-05
-0.00587529
-5.482e-05
-0.00553251
-6.15008e-05
-0.00522959
-7.41924e-05
-0.00495944
-9.43079e-05
-0.004713
-0.000119747
-0.00448566
-0.000149595
-0.00427069
-0.000185454
-0.00406554
-0.000218896
-0.00387449
-0.000250251
-0.00369877
-0.000279872
-0.00353837
-0.000308445
-0.003392
-0.00033719
-0.00325713
-0.000367388
-0.00313028
-0.000399984
-0.00300751
-0.000435323
-0.00288482
-0.00047306
-0.00275858
-0.000512233
-0.00262578
-0.000551397
-0.00248428
-0.000588755
-0.00233297
-0.000622283
-0.00217185
-0.000649893
-0.00200215
-0.000669647
-0.0018262
-0.000680042
-0.00164715
-0.000680316
-0.0014685
-0.000670688
-0.00129356
-0.000652453
-0.0011248
-0.000627827
-0.000963584
-0.000599589
-0.000809984
-0.000570597
-0.000663009
-0.000543362
-0.000520963
-0.000519759
-0.000381904
-0.00050093
-0.000244056
-0.000487357
-0.000106088
-0.000479042
3.27433e-05
-0.000475711
0.000172549
-0.000476982
0.000312959
-0.000482522
0.00045322
-0.00049209
0.000592349
-0.000505545
0.000729254
-0.000522813
0.000862828
-0.000543842
0.000991997
-0.000568556
0.00111575
-0.000596816
0.00123316
-0.000628403
0.00134338
-0.000663004
0.0014457
-0.000700225
0.00153948
-0.000739633
-0.000779925
0.00162537
0.000158491
-1.16692e-05
0.000107847
6.96051e-05
-0.000384141
-5.09768e-05
-0.000974992
-0.000217381
-0.00118499
-0.000220326
-0.000924681
-0.000137035
-0.000366898
-7.71077e-05
0.000339545
-3.10806e-05
0.00111564
1.88429e-05
0.00190242
8.16238e-05
0.00266003
0.000147374
0.00335061
0.000218536
0.00397147
0.000262297
0.00452078
0.000274077
0.00497953
0.000258642
0.00533076
0.000201521
0.00557271
0.000110605
0.00573668
3.19921e-05
0.00579641
2.79554e-05
0.0057218
0.0001401
0.00545848
0.000378399
0.00492777
0.000734817
0.00404374
0.00120085
0.0026783
0.00177322
0.000806597
0.00230081
-0.00123987
0.00240011
-0.00292377
0.00189583
-0.00395967
0.00110993
-0.00442139
0.000445828
-0.00451748
4.11817e-05
-0.00442064
-0.0001586
-0.00423046
-0.000247354
-0.0039987
-0.000286587
-0.00375367
-0.000306525
-0.00350543
-0.000322436
-0.00326455
-0.000335186
-0.00303689
-0.000347411
-0.00282564
-0.000360845
-0.00263529
-0.000375798
-0.00246782
-0.000386373
-0.00232451
-0.000393552
-0.00220415
-0.000400233
-0.00210442
-0.000408176
-0.00202242
-0.00041919
-0.0019547
-0.000435107
-0.00189702
-0.000457668
-0.00184483
-0.000487515
-0.00179352
-0.000524373
-0.00173866
-0.00056709
-0.00167628
-0.000613776
-0.0016031
-0.000661935
-0.00151681
-0.00070857
-0.00141637
-0.000750332
-0.00130225
-0.000783767
-0.00117656
-0.000805739
-0.00104288
-0.000813993
-0.000905809
-0.00080776
-0.000770118
-0.000788144
-0.000639865
-0.000758081
-0.000517695
-0.000721759
-0.000404497
-0.000683795
-0.000299539
-0.00064832
-0.000200879
-0.000618419
-0.000106013
-0.000595796
-1.24435e-05
-0.000580927
8.18551e-05
-0.000573341
0.000178189
-0.000572045
0.000277111
-0.000575905
0.000378508
-0.000583919
0.000481771
-0.000595353
0.000585984
-0.000609758
0.000690074
-0.000626902
0.000792924
-0.000646692
0.000893454
-0.000669086
0.00099068
-0.000694042
0.00108376
-0.000721484
0.00117205
-0.00075129
0.00125513
-0.000783304
0.00133284
-0.000817341
-0.000853147
0.00140606
0.000439904
-0.000451573
0.00162111
-0.0011116
0.00317038
-0.00160025
0.00483444
-0.00188145
0.00661572
-0.0020016
0.008473
-0.00199432
0.0102737
-0.00187785
0.0118197
-0.001577
0.0128259
-0.000987394
0.0130555
-0.000147949
0.0125443
0.000658542
0.0116039
0.00115897
0.0104943
0.00137188
0.00930948
0.00145888
0.00807827
0.00148985
0.00678412
0.00149568
0.00541021
0.00148451
0.00397256
0.00146964
0.0025376
0.00146291
0.0011955
0.0014822
3.85183e-05
0.00153538
-0.000856971
0.00163031
-0.00144438
0.00178826
-0.00171899
0.00204783
-0.00172802
0.00230984
-0.00157041
0.0022425
-0.00136844
0.00169386
-0.00121287
0.000954366
-0.0011158
0.000348757
-0.00106264
-1.19722e-05
-0.00103253
-0.000188717
-0.00100926
-0.000270618
-0.000980884
-0.000314966
-0.000940029
-0.00034738
-0.000886159
-0.000376305
-0.000818504
-0.000402842
-0.000740788
-0.000425126
-0.000667498
-0.000434136
-0.000602373
-0.000440923
-0.000542177
-0.000446569
-0.000486182
-0.000449548
-0.000435711
-0.000450704
-0.000392064
-0.000451823
-0.000355954
-0.0004553
-0.000327703
-0.000463357
-0.000307559
-0.000477812
-0.000295226
-0.000499847
-0.00028965
-0.000529949
-0.000288998
-0.000567742
-0.000290797
-0.000611978
-0.000292217
-0.000660515
-0.00029046
-0.000710327
-0.000283182
-0.00075761
-0.000268911
-0.000798038
-0.00024736
-0.000827289
-0.000219485
-0.000841868
-0.000187136
-0.000840109
-0.000152344
-0.000822936
-0.000116544
-0.000793881
-8.01076e-05
-0.000758196
-4.24969e-05
-0.000721406
-2.6819e-06
-0.000688135
4.0356e-05
-0.000661457
8.74706e-05
-0.000642911
0.000139218
-0.000632674
0.000195843
-0.000629966
0.000257294
-0.000633496
0.000323261
-0.000641872
0.000393234
-0.000653892
0.00046656
-0.00066868
0.000542497
-0.000685695
0.000620256
-0.000704661
0.000699041
-0.000725477
0.000778083
-0.000748127
0.000856671
-0.000772629
0.000934183
-0.000798996
0.00101012
-0.000827223
0.00108411
-0.000857294
0.00115598
-0.000889219
-0.000923342
0.00122618
-0.000266116
-0.000185457
-0.00059683
-0.000780884
-0.000809264
-0.00138781
-0.000959397
-0.00173132
-0.00117866
-0.00178234
-0.00152549
-0.00164748
-0.0020264
-0.00137693
-0.00268364
-0.000919768
-0.00347723
-0.000193797
-0.00434558
0.000720394
-0.00520787
0.00152083
-0.00599257
0.00194368
-0.00667408
0.00205339
-0.00726654
0.00205133
-0.00780364
0.00202696
-0.00829253
0.00198456
-0.00872561
0.00191759
-0.00908101
0.00182504
-0.00933129
0.0017132
-0.00943764
0.00158855
-0.00935487
0.00145261
-0.0090277
0.00130314
-0.00838064
0.0011412
-0.00731007
0.000977252
-0.00580254
0.000802315
-0.00415432
0.000594271
-0.00283671
0.000376251
-0.0020263
0.000143959
-0.00162199
-5.55559e-05
-0.00141883
-0.000215131
-0.00127296
-0.000334581
-0.00112082
-0.000422759
-0.000944448
-0.000491342
-0.000744124
-0.000547704
-0.000527061
-0.000593369
-0.000301757
-0.000628146
-7.80447e-05
-0.000648839
0.000143404
-0.000655585
0.000352387
-0.000649906
0.000540971
-0.000635154
0.000706671
-0.000615248
0.000849878
-0.000593911
0.00097222
-0.000574165
0.00107521
-0.000558294
0.0011597
-0.00054784
0.00122573
-0.000543846
0.00127293
-0.000547051
0.00130061
-0.000557621
0.00130813
-0.000575263
0.00129514
-0.000598991
0.00126164
-0.00062701
0.00120801
-0.000656701
0.00113513
-0.00068473
0.00104446
-0.000707367
0.000938259
-0.00072109
0.000819944
-0.000723554
0.000694521
-0.000714686
0.000568853
-0.000697269
0.000451255
-0.000676283
0.000350046
-0.000656986
0.000271592
-0.000642952
0.000218857
-0.0006354
0.00019133
-0.00063393
0.000186009
-0.00063759
0.000198812
-0.000645477
0.000225686
-0.00065684
0.000263223
-0.000671032
0.00030884
-0.000687489
0.0003607
-0.000705751
0.000417514
-0.000725494
0.000478338
-0.000746518
0.0005424
-0.000768724
0.000609006
-0.000792083
0.000677479
-0.000816601
0.000747155
-0.000842304
0.000817386
-0.000869225
0.000887562
-0.000897398
0.000957141
-0.000926873
0.00102571
-0.000957786
-0.000990704
0.00109307
-2.5655e-05
-0.000159801
-0.00043661
-0.000369929
-0.00130559
-0.000518837
-0.00246423
-0.000572672
-0.00372543
-0.000521142
-0.00496089
-0.000412024
-0.00606057
-0.000277247
-0.00685484
-0.000125501
-0.00708713
3.84887e-05
-0.00656643
0.000199701
-0.0053839
0.000338299
-0.00389423
0.000454004
-0.00241367
0.000572837
-0.00108133
0.000718993
6.09937e-05
0.000884629
0.00100003
0.00104552
0.00173977
0.00117785
0.00230129
0.00126352
0.00271677
0.00129771
0.00301957
0.00128576
0.00323506
0.00123712
0.00337804
0.00116016
0.00345917
0.00106007
0.0034974
0.000939023
0.00350176
0.000797954
0.0034579
0.000638134
0.00337441
0.000459737
0.00325252
0.000265858
0.00312767
6.92906e-05
0.00302566
-0.00011312
0.00296059
-0.000269516
0.00293351
-0.000395671
0.00293516
-0.000492996
0.00295242
-0.000564967
0.002979
-0.000619943
0.00300395
-0.000653094
0.00301932
-0.000664215
0.00302154
-0.000657801
0.00301038
-0.000638752
0.00298718
-0.000611951
0.00295416
-0.000582224
0.0029138
-0.000553547
0.00286818
-0.000528549
0.00281866
-0.000508777
0.00276581
-0.000494993
0.00270935
-0.000487382
0.00264814
-0.000485838
0.00258028
-0.00048976
0.00250306
-0.000498044
0.00241306
-0.000508995
0.00230641
-0.000520355
0.00217918
-0.000529475
0.00202804
-0.000533589
0.00185104
-0.000530369
0.00164882
-0.000518869
0.00142599
-0.00050072
0.00119211
-0.000480808
0.000961129
-0.000466286
0.000748545
-0.000463699
0.000567389
-0.00047583
0.000425091
-0.000500654
0.00032281
-0.000533119
0.00025695
-0.00056807
0.000221527
-0.000602167
0.000210163
-0.000634113
0.000217251
-0.000663928
0.000238373
-0.000692155
0.000270263
-0.000719379
0.000310568
-0.000746055
0.000357565
-0.000772492
0.000409934
-0.000798886
0.00046658
-0.00082537
0.000526542
-0.000852044
0.000588938
-0.000878996
0.000652945
-0.000906311
0.000717801
-0.000934081
0.000782812
-0.00096241
0.000847373
-0.000991434
0.000910993
-0.00102141
-0.00105302
0.000973315
-0.000191513
3.17112e-05
-0.000649643
8.82014e-05
-0.00128118
0.000112698
-0.00194251
8.86655e-05
-0.00248754
2.38832e-05
-0.00283822
-6.13437e-05
-0.00297152
-0.000143944
-0.00289341
-0.000203614
-0.00262442
-0.000230508
-0.00220012
-0.000224598
-0.00167596
-0.000185855
-0.00111448
-0.000107481
-0.000558757
1.71181e-05
-2.0137e-05
0.000180373
0.000500332
0.000364159
0.00101154
0.000534313
0.00153265
0.00065674
0.00207259
0.00072358
0.00264926
0.000721045
0.00326709
0.000667925
0.00391525
0.000588957
0.00456791
0.000507503
0.00519026
0.000437723
0.00574923
0.000380054
0.00622463
0.000322552
0.00659645
0.000266311
0.00684758
0.000208609
0.00697355
0.000139888
0.00697968
6.31574e-05
0.00688363
-1.70672e-05
0.00670975
-9.56359e-05
0.0064809
-0.000166823
0.00621382
-0.000225915
0.00591939
-0.000270539
0.00559962
-0.000300172
0.00526227
-0.000315743
0.00491233
-0.000314279
0.00456121
-0.000306677
0.00421993
-0.000297475
0.00389624
-0.000288258
0.00359513
-0.000281114
0.00331889
-0.000277313
0.00306774
-0.000277394
0.00284033
-0.000281372
0.00263454
-0.000289204
0.00244785
-0.000300687
0.0022769
-0.000314888
0.00211726
-0.000330118
0.00196323
-0.000344011
0.00180851
-0.000354277
0.00164775
-0.000359595
0.00147814
-0.000359865
0.00130047
-0.000355923
0.00111917
-0.000349063
0.000941428
-0.00034113
0.000775554
-0.000334846
0.000628838
-0.000334091
0.000505689
-0.000343138
0.000406726
-0.000364736
0.000329435
-0.000398538
0.000270055
-0.000441275
0.000225457
-0.000488521
0.000193918
-0.00053653
0.000174807
-0.000583056
0.000167869
-0.000627174
0.000172679
-0.000668738
0.000188446
-0.000707922
0.000214048
-0.000744981
0.000248165
-0.000780172
0.000289411
-0.000813738
0.000336441
-0.000845916
0.00038801
-0.000876939
0.000443001
-0.000907035
0.000500427
-0.000936422
0.000559425
-0.00096531
0.000619246
-0.000993902
0.000679245
-0.00102241
0.000738882
-0.00105107
0.000797728
-0.00108025
-0.00111076
0.000855461
-0.000235012
0.000266723
-0.000774397
0.000627587
-0.00153024
0.000868546
-0.00241033
0.000968752
-0.00332965
0.000943198
-0.0042445
0.000853509
-0.00513178
0.000743339
-0.00596328
0.000627886
-0.00671257
0.000518778
-0.00736114
0.000423972
-0.00789522
0.000348229
-0.00829534
0.000292638
-0.00853018
0.000251957
-0.00856195
0.000212143
-0.00834696
0.000149166
-0.00786833
5.56814e-05
-0.00712609
-8.5499e-05
-0.00612887
-0.000273634
-0.00492501
-0.000482822
-0.00358365
-0.000673436
-0.00219139
-0.000803302
-0.000840176
-0.000843707
0.000388352
-0.000790805
0.0014378
-0.000669399
0.00228343
-0.000523073
0.00292164
-0.000371897
0.00337969
-0.000249447
0.00368172
-0.000162135
0.00385137
-0.000106492
0.00390985
-7.55555e-05
0.00387703
-6.28109e-05
0.00377391
-6.37029e-05
0.00362349
-7.5497e-05
0.00344901
-9.60583e-05
0.00326838
-0.000119539
0.00309122
-0.000138587
0.00292799
-0.000151044
0.00277115
-0.000149836
0.00260982
-0.000136149
0.00243894
-0.000117374
0.00225715
-9.93288e-05
0.00206226
-8.24159e-05
0.00185614
-7.1278e-05
0.00164085
-6.60867e-05
0.00141875
-6.7099e-05
0.00119256
-7.44954e-05
0.000962531
-8.48612e-05
0.000732608
-0.000100195
0.000508256
-0.00011966
0.000294673
-0.000140694
9.73996e-05
-0.000162322
-7.75903e-05
-0.000184875
-0.000224249
-0.000209265
-0.00033712
-0.000236192
-0.000412512
-0.000265738
-0.000449758
-0.0002976
-0.000452179
-0.00033167
-0.000427105
-0.000368211
-0.000384319
-0.000407522
-0.000333323
-0.000449534
-0.000280899
-0.000493699
-0.000230244
-0.000539174
-0.000181706
-0.000585069
-0.000134186
-0.000630576
-8.63342e-05
-0.000675026
-3.71606e-05
-0.000717912
1.38224e-05
-0.000758904
6.6697e-05
-0.000797855
0.000121299
-0.000834773
0.000177347
-0.000869786
0.000234534
-0.000903102
0.000292557
-0.000934963
0.000351135
-0.000965613
0.000409995
-0.000995282
0.000468864
-0.00102418
0.000527463
-0.0010525
0.000585503
-0.00108045
0.000642704
-0.00110827
0.000698807
-0.00113635
-0.00116548
0.000753528
0.000409458
-0.000142736
0.00102588
1.11615e-05
0.00162075
0.000273678
0.0021879
0.000401603
0.00272282
0.000408278
0.00321569
0.000360643
0.00366064
0.000298385
0.00405291
0.000235613
0.00439693
0.000174761
0.00470661
0.000114292
0.00500371
5.11306e-05
0.00531569
-1.93378e-05
0.00567123
-0.000103588
0.00608739
-0.000204013
0.00657462
-0.000338069
0.00713858
-0.000508281
0.00776021
-0.000707125
0.00839282
-0.000906247
0.00896496
-0.00105495
0.00938891
-0.00109739
0.00958755
-0.00100194
0.00953006
-0.000786214
0.00924506
-0.000505809
0.00878778
-0.000212113
0.0082193
4.54083e-05
0.0076082
0.000239204
0.00699366
0.000365091
0.00639738
0.000434142
0.00582842
0.000462472
0.0052879
0.000464959
0.00477217
0.000452919
0.00427464
0.000433833
0.00378842
0.000410719
0.00330761
0.000384751
0.00283342
0.000354653
0.00237213
0.000322708
0.0019214
0.000299687
0.00149106
0.000280504
0.00109644
0.000258462
0.000753796
0.000225274
0.000474466
0.000180001
0.000258397
0.000133653
9.34119e-05
9.37069e-05
-3.44294e-05
6.17543e-05
-0.000136336
3.48072e-05
-0.000220278
9.44725e-06
-0.000287222
-1.79174e-05
-0.000341666
-4.57504e-05
-0.000388493
-7.28334e-05
-0.000428586
-0.000100601
-0.000461165
-0.000129743
-0.000485573
-0.000160467
-0.000501869
-0.000192969
-0.000510631
-0.00022743
-0.000512349
-0.00026402
-0.000507047
-0.000302902
-0.000494506
-0.000344211
-0.000474713
-0.000388005
-0.000448064
-0.00043417
-0.000415238
-0.000482361
-0.000376944
-0.000531993
-0.00033381
-0.000582309
-0.000286409
-0.00063247
-0.000235324
-0.000681661
-0.000181177
-0.000729174
-0.000124618
-0.00077447
-6.63091e-05
-0.000817213
-6.88857e-06
-0.000857276
5.30672e-05
-0.000894729
0.00011308
-0.000929799
0.000172792
-0.000962814
0.000231967
-0.000994138
0.000290468
-0.00102411
0.000348214
-0.00105303
0.000405136
-0.0010811
0.000461145
-0.00110851
0.00051611
-0.00113541
0.000569859
-0.00116202
0.000622187
-0.00118868
-0.00121606
0.000672769
-0.000494038
0.000351303
-0.00107221
0.00058933
-0.00138818
0.000589655
-0.00151106
0.000524481
-0.00153796
0.000435173
-0.00150155
0.000324234
-0.00141156
0.000208396
-0.00127856
0.000102615
-0.00111918
1.53744e-05
-0.00095375
-5.11344e-05
-0.000804186
-9.84331e-05
-0.000693464
-0.00013006
-0.000646664
-0.000150388
-0.000686168
-0.000164508
-0.000845631
-0.000178607
-0.00115299
-0.000200918
-0.00161928
-0.000240842
-0.00222408
-0.000301442
-0.00290734
-0.000371691
-0.00357729
-0.000427444
-0.00412785
-0.000451382
-0.00446871
-0.000445352
-0.00455082
-0.000423707
-0.00435883
-0.000404102
-0.00392401
-0.000389406
-0.0033099
-0.000374906
-0.00258866
-0.000356155
-0.0018259
-0.000328612
-0.00107131
-0.000292123
-0.000353451
-0.0002529
0.000316545
-0.000217078
0.000915124
-0.000164746
0.00142423
-9.83856e-05
0.00182284
-1.38609e-05
0.00208664
9.08548e-05
0.00220143
0.000207913
0.00217588
0.000325239
0.00203079
0.000425594
0.00179696
0.000492289
0.00150649
0.000515744
0.00118833
0.000498161
0.000871191