/*--------------------------------*- C++ -*----------------------------------*\
| =========                 |                                                 |
| \\      /  F ield         | OpenFOAM: The Open Source CFD Toolbox           |
|  \\    /   O peration     | Version:  2012                                  |
|   \\  /    A nd           | Website:  www.openfoam.com                      |
|    \\/     M anipulation  |                                                 |
\*---------------------------------------------------------------------------*/
FoamFile
{
    version     2.0;
    format      ascii;
    class       surfaceScalarField;
    location    "0.3";
    object      phi;
}
// * * * * * * * * * * * * * * * * * * * * * * * * * * * * * * * * * * * * * //

dimensions      [0 3 -1 0 0 0 0];
oriented        oriented;


internalField   nonuniform List<scalar> 
84340
(
0.000517489
-0.000243871
-0.000273618
0.00103971
-0.000176522
-0.000345699
0.00114062
0.000165435
-0.000266345
0.000943215
0.000385034
-0.000187628
0.000654437
0.000335027
-4.62494e-05
0.000354574
0.000101892
0.000197972
5.66481e-06
-0.000164593
0.000513502
-0.000483144
-0.000356135
0.000844944
-0.00120063
-0.000426553
0.00114404
-0.00219045
-0.000378307
0.00136813
-0.00342003
-0.00024865
0.00147823
-0.00476904
-9.3996e-05
0.001443
-0.00609108
6.6109e-05
0.00125593
-0.00727613
0.000206048
0.000979003
-0.00823645
0.000305148
0.000655179
-0.00894299
0.000359347
0.000347192
-0.00939041
0.000368123
7.92925e-05
-0.00960802
0.000331731
-0.000114121
-0.00963663
0.000256127
-0.000227511
-0.00949944
0.000157283
-0.00029448
-0.00918794
5.56627e-05
-0.000367161
-0.0086843
-2.62205e-05
-0.000477422
-0.00799668
-8.03846e-05
-0.000607234
-0.00717523
-0.000117136
-0.00070431
-0.00631097
-0.000134018
-0.000730246
-0.00548659
-0.000138633
-0.00068575
-0.00475035
-0.000137783
-0.000598455
-0.00411621
-0.000136709
-0.000497427
-0.00357809
-0.000138722
-0.000399401
-0.00312356
-0.000144968
-0.000309563
-0.00274135
-0.000154647
-0.000227556
-0.00242373
-0.000165646
-0.000151976
-0.00216585
-0.00017528
-8.26001e-05
-0.00196358
-0.000181263
-2.10051e-05
-0.00180904
-0.000182457
2.79152e-05
-0.00168898
-0.000175809
5.57477e-05
-0.00159494
-0.000162121
6.80845e-05
-0.00151808
-0.000143518
6.66601e-05
-0.0014499
-0.000123356
5.51679e-05
-0.00138563
-0.000102321
3.80541e-05
-0.00132315
-8.19399e-05
1.94593e-05
-0.00126232
-6.33032e-05
2.47879e-06
-0.00120405
-4.71702e-05
-1.11005e-05
-0.00114948
-3.39774e-05
-2.05938e-05
-0.0010996
-2.38445e-05
-2.6037e-05
-0.00105502
-1.67291e-05
-2.78535e-05
-0.00101594
-1.24925e-05
-2.65836e-05
-0.000981754
-1.09042e-05
-2.3286e-05
-0.000950583
-1.30598e-05
-1.81108e-05
-0.000923222
-1.69174e-05
-1.04433e-05
-0.000899489
-2.23455e-05
-1.38729e-06
-0.000878976
-2.92059e-05
8.6928e-06
-0.000860449
-3.80515e-05
1.95245e-05
-0.000843488
-4.78233e-05
3.08627e-05
-0.00082759
-5.83908e-05
4.24924e-05
-0.000812343
-6.94581e-05
5.42117e-05
-0.000797512
-8.06646e-05
6.58337e-05
-0.000783027
-9.16815e-05
7.71962e-05
-0.000768952
-0.000102255
8.81789e-05
-0.000755432
-0.000112238
9.87175e-05
-0.000742624
-0.000121623
0.000108815
-0.000730613
-0.000130557
0.000118547
-0.000719327
-0.000139353
0.000128066
-0.000708452
-0.000148474
0.000137599
-0.000697371
-0.000158524
0.000147443
-0.000685108
-0.000170218
0.000157955
-0.000670302
-0.000184353
0.000169547
-0.000651201
-0.000201768
0.000182668
-0.000625681
-0.00022331
0.000197789
-0.00059129
-0.00024978
0.000215389
-0.00054534
-0.000281883
0.000235932
-0.000485019
-0.000320161
0.00025984
-0.000407565
-0.00036492
0.000287467
-0.000310474
-0.000416156
0.000319065
-0.000191739
-0.000473492
0.000354757
-5.01288e-05
-0.000536102
0.000394492
0.000114681
-0.000602776
0.000437966
0.000302232
-0.000672025
0.000484474
0.000512171
-0.000742604
0.000532664
-0.000817523
0.00058038
0.000749315
-0.000355293
0.000111421
-0.000991981
0.000460166
-0.00162937
0.00080282
-0.00214591
0.000901581
-0.00256361
0.000752728
-0.00289077
0.000429052
-0.00309258
3.72133e-05
-0.00307943
-0.000369283
-0.00277918
-0.000726808
-0.00219433
-0.000963156
-0.00142895
-0.00101403
-0.000638853
-0.000884088
7.63014e-05
-0.000649046
0.000674263
-0.000391914
0.00112492
-0.000145511
0.00140741
7.68551e-05
0.00151347
0.000262069
0.00146382
0.00038138
0.00131152
0.000408431
0.00111593
0.000352864
0.000911767
0.000259828
0.000714356
0.000171191
0.000531992
0.000101979
0.000365698
4.91586e-05
0.000215717
1.5964e-05
8.03464e-05
-3.26256e-06
-4.16261e-05
-1.58105e-05
-0.00015447
-2.38656e-05
-0.000255186
-3.80058e-05
-0.00033919
-6.09639e-05
-0.00040442
-8.94171e-05
-0.00045077
-0.000119297
-0.000480069
-0.000145981
-0.000495923
-0.000165409
-0.000503497
-0.000174883
-0.000505861
-0.000173445
-0.000506159
-0.000161823
-0.000508433
-0.000141244
-0.000515269
-0.00011652
-0.000527287
-9.03036e-05
-0.00054403
-6.51964e-05
-0.000565129
-4.22042e-05
-0.000588004
-2.42945e-05
-0.000609045
-1.29361e-05
-0.000627372
-5.51732e-06
-0.000643061
-1.04037e-06
-0.000656084
5.30732e-07
-0.000666624
-3.64355e-07
-0.000675907
-3.77709e-06
-0.000683581
-9.24278e-06
-0.000688753
-1.71732e-05
-0.000690415
-2.75444e-05
-0.000687597
-4.08696e-05
-0.000680753
-5.46671e-05
-0.00067002
-6.91239e-05
-0.00065452
-8.4958e-05
-0.000634466
-0.000100719
-0.000610528
-0.000115618
-0.000583738
-0.000129045
-0.000555356
-0.00014062
-0.00052672
-0.000150259
-0.000499063
-0.000158214
-0.00047335
-0.000165066
-0.000450118
-0.000171705
-0.000429367
-0.000179276
-0.000410482
-0.000189103
-0.000392211
-0.000202623
-0.000372676
-0.000221303
-0.000349419
-0.000246567
-0.00031948
-0.000279718
-0.000279511
-0.000321852
-0.000225918
-0.000373754
-0.000155065
-0.000435773
-6.35557e-05
-0.000507666
5.13894e-05
-0.000588438
0.000191581
-0.000676294
0.000357409
-0.000768603
0.000547604
-0.00086222
0.000759141
-0.000954142
-0.00104201
0.000983631
-0.000365268
0.000476689
-0.000655631
0.00075053
-0.000580943
0.000728133
-0.000331967
0.000652604
-0.000169356
0.000590117
-0.000266367
0.000526063
-0.000692991
0.000463837
-0.00144543
0.000383153
-0.00242265
0.000250418
-0.00343003
4.42241e-05
-0.00426562
-0.000178445
-0.00481844
-0.000331272
-0.00508427
-0.000383215
-0.00513375
-0.00034243
-0.00503505
-0.00024421
-0.00485406
-0.000104134
-0.00465262
6.06229e-05
-0.00448135
0.00021011
-0.00436643
0.000293514
-0.00430618
0.000292618
-0.00428377
0.000237415
-0.00427985
0.000167271
-0.00427875
0.000100884
-0.00426162
3.20264e-05
-0.00423208
-1.35755e-05
-0.00419613
-3.92116e-05
-0.00414305
-6.88924e-05
-0.00406454
-0.000102375
-0.00395681
-0.00014574
-0.00381594
-0.000201833
-0.00363702
-0.000268338
-0.00341733
-0.000338988
-0.00315774
-0.000405568
-0.00286332
-0.000459828
-0.00254308
-0.000495124
-0.002209
-0.000507526
-0.00187467
-0.00049616
-0.00155298
-0.000462929
-0.00125737
-0.000412133
-0.000998391
-0.000349281
-0.000783139
-0.000280449
-0.000612296
-0.000213048
-0.000485956
-0.000150634
-0.000401065
-9.78271e-05
-0.000349873
-5.67099e-05
-0.000323001
-2.7912e-05
-0.000312217
-1.02543e-05
-0.000310413
-2.16774e-06
-0.000313257
-9.33414e-07
-0.000317113
-5.38644e-06
-0.000318451
-1.58352e-05
-0.000316638
-2.93585e-05
-0.00031151
-4.59976e-05
-0.000299079
-6.70975e-05
-0.000278479
-8.97242e-05
-0.000250041
-0.000113397
-0.000214112
-0.000136648
-0.000171742
-0.000157988
-0.000124656
-0.000176131
-7.51034e-05
-0.000190173
-2.561e-05
-0.000199753
2.13218e-05
-0.000205146
6.35537e-05
-0.000207298
9.96082e-05
-0.00020776
0.000128895
-0.000208563
0.000151824
-0.000212032
0.000169797
-0.000220597
0.000185116
-0.000236622
0.000200829
-0.000262281
0.000220568
-0.000299456
0.000248395
-0.000349679
0.000288678
-0.000414036
0.000345903
-0.000492997
0.000424383
-0.000586145
0.000527779
-0.000691833
0.00065839
-0.000806905
0.000816451
-0.000926665
0.00099969
-0.00104546
0.00120284
-0.00115729
-0.00125518
0.00141601
0.000748048
-0.000271359
0.00191076
-0.00041218
0.00304979
-0.000410903
0.00413636
-0.000433966
0.00518911
-0.000462629
0.00615866
-0.000443491
0.00693317
-0.000310665
0.00736611
-4.97932e-05
0.007359
0.000257527
0.00689877
0.000504457
0.00608279
0.000637533
0.00507217
0.000679346
0.00401217
0.000676786
0.00301402
0.000655717
0.00214415
0.000625661
0.00144684
0.000593175
0.000946022
0.000561445
0.000630474
0.000525657
0.000447278
0.00047671
0.000326727
0.000413169
0.000217474
0.000346667
0.000114682
0.000270064
2.03325e-05
0.000195233
-8.15198e-05
0.000133878
-0.000176751
8.16553e-05
-0.000264802
4.8839e-05
-0.000365086
3.13925e-05
-0.000475161
7.70049e-06
-0.000584399
-3.65016e-05
-0.000678842
-0.00010739
-0.000744166
-0.000203014
-0.000767869
-0.000315285
-0.000740935
-0.000432502
-0.000659454
-0.000541309
-0.000525193
-0.000629384
-0.000345022
-0.000687697
-0.000129596
-0.000711586
0.000108093
-0.000700618
0.000353736
-0.000657775
0.0005928
-0.000588345
0.0008115
-0.000499149
0.000995929
-0.000397476
0.0011391
-0.00029381
0.00123552
-0.000194241
0.00128459
-0.000105786
0.00128963
-3.29464e-05
0.00125827
2.11013e-05
0.00119973
5.63732e-05
0.0011245
7.4301e-05
0.0010422
7.69103e-05
0.000960458
6.59085e-05
0.00088701
4.40898e-05
0.00082806
1.29517e-05
0.000785344
-2.43814e-05
0.000761283
-6.5663e-05
0.000756802
-0.000108914
0.00077088
-0.000150727
0.000801163
-0.000188271
0.000844147
-0.000219115
0.000895421
-0.000241445
0.000950019
-0.000254351
0.0010029
-0.000258024
0.00104947
-0.000253875
0.00108623
-0.00024452
0.00111124
-0.000233566
0.00112439
-0.000225184
0.00112737
-0.000223577
0.00112327
-0.000232523
0.00111608
-0.000255093
0.0011102
-0.000293574
0.00111018
-0.000349659
0.00112076
-0.000424616
0.00114695
-0.000519185
0.00119387
-0.000633072
0.00126613
-0.000764093
0.00136665
-0.000907417
0.00149533
-0.00105535
0.00164875
-0.00119888
0.00181848
-0.00132701
-0.00143524
0.00199853
-0.000598184
0.000326825
-0.00181649
0.000806124
-0.00340036
0.00117297
-0.00519016
0.00135583
-0.00698272
0.00132993
-0.00861479
0.00118859
-0.0099523
0.00102684
-0.0108879
0.000885828
-0.0113989
0.000768543
-0.0115511
0.000656661
-0.0114447
0.000531143
-0.011148
0.000382603
-0.0106813
0.000210041
-0.0100384
1.28578e-05
-0.00920739
-0.000205344
-0.00818498
-0.000429237
-0.00696854
-0.000654993
-0.00557314
-0.000869749
-0.00404214
-0.00105429
-0.00242851
-0.00120046
-0.000794251
-0.00128759
0.000786558
-0.00131075
0.00225268
-0.00127089
0.00355964
-0.00117307
0.00466676
-0.00102547
0.0055563
-0.000840701
0.00622399
-0.000636299
0.00666452
-0.000432829
0.00687759
-0.000249571
0.00687313
-0.000102929
0.00667508
-4.97077e-06
0.00631101
4.87886e-05
0.0058359
4.26064e-05
0.00530283
-8.24054e-06
0.00475786
-8.4416e-05
0.00423735
-0.000167181
0.0037669
-0.000241137
0.00336208
-0.000295801
0.00302969
-0.000325387
0.00276919
-0.000327842
0.00257426
-0.000304216
0.00243514
-0.000258354
0.00233854
-0.00019721
0.002269
-0.0001247
0.00221899
-5.57828e-05
0.00217175
1.42999e-05
0.00212435
6.84935e-05
0.00207476
0.000105968
0.0020242
0.00012486
0.00197634
0.000124769
0.00193486
0.000107389
0.00190498
7.39652e-05
0.00188842
2.95127e-05
0.0018895
-2.5458e-05
0.00190799
-8.41496e-05
0.00194255
-0.000143476
0.00199131
-0.000199491
0.00205152
-0.000248475
0.00211961
-0.000287212
0.00219136
-0.000313194
0.00226189
-0.000324875
0.00232582
-0.000321956
0.00237762
-0.000305676
0.00241215
-0.000279051
0.00242553
-0.000246952
0.00241616
-0.000215805
0.00238549
-0.000192913
0.00233812
-0.000185153
0.00228064
-0.000197614
0.00222024
-0.000233165
0.00216369
-0.000293111
0.00211727
-0.000378194
0.00208714
-0.000489059
0.00207944
-0.000625369
0.00209922
-0.000783874
0.00214873
-0.000956931
0.00222578
-0.0011324
0.00232418
-0.00129728
0.00243213
-0.00143496
-0.00154948
0.00254637
0.00022304
0.000103784
0.000547728
0.000481436
0.000802249
0.000918452
0.000969904
0.00118817
0.00105608
0.00124375
0.00105838
0.00118629
0.000987864
0.00109735
0.000861549
0.00101214
0.000698798
0.000931294
0.000515858
0.000839601
0.000325389
0.000721611
0.000139195
0.000568797
-2.88325e-05
0.000378069
-0.00017731
0.000161335
-0.000307373
-7.52808e-05
-0.000400518
-0.000336092
-0.000445037
-0.000610475
-0.000428423
-0.000886362
-0.000334638
-0.00114808
-0.000163995
-0.0013711
7.09425e-05
-0.00152253
0.000334675
-0.00157448
0.00058401
-0.00152023
0.000783687
-0.00137275
0.00091626
-0.00115804
0.000998905
-0.000923346
0.00104482
-0.00068221
0.00106252
-0.000450531
0.00106107
-0.000248127
0.0010467
-8.85549e-05
0.00102199
1.9745e-05
0.00099607
7.47039e-05
0.000973444
6.52331e-05
0.000965366
-1.63081e-07
0.000970577
-8.96273e-05
0.000990604
-0.000187207
0.00102766
-0.000278189
0.00108237
-0.000350517
0.00115314
-0.000396157
0.00123654
-0.000411241
0.00132847
-0.000396145
0.00142523
-0.000355116
0.00152319
-0.00029517
0.00162287
-0.000224379
0.00171839
-0.000151303
0.00181444
-8.17415e-05
0.00191499
-3.20666e-05
0.00201553
5.43694e-06
0.00211552
2.48632e-05
0.00221467
2.56236e-05
0.0023121
9.96091e-06
0.00241018
-2.41134e-05
0.00251089
-7.1198e-05
0.00261094
-0.000125514
0.00271056
-0.000183768
0.00280872
-0.000241635
0.00290413
-0.000294907
0.00299543
-0.000339771
0.00308119
-0.000372971
0.00315995
-0.000391952
0.00323015
-0.000395076
0.00328997
-0.000381783
0.00333713
-0.000352829
0.00336865
-0.000310574
0.00338119
-0.000259495
0.00337066
-0.000205274
0.00333409
-0.000156347
0.00327162
-0.00012268
0.00318656
-0.00011255
0.0030858
-0.000132413
0.00297991
-0.000187216
0.00288126
-0.000279542
0.00280172
-0.00040952
0.00274995
-0.0005736
0.00272905
-0.000762979
0.00273559
-0.000963463
0.00276049
-0.0011573
0.0027917
-0.00132849
0.00281714
-0.0014604
-0.00156458
0.00283224
0.000151005
-4.7221e-05
0.00053335
9.90915e-05
0.00111435
0.000337455
0.00187484
0.000427683
0.00280355
0.000315037
0.00388972
0.000100125
0.00503216
-4.50925e-05
0.00605796
-1.36538e-05
0.00684093
0.000148316
0.00738074
0.000299791
0.00774477
0.000357587
0.00798188
0.000331688
0.00809202
0.000267921
0.00804974
0.000203622
0.0078194
0.000155055
0.00736368
0.000119627
0.00667403
7.91713e-05
0.0057796
8.07162e-06
0.00474271
-0.00011118
0.00364437
-0.000272769
0.00256789
-0.000446047
0.00158363
-0.000590216
0.000742373
-0.000678972
7.65248e-05
-0.000706902
-0.000397491
-0.000684024
-0.000696227
-0.00062461
-0.000823295
-0.000555142
-0.00079425
-0.000479576
-0.000630407
-0.00041197
-0.000370515
-0.000348447
-5.34566e-05
-0.000297314
0.00028547
-0.000264223
0.000602393
-0.00025169
0.000861027
-0.000258797
0.00105596
-0.000284562
0.0011788
-0.000310044
0.00122821
-0.000327604
0.00121615
-0.000338451
0.00115839
-0.000338404
0.00107241
-0.000325254
0.000976527
-0.000300266
0.000888268
-0.000266857
0.00082257
-0.000229472
0.000790869
-0.000192678
0.000799892
-0.000160326
0.000853231
-0.000135081
0.00094118
-0.000120016
0.00106277
-0.000116151
0.00121166
-0.00012403
0.00138019
-0.000142904
0.00156162
-0.000171469
0.0017453
-0.0002078
0.00192339
-0.000249285
0.00209076
-0.000292882
0.00224254
-0.000335544
0.00237521
-0.000374307
0.00248676
-0.000406456
0.00257666
-0.000429673
0.00264577
-0.000442081
0.0026961
-0.000442276
0.00273035
-0.000429329
0.00275164
-0.000403074
0.002763
-0.000364186
0.00276717
-0.000314744
0.00276566
-0.00025799
0.00275991
-0.000199517
0.00275102
-0.000147463
0.00273875
-0.000110404
0.00272377
-9.75759e-05
0.00270989
-0.000118525
0.00270273
-0.000180058
0.00270813
-0.000284946
0.00272919
-0.00043058
0.00276352
-0.000607925
0.00280252
-0.00080198
0.00283321
-0.00099415
0.0028422
-0.00116629
0.00281918
-0.00130547
0.00276304
-0.00140427
-0.00147498
0.00267345
-0.000315585
0.000268365
-0.000502529
0.000286035
-0.000120232
-4.48415e-05
0.000808629
-0.000501179
0.00207512
-0.000951451
0.00335895
-0.0011837
0.00427712
-0.000963269
0.00458544
-0.000321971
0.00432583
0.000407923
0.00376203
0.000863595
0.00316198
0.000957637
0.00268273
0.000810935
0.00236399
0.000586659
0.00216966
0.000397955
0.00203661
0.000288104
0.00190333
0.000252912
0.00172093
0.000261569
0.00145521
0.000273795
0.00108891
0.000255121
0.000627586
0.000188552
0.000103189
7.83508e-05
-0.000431342
-5.56846e-05
-0.000920839
-0.000189476
-0.00132485
-0.000302887
-0.00162425
-0.000384625
-0.00181639
-0.000432474
-0.00192055
-0.000450977
-0.00195317
-0.000446964
-0.00193731
-0.000427829
-0.00188537
-0.00040038
-0.00181191
-0.000370781
-0.00173182
-0.000344306
-0.00165872
-0.000324795
-0.00160341
-0.000314109
-0.00157554
-0.000312429
-0.00156783
-0.000317748
-0.00156847
-0.000326965
-0.00156968
-0.000337247
-0.00156151
-0.000346574
-0.00153302
-0.000353736
-0.00147516
-0.000358127
-0.00138239
-0.000359626
-0.00125317
-0.000358696
-0.00108958
-0.00035627
-0.000896356
-0.000353548
-0.000679669
-0.000351768
-0.000447661
-0.000352024
-0.000208733
-0.000355079
2.85127e-05
-0.000361276
0.000256078
-0.00037047
0.000466747
-0.000382138
0.000654395
-0.000395448
0.000814515
-0.000409404
0.000944571
-0.000422939
0.00104403
-0.000435004
0.00111434
-0.000444621
0.00115874
-0.000450857
0.00118183
-0.000452759
0.00118905
-0.000449297
0.00118621
-0.000439437
0.0011792
-0.00042232
0.0011737
-0.000397578
0.00117518
-0.000365666
0.00118885
-0.000328406
0.00122014
-0.000289284
0.00127407
-0.000253447
0.00135395
-0.000227347
0.00146156
-0.000218013
0.00159643
-0.000232446
0.0017545
-0.000276592
0.00192811
-0.000353672
0.00210571
-0.000462543
0.00227194
-0.000596808
0.0024091
-0.000745093
0.00249995
-0.000892827
0.00253154
-0.00102574
0.0024993
-0.00113406
0.00240891
-0.00121508
0.00227702
-0.00127238
-0.00131382
0.00211586
0.000109428
0.000158936
9.86798e-05
0.000296783
4.75913e-06
4.90791e-05
7.9627e-06
-0.000504383
0.000100275
-0.00104376
0.00012011
-0.00120354
-6.33347e-05
-0.000779824
-0.000465111
7.98056e-05
-0.0010243
0.000967112
-0.0016773
0.00151659
-0.00229786
0.0015782
-0.00271061
0.00122369
-0.0028118
0.000687848
-0.00261871
0.00020486
-0.00221422
-0.000116388
-0.00168218
-0.00027912
-0.00108958
-0.00033104
-0.000494072
-0.000321708
5.16583e-05
-0.000290609
0.000506083
-0.000265873
0.000838588
-0.000254155
0.00104503
-0.000262128
0.00113703
-0.000281472
0.00113364
-0.000299496
0.00105049
-0.000301482
0.000906134
-0.000288114
0.00071695
-0.000261793
0.000497518
-0.000227532
0.000261608
-0.000191919
2.26794e-05
-0.000161452
-0.000206636
-0.000141465
-0.000415607
-0.000135336
-0.000596399
-0.000144002
-0.000744416
-0.000166093
-0.000858355
-0.00019849
-0.000939064
-0.000237039
-0.000988566
-0.000277463
-0.00100957
-0.000316246
-0.00100486
-0.000351281
-0.000976871
-0.000381726
-0.000927458
-0.00040754
-0.000858034
-0.00042905
-0.000770043
-0.000446686
-0.000665436
-0.000460877
-0.00054695
-0.000472035
-0.000418162
-0.000480556
-0.000283369
-0.000486817
-0.000147279
-0.000491169
-1.46197e-05
-0.000493934
0.00011031
-0.000495399
0.00022398
-0.000495809
0.000323892
-0.00049536
0.000408685
-0.000494197
0.000478137
-0.00049239
0.00053305
-0.000489918
0.00057507
-0.000486641
0.000606504
-0.000482292
0.000630215
-0.00047647
0.000649611
-0.000468692
0.000668656
-0.000458481
0.000691874
-0.000445538
0.00072425
-0.000429955
0.000771045
-0.000412462
0.000837288
-0.000394648
0.000927104
-0.0003791
0.00104298
-0.000369319
0.00118504
-0.000369412
0.00135055
-0.000383522
0.00153314
-0.000415038
0.0017222
-0.000465648
0.00190297
-0.000534442
0.00205776
-0.00061733
0.00216818
-0.000707228
0.00221857
-0.000795483
0.0022004
-0.000874664
0.00211636
-0.000941699
0.00198136
-0.000999062
0.00181865
-0.00105236
0.00165211
-0.00110584
-0.00115898
0.00149726
0.000275724
-0.000116788
0.000552024
2.04844e-05
0.000525997
7.51057e-05
0.000143183
-0.000121569
-0.000515871
-0.000384709
-0.00120611
-0.000513301
-0.0015779
-0.000408031
-0.0014073
-9.07963e-05
-0.000759472
0.000319285
7.56115e-05
0.00068151
0.000814945
0.000838865
0.00130273
0.000735899
0.0015277
0.000462882
0.00156166
0.000170899
0.00149936
-5.40888e-05
0.00141856
-0.000198319
0.00136627
-0.000278751
0.0013619
-0.000317336
0.00140166
-0.000330367
0.00146336
-0.000327577
0.00152645
-0.000317241
0.00156774
-0.000303424
0.00157304
-0.000286767
0.00153838
-0.000264837
0.00147048
-0.000233579
0.00137154
-0.000189177
0.00123953
-0.000129786
0.00106876
-5.67579e-05
0.000851834
2.50055e-05
0.00058395
0.000106433
0.00026927
0.000173215
-7.36575e-05
0.000207592
-0.000413398
0.000195739
-0.000715365
0.000135873
-0.00095385
3.9995e-05
-0.00111856
-7.2331e-05
-0.00121341
-0.000182613
-0.00125014
-0.000279517
-0.00124252
-0.000358894
-0.00120276
-0.000421487
-0.00114021
-0.000470094
-0.0010616
-0.000507658
-0.000971774
-0.00053651
-0.000874348
-0.000558303
-0.00077219
-0.000574193
-0.00066769
-0.000585055
-0.000562868
-0.000591639
-0.000459367
-0.00059467
-0.000358422
-0.000594879
-0.000260839
-0.000592982
-0.000167026
-0.000589621
-7.70735e-05
-0.000585312
9.11132e-06
-0.000580382
9.16857e-05
-0.000574965
0.000170805
-0.000569037
0.000246644
-0.000562479
0.00031951
-0.000555158
0.000390031
-0.000546992
0.000459336
-0.000537997
0.000529174
-0.000528319
0.000601903
-0.000518266
0.000680297
-0.000508348
0.000767183
-0.000499348
0.000864903
-0.000492369
0.000974641
-0.000488839
0.00109574
-0.000490415
0.00122507
-0.000498744
0.00135663
-0.000515078
0.00148142
-0.000539829
0.00158795
-0.000572179
0.00166349
-0.000609979
0.0016964
-0.000650244
0.00167965
-0.000690474
0.00161457
-0.0007304
0.00151276
-0.000772856
0.00139367
-0.000822607
0.00127795
-0.000883348
0.00118038
-0.000954796
0.00110671
-0.00103216
-0.00110872
0.00105644
-8.31836e-05
-3.36045e-05
0.000400288
-0.000462987
0.00140869
-0.000933293
0.0024829
-0.00119578
0.00334322
-0.00124502
0.00391154
-0.00108162
0.0042572
-0.000753693
0.00453149
-0.000365081
0.00485749
-6.72308e-06
0.00525331
0.000285691
0.00558011
0.000512071
0.00563903
0.000676977
0.00532122
0.000780687
0.00466684
0.000825282
0.00379291
0.00081984
0.00281633
0.000778263
0.00182326
0.000714313
0.000869668
0.000636261
-1.91973e-05
0.000558499
-0.000821744
0.00047497
-0.00152714
0.00038815
-0.00213177
0.000301213
-0.00263372
0.000215183
-0.00302936
0.000130802
-0.0033127
4.97637e-05
-0.00347761
-2.42704e-05
-0.00352178
-8.56142e-05
-0.00345129
-0.000127253
-0.003283
-0.000143285
-0.00304296
-0.000133602
-0.00276135
-0.000108402
-0.00246727
-8.64856e-05
-0.00218401
-8.75235e-05
-0.00192914
-0.000118996
-0.00171747
-0.00017167
-0.0015506
-0.000239206
-0.00143316
-0.000300048
-0.0013518
-0.000360878
-0.00129389
-0.000416808
-0.00124958
-0.000465797
-0.00121114
-0.000508531
-0.00117296
-0.000545845
-0.00113135
-0.000578116
-0.00108432
-0.000605335
-0.00103116
-0.000627358
-0.000972085
-0.000644125
-0.000907911
-0.000655812
-0.000839691
-0.000662891
-0.000768467
-0.000666104
-0.000695071
-0.000666378
-0.000620011
-0.000664681
-0.000543453
-0.00066187
-0.00046526
-0.000658574
-0.000385097
-0.000655128
-0.000302553
-0.000651582
-0.000217258
-0.000647774
-0.000128971
-0.000643446
-3.76089e-05
-0.000638354
5.67503e-05
-0.000632356
0.000153901
-0.000625471
0.000253528
-0.000617893
0.000355175
-0.000609994
0.00045812
-0.000602294
0.000561167
-0.000595415
0.000662346
-0.000590018
0.000758639
-0.000586709
0.000845837
-0.000585941
0.000918707
-0.000587948
0.000971683
-0.000592805
0.0010002
-0.000600702
0.00100262
-0.000612398
0.000982062
-0.000629683
0.000947074
-0.000655487
0.000909977
-0.000693304
0.00088282
-0.0007457
0.000872746
-0.000812533
0.000879661
-0.000890264
0.000898006
-0.000973141
0.000921232
-0.00105539
-0.0011325
0.000945013
-5.18002e-05
1.81956e-05
-0.000356771
-0.000158017
-0.000911165
-0.0003789
-0.00146307
-0.000643877
-0.00186465
-0.000843447
-0.00215033
-0.000795936
-0.00240845
-0.000495579
-0.00269075
-8.27796e-05
-0.0030088
0.000311329
-0.00335292
0.000629808
-0.00371021
0.000869362
-0.00407065
0.00103741
-0.00442802
0.00113806
-0.0047761
0.00117336
-0.00510209
0.00114583
-0.00538632
0.0010625
-0.00561006
0.000938054
-0.00576702
0.000793224
-0.00584308
0.000634557
-0.00584497
0.00047686
-0.00578305
0.000326229
-0.00566981
0.000187971
-0.00552132
6.66917e-05
-0.00535381
-3.67048e-05
-0.00517862
-0.000125427
-0.0049998
-0.000203094
-0.00481578
-0.000269628
-0.00462226
-0.000320772
-0.0044136
-0.000351947
-0.00418344
-0.000363762
-0.00392039
-0.00037145
-0.00363623
-0.000370651
-0.00335157
-0.000372177
-0.00308906
-0.00038151
-0.0028608
-0.000399931
-0.00267367
-0.000426337
-0.00251497
-0.000458745
-0.00238036
-0.000495485
-0.00226235
-0.000534815
-0.00215321
-0.000574942
-0.00204757
-0.000614171
-0.0019424
-0.000651013
-0.00183629
-0.000684227
-0.00172878
-0.000712838
-0.00161997
-0.000736169
-0.00151023
-0.000753871
-0.00140007
-0.000765971
-0.00129009
-0.000772872
-0.00118088
-0.000775308
-0.00107302
-0.000774237
-0.000967005
-0.000770699
-0.00086322
-0.000765655
-0.000761929
-0.000759865
-0.000663241
-0.000753816
-0.00056711
-0.000747712
-0.000473359
-0.000741524
-0.000381726
-0.000735078
-0.000291936
-0.000728144
-0.000203785
-0.000720508
-0.000117225
-0.00071203
-3.24506e-05
-0.000702667
5.00408e-05
-0.000692486
0.000129412
-0.000681665
0.000204493
-0.000670495
0.000273869
-0.000659393
0.000336087
-0.000648927
0.000390015
-0.00063987
0.000435356
-0.000633289
0.000473195
-0.000630643
0.000506367
-0.000633873
0.000539317
-0.000645348
0.000577145
-0.00066751
0.000623822
-0.000702164
0.000680205
-0.000749686
0.000743141
-0.000808636
0.000806656
-0.000876049
0.000864638
-0.000948246
0.000913238
-0.00102174
0.000951576
-0.00109373
-0.00116161
0.000980687
0.000434656
-0.000416461
0.000747209
-0.000470568
0.000657491
-0.000289182
0.000340632
-0.000327018
-3.90402e-07
-0.000502424
-0.000177184
-0.000619142
-6.14098e-05
-0.000611354
0.000358929
-0.000503118
0.00101251
-0.00034225
0.00180209
-0.000159776
0.00264382
2.76312e-05
0.00347395
0.000207291
0.00424771
0.000364297
0.00493681
0.000484259
0.0055199
0.000562738
0.00597285
0.000609548
0.00627113
0.000639777
0.00641025
0.000654101
0.00640144
0.000643364
0.00626457
0.000613735
0.00600567
0.000585128
0.0056297
0.000563937
0.00515437
0.000542024
0.00460583
0.000511834
0.00401069
0.000469718
0.00339226
0.000415336
0.00277003
0.000352597
0.0021613
0.000287961
0.00158372
0.000225634
0.00105373
0.000166222
0.000567093
0.00011519
0.000132134
6.43079e-05
-0.000245532
5.48838e-06
-0.000566675
-6.03675e-05
-0.000834314
-0.000132293
-0.0010522
-0.000208451
-0.00122422
-0.000286722
-0.00135474
-0.000364967
-0.00144831
-0.000441248
-0.00150933
-0.000513921
-0.00154183
-0.000581674
-0.00154936
-0.000643482
-0.00153505
-0.000698536
-0.00150169
-0.000746197
-0.00145186
-0.000786004
-0.00138799
-0.000817734
-0.00131248
-0.00084148
-0.00122766
-0.000857695
-0.00113579
-0.000867178
-0.00103905
-0.000870981
-0.000939476
-0.00087027
-0.000838951
-0.000866179
-0.000739123
-0.000859693
-0.00064137
-0.00085157
-0.00054674
-0.000842341
-0.000455932
-0.000832332
-0.000369298
-0.000821714
-0.000286885
-0.000810557
-0.000208514
-0.000798878
-0.000133864
-0.00078668
-6.25484e-05
-0.000773983
5.82169e-06
-0.000760856
7.16164e-05
-0.00074746
0.000135209
-0.000734088
0.00019704
-0.000721224
0.000257711
-0.000709598
0.000318073
-0.000700233
0.000379243
-0.000694459
0.000442459
-0.000693859
0.000508699
-0.000700112
0.000578102
-0.000714752
0.000649444
-0.000738852
0.000720042
-0.000772763
0.00078633
-0.000815975
0.000844914
-0.000867221
0.000893607
-0.000924742
0.000931912
-0.000986551
0.000960735
-0.00105056
0.00098161
-0.0011146
-0.00117616
0.000996163
-0.000780913
0.000364453
-0.00178724
0.000535757
-0.00259509
0.00051867
-0.00343769
0.000515583
-0.00446509
0.000524977
-0.00562911
0.000544881
-0.00680536
0.000564892
-0.00788255
0.000574069
-0.00878569
0.000560892
-0.00946942
0.000523953
-0.00990919
0.000467399
-0.0101005
0.000398635
-0.0100665
0.00033024
-0.00985945
0.000277239
-0.00954776
0.000251045
-0.00918772
0.000249511
-0.00880186
0.000253916
-0.00837958
0.00023182
-0.00790224
0.000166026
-0.00737929
9.07774e-05
-0.00685357
5.94125e-05
-0.00637359
8.39504e-05
-0.00596295
0.000131393
-0.00562369
0.000172567
-0.00534905
0.000195076
-0.00512869
0.000194976
-0.00494867
0.000172578
-0.00479096
0.000130261
-0.00463872
7.3393e-05
-0.00447133
-1.17099e-06
-0.00427522
-8.09171e-05
-0.00404859
-0.000162326
-0.00380013
-0.000242965
-0.00353919
-0.000321311
-0.00327478
-0.000396702
-0.00301443
-0.000468802
-0.00276377
-0.000537387
-0.00252655
-0.000602184
-0.00230494
-0.000662855
-0.00209983
-0.000719028
-0.00191116
-0.000770349
-0.00173815
-0.000816486
-0.00157959
-0.000857096
-0.00143401
-0.000891784
-0.00129988
-0.000920131
-0.00117582
-0.000941792
-0.00106065
-0.000956654
-0.000953384
-0.000964959
-0.00085321
-0.000967352
-0.000759378
-0.000964813
-0.000671164
-0.000958484
-0.000587876
-0.000949468
-0.000508897
-0.000938671
-0.00043366
-0.000926807
-0.000361717
-0.000914284
-0.000292708
-0.000901341
-0.000226312
-0.000888109
-0.000162209
-0.000874659
-0.000100055
-0.000861033
-3.94617e-05
-0.000847273
1.9995e-05
-0.000833439
7.87723e-05
-0.000819633
0.000137344
-0.000806031
0.000196178
-0.000792922
0.000255702
-0.000780749
0.000316253
-0.000770149
0.000377999
-0.000761979
0.00044084
-0.0007573
0.000504299
-0.000757318
0.00056746
-0.000763273
0.00062898
-0.000776271
0.000687242
-0.000797113
0.000740634
-0.000826155
0.000787901
-0.000863242
0.000828388
-0.000907707
0.00086205
-0.000958404
0.000889255
-0.00101375
0.000910536
-0.00107185
0.000926504
-0.00113057
-0.00118769
0.000938034
0.000262094
0.000102358
0.000504309
0.000293542
0.000571473
0.000451505
0.000529943
0.000557113
0.000442942
0.000611978
0.000355176
0.000632647
0.000276395
0.000643672
0.000191448
0.000659016
7.01033e-05
0.000682237
-0.000117343
0.0007114
-0.000390825
0.000740881
-0.000757734
0.000765544
-0.00121104
0.00078355
-0.00172948
0.000795673
-0.00227913
0.000800695
-0.00281897
0.00078935
-0.00330836
0.000743313
-0.00372205
0.00064551
-0.00406067
0.000504641
-0.00432309
0.000353201
-0.00447124
0.000207559
-0.00446387
7.65768e-05
-0.00430918
-2.32917e-05
-0.00405995
-7.66654e-05
-0.00376615
-9.87184e-05
-0.0034601
-0.00011108
-0.00316036
-0.000127166
-0.00287484
-0.000155252
-0.00260409
-0.00019736
-0.00235315
-0.000252107
-0.00212462
-0.000309452
-0.00191445
-0.000372499
-0.00171497
-0.000442442
-0.00152202
-0.000514259
-0.00133375